Generated with MDTraj, t= 1251.0
 6521
    1MOL     O1    1   2.108   2.185   1.527
    1MOL     O2    2   1.990   2.278   1.684
    1MOL     N1    3   2.004   2.204   1.588
    1MOL     C1    4   1.887   2.109   1.558
    1MOL     C2    5   1.904   1.994   1.481
    1MOL     C3    6   1.758   2.143   1.598
    1MOL     C4    7   1.792   1.921   1.441
    1MOL     C5    8   1.647   2.073   1.558
    1MOL     C6    9   1.667   1.957   1.486
    1MOL     C7   10   1.802   1.808   1.345
    1MOL     O3   11   1.916   1.781   1.305
    1MOL     O4   12   1.710   1.735   1.330
    1MOL     H1   13   2.002   1.963   1.445
    1MOL     H2   14   1.743   2.234   1.656
    1MOL     H3   15   1.551   2.114   1.586
    1MOL     H4   16   1.584   1.898   1.446
    2OCB     C1   17   2.286   2.944   2.239
    2OCB     C2   18   2.272   3.028   1.969
    2OCB     C3   19   2.220   3.061   2.205
    2OCB     C4   20   2.346   2.869   2.140
    2OCB     C5   21   2.355   2.921   2.010
    2OCB     C6   22   2.208   3.101   2.070
    2OCB     O1   23   2.260   3.053   1.834
    2OCB     C7   24   2.137   3.236   2.029
    2OCB     C8   25   2.126   3.027   1.780
    2OCB     O2   26   2.053   3.146   1.764
    2OCB     C9   27   1.957   3.180   1.857
    2OCB    C10   28   1.988   3.215   1.989
    2OCB    C11   29   1.890   3.217   2.087
    2OCB    C12   30   1.822   3.148   1.822
    2OCB    C13   31   1.760   3.192   2.053
    2OCB    C14   32   1.721   3.157   1.921
    2OCB     O3   33   1.591   3.117   1.893
    2OCB    C15   34   1.652   3.193   2.160
    2OCB    C16   35   1.632   3.050   2.220
    2OCB    C17   36   1.553   2.954   2.153
    2OCB    C18   37   1.569   2.979   1.918
    2OCB     O4   38   1.486   2.977   2.036
    2OCB     O5   39   2.403   2.748   2.160
    2OCB    C19   40   2.277   2.893   2.383
    2OCB    C20   41   2.154   2.806   2.395
    2OCB     O6   42   2.275   2.623   2.312
    2OCB    C21   43   2.158   2.674   2.360
    2OCB    C22   44   1.533   2.830   2.203
    2OCB    C23   45   1.616   2.790   2.304
    2OCB    C24   46   2.049   2.588   2.359
    2OCB    C25   47   1.926   2.639   2.410
    2OCB     O7   48   1.615   2.655   2.333
    2OCB     O8   49   1.806   2.564   2.408
    2OCB    C26   50   1.725   2.573   2.294
    2OCB    C27   51   2.030   2.860   2.442
    2OCB    C28   52   1.915   2.779   2.444
    2OCB    C29   53   1.717   3.010   2.325
    2OCB    C30   54   1.777   2.825   2.492
    2OCB    C31   55   1.700   2.877   2.372
    2OCB    C32   56   2.310   2.643   2.171
    2OCB    C33   57   1.668   3.308   2.262
    2OCB    C34   58   1.540   3.331   2.342
    2OCB    C35   59   1.559   3.455   2.430
    2OCB     O9   60   1.580   3.441   2.548
    2OCB    C36   61   2.149   3.345   2.137
    2OCB    C37   62   2.296   3.380   2.181
    2OCB    C38   63   2.307   3.473   2.299
    2OCB    O10   64   2.281   3.591   2.286
    2OCB    C39   65   2.303   3.003   2.481
    2OCB    C40   66   2.441   3.062   2.465
    2OCB    C41   67   2.495   3.118   2.592
    2OCB    O11   68   2.547   3.038   2.665
    2OCB    C42   69   1.785   2.921   2.610
    2OCB    C43   70   1.649   2.958   2.678
    2OCB    C44   71   1.660   3.034   2.809
    2OCB    O12   72   1.706   2.981   2.911
    2OCB    C45   73   2.137   2.950   1.644
    2OCB    C46   74   2.137   2.799   1.402
    2OCB    C47   75   2.040   2.965   1.543
    2OCB    C48   76   2.242   2.858   1.619
    2OCB    C49   77   2.244   2.796   1.496
    2OCB    C50   78   2.036   2.888   1.424
    2OCB    C51   79   2.362   2.519   2.106
    2OCB    C52   80   2.406   2.282   1.954
    2OCB    C53   81   2.311   2.395   2.147
    2OCB    C54   82   2.434   2.525   1.985
    2OCB    C55   83   2.464   2.403   1.913
    2OCB    C56   84   2.330   2.283   2.067
    2OCB    C57   85   1.685   2.438   2.235
    2OCB    C58   86   1.632   2.212   2.091
    2OCB    C59   87   1.580   2.440   2.140
    2OCB    C60   88   1.763   2.326   2.258
    2OCB    C61   89   1.738   2.210   2.184
    2OCB    C62   90   1.553   2.322   2.065
    2OCB    C63   91   1.496   2.923   1.795
    2OCB    C64   92   1.361   2.815   1.580
    2OCB    C65   93   1.398   2.828   1.815
    2OCB    C66   94   1.524   2.972   1.670
    2OCB    C67   95   1.453   2.916   1.564
    2OCB    C68   96   1.329   2.772   1.707
    2OCB    O13   97   2.538   2.406   1.798
    2OCB    O14   98   1.805   2.097   2.212
    2OCB    O15   99   1.457   2.301   1.972
    2OCB    O16  100   2.351   2.715   1.462
    2OCB    O17  101   1.940   2.911   1.326
    2OCB    O18  102   1.242   2.666   1.716
    2OCB    O19  103   1.471   2.969   1.437
    2OCB    C69  104   1.938   2.100   2.242
    2OCB    C70  105   2.201   2.134   2.332
    2OCB    C71  106   2.042   2.105   2.147
    2OCB    C72  107   1.970   2.097   2.380
    2OCB    C73  108   2.102   2.110   2.429
    2OCB    C74  109   2.168   2.141   2.198
    2OCB    O20  110   2.272   2.157   2.109
    2OCB    C75  111   2.448   2.671   1.556
    2OCB    C76  112   2.662   2.590   1.723
    2OCB    C77  113   2.562   2.749   1.574
    2OCB    C78  114   2.431   2.558   1.637
    2OCB    C79  115   2.545   2.521   1.723
    2OCB    C80  116   2.673   2.704   1.646
    2OCB    C81  117   1.346   2.388   1.949
    2OCB    C82  118   1.131   2.555   1.904
    2OCB    C83  119   1.240   2.379   2.036
    2OCB    C84  120   1.349   2.483   1.846
    2OCB    C85  121   1.240   2.570   1.823
    2OCB    C86  122   1.131   2.462   2.013
    2OCB    C87  123   1.018   2.463   2.113
    2OCB    O21  124   1.026   2.390   2.214
    2OCB    C88  125   1.735   3.368   1.342
    2OCB    O22  126   1.840   3.426   1.332
    2OCB    C89  127   2.799   2.781   1.633
    2OCB    O23  128   2.817   2.867   1.549
    2OCB    O24  129   1.593   3.558   2.378
    2OCB    O25  130   1.603   3.140   2.819
    2OCB    O26  131   2.489   3.233   2.625
    2OCB    C90  132   2.139   2.131   2.575
    2OCB    O27  133   2.252   2.129   2.609
    2OCB    O28  134   1.630   3.431   1.323
    2OCB    O29  135   0.929   2.553   2.120
    2OCB    O30  136   2.054   2.189   2.638
    2OCB    O31  137   2.896   2.736   1.696
    2OCB    O32  138   2.380   3.444   2.390
    2OCB    C91  139   1.830   2.992   1.348
    2OCB    C92  140   1.599   3.155   1.371
    2OCB    C93  141   1.707   2.939   1.384
    2OCB    C94  142   1.843   3.137   1.338
    2OCB    C95  143   1.728   3.215   1.347
    2OCB    C96  144   1.591   3.022   1.397
    2OCB    C97  145   1.695   2.785   1.409
    2OCB    C98  146   2.298   2.483   1.624
    2OCB    C99  147   2.009   2.095   1.998
    2OCB      C  148   1.469   2.494   1.757
    2OCB     H1  149   2.159   3.112   2.280
    2OCB     H2  150   2.391   2.856   1.931
    2OCB     H3  151   2.193   3.281   1.947
    2OCB     H4  152   2.082   2.961   1.856
    2OCB     H5  153   1.911   3.223   2.194
    2OCB     H6  154   1.810   3.096   1.727
    2OCB     H7  155   1.558   3.210   2.107
    2OCB     H8  156   1.662   2.921   1.930
    2OCB     H9  157   2.368   2.834   2.392
    2OCB    H10  158   1.462   2.764   2.154
    2OCB    H11  159   2.055   2.485   2.326
    2OCB    H12  160   1.783   2.627   2.218
    2OCB    H13  161   2.015   2.962   2.476
    2OCB    H14  162   1.782   3.066   2.391
    2OCB    H15  163   1.721   2.743   2.536
    2OCB    H16  164   2.214   2.675   2.127
    2OCB    H17  165   1.740   3.274   2.336
    2OCB    H18  166   1.678   3.404   2.211
    2OCB    H19  167   1.447   3.335   2.284
    2OCB    H20  168   1.520   3.256   2.419
    2OCB    H21  169   2.089   3.326   2.227
    2OCB    H22  170   2.105   3.431   2.086
    2OCB    H23  171   2.340   3.285   2.213
    2OCB    H24  172   2.333   3.424   2.087
    2OCB    H25  173   2.230   3.084   2.476
    2OCB    H26  174   2.295   2.958   2.580
    2OCB    H27  175   2.516   2.991   2.430
    2OCB    H28  176   2.443   3.138   2.387
    2OCB    H29  177   1.848   2.883   2.691
    2OCB    H30  178   1.832   3.015   2.578
    2OCB    H31  179   1.597   3.026   2.610
    2OCB    H32  180   1.592   2.865   2.685
    2OCB    H33  181   2.149   2.742   1.311
    2OCB    H34  182   1.951   3.026   1.554
    2OCB    H35  183   2.320   2.854   1.693
    2OCB    H36  184   2.427   2.199   1.887
    2OCB    H37  185   2.247   2.380   2.234
    2OCB    H38  186   2.469   2.619   1.943
    2OCB    H39  187   1.604   2.123   2.035
    2OCB    H40  188   1.528   2.530   2.110
    2OCB    H41  189   1.854   2.343   2.316
    2OCB    H42  190   1.306   2.782   1.492
    2OCB    H43  191   1.371   2.789   1.913
    2OCB    H44  192   1.595   3.052   1.650
    2OCB    H45  193   2.300   2.154   2.372
    2OCB    H46  194   1.896   2.095   2.460
    2OCB    H47  195   2.746   2.550   1.778
    2OCB    H48  196   2.576   2.841   1.519
    2OCB    H49  197   1.043   2.617   1.884
    2OCB    H50  198   1.243   2.308   2.117
    2OCB    H51  199   1.510   3.218   1.373
    2OCB    H52  200   1.941   3.182   1.332
    2OCB    H53  201   1.741   2.727   1.328
    2OCB    H54  202   1.743   2.751   1.501
    2OCB    H55  203   1.590   2.757   1.412
    2OCB    H56  204   2.286   2.397   1.690
    2OCB    H57  205   2.222   2.557   1.651
    2OCB    H58  206   2.290   2.453   1.519
    2OCB    H59  207   1.930   2.169   1.978
    2OCB    H60  208   2.089   2.133   1.934
    2OCB    H61  209   1.967   2.000   1.965
    2OCB    H62  210   1.542   2.565   1.797
    2OCB    H63  211   1.521   2.402   1.732
    2OCB    H64  212   1.440   2.522   1.655
    3Na+    Na+  213   2.828   2.624   1.153
    4Na+    Na+  214   0.214   1.078   3.989
    5Na+    Na+  215   1.468   0.718   3.705
    6Na+    Na+  216   2.401   3.422   2.618
    7Na+    Na+  217   3.044   2.892   1.609
    8Na+    Na+  218   0.167   2.293   1.896
    9Na+    Na+  219   1.914   3.406   3.011
   10Na+    Na+  220   2.441   3.677   2.403
   11Na+    Na+  221   2.908   0.015   3.037
   12HOH      O  222   3.960   3.000   2.241
   12HOH     H1  223   3.869   2.974   2.231
   12HOH     H2  224   3.981   2.979   2.332
   13HOH      O  225   0.542   0.580   0.706
   13HOH     H1  226   0.478   0.617   0.646
   13HOH     H2  227   0.563   0.494   0.668
   14HOH      O  228   1.904   2.439   0.129
   14HOH     H1  229   1.921   2.446   0.035
   14HOH     H2  230   1.901   2.344   0.146
   15HOH      O  231   2.644   0.579   2.006
   15HOH     H1  232   2.647   0.527   1.926
   15HOH     H2  233   2.700   0.531   2.068
   16HOH      O  234   3.785   0.097   2.813
   16HOH     H1  235   3.785   0.096   2.717
   16HOH     H2  236   3.873   0.126   2.837
   17HOH      O  237   1.483   2.628   3.670
   17HOH     H1  238   1.424   2.560   3.637
   17HOH     H2  239   1.531   2.586   3.742
   18HOH      O  240   0.306   2.157   3.563
   18HOH     H1  241   0.288   2.234   3.508
   18HOH     H2  242   0.327   2.193   3.649
   19HOH      O  243   3.468   0.771   3.802
   19HOH     H1  244   3.432   0.806   3.721
   19HOH     H2  245   3.561   0.756   3.782
   20HOH      O  246   2.676   3.693   3.994
   20HOH     H1  247   2.699   3.607   3.959
   20HOH     H2  248   2.708   3.692   4.084
   21HOH      O  249   0.908   1.856   4.019
   21HOH     H1  250   0.843   1.786   4.011
   21HOH     H2  251   0.973   1.837   3.952
   22HOH      O  252   2.383   2.403   1.018
   22HOH     H1  253   2.398   2.409   1.112
   22HOH     H2  254   2.358   2.311   1.003
   23HOH      O  255   2.449   1.556   2.529
   23HOH     H1  256   2.379   1.617   2.505
   23HOH     H2  257   2.447   1.489   2.460
   24HOH      O  258   3.111   0.388   3.512
   24HOH     H1  259   3.054   0.431   3.576
   24HOH     H2  260   3.199   0.417   3.536
   25HOH      O  261   2.018   2.567   2.055
   25HOH     H1  262   1.932   2.544   2.021
   25HOH     H2  263   2.070   2.488   2.046
   26HOH      O  264   1.571   1.771   0.238
   26HOH     H1  265   1.551   1.797   0.328
   26HOH     H2  266   1.536   1.842   0.184
   27HOH      O  267   0.035   0.662   0.363
   27HOH     H1  268   0.129   0.647   0.349
   27HOH     H2  269   0.007   0.588   0.418
   28HOH      O  270   1.010   1.671   3.045
   28HOH     H1  271   1.049   1.616   3.113
   28HOH     H2  272   0.984   1.609   2.977
   29HOH      O  273   2.080   0.366   3.535
   29HOH     H1  274   2.119   0.347   3.620
   29HOH     H2  275   2.131   0.439   3.501
   30HOH      O  276   2.049   0.137   2.557
   30HOH     H1  277   2.027   0.044   2.562
   30HOH     H2  278   2.052   0.156   2.463
   31HOH      O  279   0.108   1.472   3.993
   31HOH     H1  280   0.013   1.479   4.001
   31HOH     H2  281   0.133   1.406   4.057
   32HOH      O  282   0.628   1.145   1.524
   32HOH     H1  283   0.718   1.113   1.532
   32HOH     H2  284   0.605   1.172   1.613
   33HOH      O  285   3.166   0.666   3.811
   33HOH     H1  286   3.232   0.649   3.744
   33HOH     H2  287   3.201   0.624   3.890
   34HOH      O  288   2.636   1.529   2.063
   34HOH     H1  289   2.731   1.516   2.062
   34HOH     H2  290   2.600   1.449   2.026
   35HOH      O  291   1.173   0.870   3.910
   35HOH     H1  292   1.208   0.900   3.994
   35HOH     H2  293   1.239   0.896   3.846
   36HOH      O  294   0.931   2.807   1.079
   36HOH     H1  295   0.897   2.739   1.137
   36HOH     H2  296   1.004   2.845   1.128
   37HOH      O  297   0.647   1.801   2.993
   37HOH     H1  298   0.680   1.758   3.072
   37HOH     H2  299   0.623   1.889   3.021
   38HOH      O  300   2.968   3.028   1.773
   38HOH     H1  301   3.006   3.104   1.728
   38HOH     H2  302   2.921   3.066   1.848
   39HOH      O  303   1.706   3.540   2.931
   39HOH     H1  304   1.626   3.524   2.981
   39HOH     H2  305   1.674   3.564   2.844
   40HOH      O  306   3.986   1.378   3.610
   40HOH     H1  307   3.989   1.283   3.627
   40HOH     H2  308   4.001   1.385   3.515
   41HOH      O  309   3.462   0.621   1.615
   41HOH     H1  310   3.478   0.576   1.698
   41HOH     H2  311   3.491   0.711   1.631
   42HOH      O  312   3.737   3.346   1.752
   42HOH     H1  313   3.825   3.314   1.769
   42HOH     H2  314   3.679   3.275   1.781
   43HOH      O  315   1.773   3.282   2.620
   43HOH     H1  316   1.733   3.235   2.693
   43HOH     H2  317   1.705   3.341   2.589
   44HOH      O  318   1.081   1.114   2.215
   44HOH     H1  319   1.072   1.207   2.196
   44HOH     H2  320   1.007   1.094   2.272
   45HOH      O  321   0.060   3.974   3.045
   45HOH     H1  322   0.057   3.966   3.140
   45HOH     H2  323  -0.029   3.996   3.020
   46HOH      O  324   1.259   0.288   0.685
   46HOH     H1  325   1.199   0.361   0.697
   46HOH     H2  326   1.250   0.236   0.765
   47HOH      O  327   0.574   2.055   2.647
   47HOH     H1  328   0.616   2.138   2.623
   47HOH     H2  329   0.606   2.037   2.735
   48HOH      O  330   2.789   0.453   2.848
   48HOH     H1  331   2.720   0.436   2.784
   48HOH     H2  332   2.764   0.536   2.888
   49HOH      O  333   0.543   0.322   2.308
   49HOH     H1  334   0.592   0.313   2.390
   49HOH     H2  335   0.469   0.262   2.318
   50HOH      O  336   2.346   1.887   3.715
   50HOH     H1  337   2.305   1.956   3.662
   50HOH     H2  338   2.354   1.926   3.802
   51HOH      O  339   3.291   0.402   1.801
   51HOH     H1  340   3.296   0.359   1.715
   51HOH     H2  341   3.372   0.454   1.805
   52HOH      O  342   2.225   0.647   0.758
   52HOH     H1  343   2.243   0.726   0.809
   52HOH     H2  344   2.130   0.634   0.767
   53HOH      O  345   1.925   3.290   3.869
   53HOH     H1  346   1.928   3.199   3.840
   53HOH     H2  347   1.847   3.326   3.826
   54HOH      O  348   3.914   2.093   0.030
   54HOH     H1  349   3.988   2.114   0.086
   54HOH     H2  350   3.946   2.022  -0.026
   55HOH      O  351   2.929   0.048   1.583
   55HOH     H1  352   3.017   0.045   1.622
   55HOH     H2  353   2.936  -0.003   1.503
   56HOH      O  354   2.309   0.231   1.015
   56HOH     H1  355   2.318   0.219   0.920
   56HOH     H2  356   2.235   0.291   1.024
   57HOH      O  357   3.161   3.736   0.503
   57HOH     H1  358   3.142   3.643   0.517
   57HOH     H2  359   3.112   3.780   0.572
   58HOH      O  360   1.695   0.383   0.211
   58HOH     H1  361   1.774   0.408   0.258
   58HOH     H2  362   1.659   0.466   0.178
   59HOH      O  363   0.932   3.635   2.603
   59HOH     H1  364   0.912   3.720   2.643
   59HOH     H2  365   0.891   3.571   2.661
   60HOH      O  366   0.361   1.808   3.768
   60HOH     H1  367   0.377   1.748   3.841
   60HOH     H2  368   0.444   1.812   3.721
   61HOH      O  369   3.588   3.607   2.192
   61HOH     H1  370   3.638   3.534   2.155
   61HOH     H2  371   3.615   3.683   2.139
   62HOH      O  372   3.540   2.734   0.212
   62HOH     H1  373   3.457   2.713   0.170
   62HOH     H2  374   3.579   2.649   0.233
   63HOH      O  375   3.396   2.607   3.606
   63HOH     H1  376   3.345   2.653   3.673
   63HOH     H2  377   3.389   2.515   3.630
   64HOH      O  378   3.791   0.079   1.892
   64HOH     H1  379   3.804   0.066   1.798
   64HOH     H2  380   3.876   0.105   1.925
   65HOH      O  381   2.854   0.851   0.697
   65HOH     H1  382   2.879   0.760   0.709
   65HOH     H2  383   2.923   0.900   0.742
   66HOH      O  384   1.392   0.750   0.347
   66HOH     H1  385   1.307   0.776   0.380
   66HOH     H2  386   1.381   0.658   0.323
   67HOH      O  387   3.198   2.832   3.298
   67HOH     H1  388   3.115   2.822   3.252
   67HOH     H2  389   3.224   2.742   3.319
   68HOH      O  390   2.767   3.180   3.010
   68HOH     H1  391   2.707   3.108   2.989
   68HOH     H2  392   2.824   3.145   3.078
   69HOH      O  393   2.814   0.702   3.212
   69HOH     H1  394   2.806   0.750   3.295
   69HOH     H2  395   2.891   0.647   3.224
   70HOH      O  396   0.915   2.545   0.271
   70HOH     H1  397   0.857   2.594   0.329
   70HOH     H2  398   0.953   2.478   0.327
   71HOH      O  399   0.919   1.820   2.329
   71HOH     H1  400   0.898   1.908   2.361
   71HOH     H2  401   1.005   1.801   2.365
   72HOH      O  402   1.401   2.735   2.893
   72HOH     H1  403   1.435   2.694   2.972
   72HOH     H2  404   1.389   2.827   2.917
   73HOH      O  405   0.032   2.102   2.704
   73HOH     H1  406   0.127   2.114   2.696
   73HOH     H2  407   0.018   2.009   2.683
   74HOH      O  408   1.987   2.847   2.084
   74HOH     H1  409   1.982   2.753   2.100
   74HOH     H2  410   1.920   2.885   2.142
   75HOH      O  411   0.111   1.289   2.222
   75HOH     H1  412   0.145   1.229   2.156
   75HOH     H2  413   0.152   1.261   2.304
   76HOH      O  414   1.245   3.111   3.377
   76HOH     H1  415   1.245   3.204   3.354
   76HOH     H2  416   1.314   3.102   3.442
   77HOH      O  417   3.169   3.003   2.908
   77HOH     H1  418   3.170   2.925   2.852
   77HOH     H2  419   3.104   3.060   2.867
   78HOH      O  420   4.034   3.887   3.309
   78HOH     H1  421   4.060   3.797   3.332
   78HOH     H2  422   3.951   3.876   3.262
   79HOH      O  423   2.310   3.011   1.191
   79HOH     H1  424   2.287   2.978   1.278
   79HOH     H2  425   2.333   3.103   1.205
   80HOH      O  426   3.903   2.992   0.035
   80HOH     H1  427   3.850   2.919   0.002
   80HOH     H2  428   3.977   2.998  -0.025
   81HOH      O  429   0.392   3.618   2.404
   81HOH     H1  430   0.336   3.633   2.479
   81HOH     H2  431   0.481   3.616   2.440
   82HOH      O  432   3.138   1.875   3.138
   82HOH     H1  433   3.065   1.933   3.159
   82HOH     H2  434   3.151   1.887   3.044
   83HOH      O  435   0.355   3.611   3.719
   83HOH     H1  436   0.410   3.534   3.719
   83HOH     H2  437   0.300   3.602   3.798
   84HOH      O  438   2.559   0.021   3.614
   84HOH     H1  439   2.646   0.051   3.587
   84HOH     H2  440   2.509   0.102   3.626
   85HOH      O  441   0.436   1.042   3.934
   85HOH     H1  442   0.464   1.023   3.845
   85HOH     H2  443   0.511   1.019   3.989
   86HOH      O  444   1.689   1.043   2.035
   86HOH     H1  445   1.667   1.010   2.122
   86HOH     H2  446   1.607   1.080   2.001
   87HOH      O  447   2.168   0.174   3.338
   87HOH     H1  448   2.157   0.240   3.271
   87HOH     H2  449   2.147   0.219   3.420
   88HOH      O  450   0.346   2.655   1.679
   88HOH     H1  451   0.386   2.676   1.594
   88HOH     H2  452   0.362   2.561   1.691
   89HOH      O  453   1.635   3.698   2.159
   89HOH     H1  454   1.623   3.655   2.244
   89HOH     H2  455   1.714   3.657   2.122
   90HOH      O  456   3.140   2.326   2.108
   90HOH     H1  457   3.120   2.280   2.190
   90HOH     H2  458   3.178   2.409   2.136
   91HOH      O  459   2.061   3.216   3.382
   91HOH     H1  460   2.009   3.139   3.402
   91HOH     H2  461   2.147   3.181   3.356
   92HOH      O  462   3.566   2.819   3.496
   92HOH     H1  463   3.493   2.767   3.529
   92HOH     H2  464   3.617   2.757   3.443
   93HOH      O  465   0.285   0.154   3.319
   93HOH     H1  466   0.376   0.183   3.329
   93HOH     H2  467   0.261   0.121   3.406
   94HOH      O  468   0.019   1.557   1.545
   94HOH     H1  469   0.114   1.544   1.558
   94HOH     H2  470  -0.017   1.557   1.634
   95HOH      O  471   0.483   2.404   2.660
   95HOH     H1  472   0.440   2.370   2.738
   95HOH     H2  473   0.544   2.335   2.634
   96HOH      O  474   0.171   3.900   2.088
   96HOH     H1  475   0.162   3.817   2.136
   96HOH     H2  476   0.115   3.888   2.010
   97HOH      O  477   0.767   1.088   2.623
   97HOH     H1  478   0.731   1.051   2.704
   97HOH     H2  479   0.690   1.116   2.573
   98HOH      O  480   2.393   3.891   1.165
   98HOH     H1  481   2.301   3.909   1.182
   98HOH     H2  482   2.393   3.826   1.095
   99HOH      O  483   3.055   2.820   2.714
   99HOH     H1  484   3.018   2.903   2.682
   99HOH     H2  485   3.027   2.755   2.650
  100HOH      O  486   0.570   0.695   1.658
  100HOH     H1  487   0.549   0.673   1.567
  100HOH     H2  488   0.661   0.725   1.655
  101HOH      O  489   0.122   2.573   3.343
  101HOH     H1  490   0.147   2.641   3.281
  101HOH     H2  491   0.068   2.512   3.292
  102HOH      O  492   0.357   1.462   0.869
  102HOH     H1  493   0.405   1.462   0.952
  102HOH     H2  494   0.297   1.536   0.876
  103HOH      O  495   3.317   3.647   2.214
  103HOH     H1  496   3.400   3.619   2.175
  103HOH     H2  497   3.285   3.717   2.156
  104HOH      O  498   1.532   2.185   3.892
  104HOH     H1  499   1.540   2.132   3.971
  104HOH     H2  500   1.617   2.178   3.849
  105HOH      O  501   2.283   2.597   0.294
  105HOH     H1  502   2.267   2.502   0.290
  105HOH     H2  503   2.367   2.605   0.340
  106HOH      O  504   3.917   0.135   0.339
  106HOH     H1  505   3.997   0.113   0.290
  106HOH     H2  506   3.848   0.135   0.273
  107HOH      O  507   1.357   2.205   1.389
  107HOH     H1  508   1.395   2.290   1.413
  107HOH     H2  509   1.304   2.180   1.465
  108HOH      O  510   3.661   0.384   2.263
  108HOH     H1  511   3.650   0.323   2.190
  108HOH     H2  512   3.687   0.328   2.337
  109HOH      O  513   0.146   1.074   3.449
  109HOH     H1  514   0.127   1.016   3.376
  109HOH     H2  515   0.061   1.091   3.489
  110HOH      O  516   2.002   2.716   1.096
  110HOH     H1  517   1.968   2.725   1.184
  110HOH     H2  518   1.926   2.725   1.039
  111HOH      O  519   0.279   2.477   1.238
  111HOH     H1  520   0.209   2.421   1.205
  111HOH     H2  521   0.313   2.521   1.160
  112HOH      O  522   3.167   3.979   3.820
  112HOH     H1  523   3.177   3.884   3.810
  112HOH     H2  524   3.157   3.991   3.915
  113HOH      O  525   3.564   3.370   2.979
  113HOH     H1  526   3.508   3.342   2.907
  113HOH     H2  527   3.544   3.309   3.050
  114HOH      O  528   1.795   2.719   0.883
  114HOH     H1  529   1.724   2.742   0.823
  114HOH     H2  530   1.848   2.656   0.834
  115HOH      O  531   0.158   1.912   3.262
  115HOH     H1  532   0.248   1.909   3.229
  115HOH     H2  533   0.166   1.892   3.355
  116HOH      O  534   1.492   0.029   3.313
  116HOH     H1  535   1.467  -0.025   3.388
  116HOH     H2  536   1.586   0.017   3.305
  117HOH      O  537   2.979   1.521   0.764
  117HOH     H1  538   3.028   1.460   0.709
  117HOH     H2  539   2.924   1.569   0.702
  118HOH      O  540   2.556   1.391   2.711
  118HOH     H1  541   2.609   1.460   2.751
  118HOH     H2  542   2.513   1.434   2.637
  119HOH      O  543   2.938   3.697   3.374
  119HOH     H1  544   2.948   3.655   3.289
  119HOH     H2  545   3.022   3.685   3.417
  120HOH      O  546   2.068   1.478   3.464
  120HOH     H1  547   2.114   1.520   3.537
  120HOH     H2  548   2.053   1.548   3.401
  121HOH      O  549   2.890   3.354   3.682
  121HOH     H1  550   2.984   3.340   3.684
  121HOH     H2  551   2.867   3.356   3.589
  122HOH      O  552   2.806   2.249   1.777
  122HOH     H1  553   2.766   2.329   1.810
  122HOH     H2  554   2.752   2.224   1.702
  123HOH      O  555   3.888   3.734   1.240
  123HOH     H1  556   3.854   3.678   1.170
  123HOH     H2  557   3.816   3.738   1.304
  124HOH      O  558   0.114   3.040   2.551
  124HOH     H1  559   0.182   3.070   2.491
  124HOH     H2  560   0.085   3.119   2.596
  125HOH      O  561   3.225   0.129   0.597
  125HOH     H1  562   3.319   0.113   0.593
  125HOH     H2  563   3.216   0.213   0.642
  126HOH      O  564   2.750   3.730   2.745
  126HOH     H1  565   2.845   3.720   2.749
  126HOH     H2  566   2.726   3.773   2.827
  127HOH      O  567   3.728   3.556   2.854
  127HOH     H1  568   3.686   3.482   2.898
  127HOH     H2  569   3.751   3.522   2.768
  128HOH      O  570   0.743   0.683   2.550
  128HOH     H1  571   0.787   0.758   2.511
  128HOH     H2  572   0.659   0.717   2.580
  129HOH      O  573   0.304   1.522   1.611
  129HOH     H1  574   0.351   1.517   1.695
  129HOH     H2  575   0.355   1.466   1.553
  130HOH      O  576   3.753   0.413   0.967
  130HOH     H1  577   3.735   0.472   0.893
  130HOH     H2  578   3.666   0.391   1.001
  131HOH      O  579   2.672   3.798   0.256
  131HOH     H1  580   2.678   3.865   0.324
  131HOH     H2  581   2.597   3.744   0.283
  132HOH      O  582   3.295   0.207   2.596
  132HOH     H1  583   3.389   0.224   2.589
  132HOH     H2  584   3.256   0.293   2.613
  133HOH      O  585   3.147   0.334   3.036
  133HOH     H1  586   3.057   0.302   3.042
  133HOH     H2  587   3.196   0.278   3.097
  134HOH      O  588   3.264   1.414   3.186
  134HOH     H1  589   3.231   1.422   3.097
  134HOH     H2  590   3.189   1.430   3.242
  135HOH      O  591   0.422   3.981   2.134
  135HOH     H1  592   0.431   3.943   2.221
  135HOH     H2  593   0.362   3.923   2.088
  136HOH      O  594   0.576   1.828   0.130
  136HOH     H1  595   0.576   1.744   0.083
  136HOH     H2  596   0.536   1.890   0.069
  137HOH      O  597   1.968   2.641   2.791
  137HOH     H1  598   1.908   2.675   2.858
  137HOH     H2  599   1.925   2.562   2.758
  138HOH      O  600   0.134   0.550   1.219
  138HOH     H1  601   0.167   0.549   1.129
  138HOH     H2  602   0.041   0.530   1.210
  139HOH      O  603   1.982   1.224   0.256
  139HOH     H1  604   1.925   1.265   0.192
  139HOH     H2  605   1.926   1.212   0.333
  140HOH      O  606   3.434   1.606   0.950
  140HOH     H1  607   3.505   1.640   1.004
  140HOH     H2  608   3.367   1.675   0.952
  141HOH      O  609   1.883   3.719   2.778
  141HOH     H1  610   1.918   3.646   2.728
  141HOH     H2  611   1.790   3.699   2.790
  142HOH      O  612   2.235   3.698   1.833
  142HOH     H1  613   2.177   3.656   1.769
  142HOH     H2  614   2.306   3.735   1.781
  143HOH      O  615   0.489   1.000   1.777
  143HOH     H1  616   0.394   0.998   1.785
  143HOH     H2  617   0.508   0.952   1.696
  144HOH      O  618   2.367   2.137   1.446
  144HOH     H1  619   2.282   2.162   1.483
  144HOH     H2  620   2.345   2.090   1.365
  145HOH      O  621   1.998   3.637   0.379
  145HOH     H1  622   1.932   3.651   0.311
  145HOH     H2  623   2.070   3.593   0.335
  146HOH      O  624   0.816   1.903   0.271
  146HOH     H1  625   0.858   1.858   0.198
  146HOH     H2  626   0.728   1.867   0.274
  147HOH      O  627   3.894   2.459   1.359
  147HOH     H1  628   3.918   2.475   1.268
  147HOH     H2  629   3.977   2.465   1.407
  148HOH      O  630   3.482   0.113   2.317
  148HOH     H1  631   3.506   0.143   2.230
  148HOH     H2  632   3.390   0.088   2.310
  149HOH      O  633   0.789   0.741   0.483
  149HOH     H1  634   0.774   0.720   0.575
  149HOH     H2  635   0.749   0.669   0.435
  150HOH      O  636   0.620   3.673   3.421
  150HOH     H1  637   0.560   3.721   3.364
  150HOH     H2  638   0.601   3.705   3.509
  151HOH      O  639   3.717   0.269   3.310
  151HOH     H1  640   3.700   0.347   3.257
  151HOH     H2  641   3.712   0.196   3.248
  152HOH      O  642   2.095   2.720   3.657
  152HOH     H1  643   2.015   2.771   3.647
  152HOH     H2  644   2.162   2.772   3.613
  153HOH      O  645   3.193   3.033   1.043
  153HOH     H1  646   3.265   2.992   1.091
  153HOH     H2  647   3.198   3.126   1.066
  154HOH      O  648   0.217   1.153   2.018
  154HOH     H1  649   0.239   1.065   2.051
  154HOH     H2  650   0.198   1.139   1.925
  155HOH      O  651   1.325   1.995   3.839
  155HOH     H1  652   1.290   2.027   3.922
  155HOH     H2  653   1.382   2.065   3.808
  156HOH      O  654   0.899   0.341   3.672
  156HOH     H1  655   0.860   0.380   3.751
  156HOH     H2  656   0.920   0.251   3.698
  157HOH      O  657   2.769   0.137   1.803
  157HOH     H1  658   2.810   0.113   1.720
  157HOH     H2  659   2.744   0.054   1.843
  158HOH      O  660   2.143   4.014   3.804
  158HOH     H1  661   2.081   3.998   3.876
  158HOH     H2  662   2.211   3.947   3.816
  159HOH      O  663   2.426   2.392   1.311
  159HOH     H1  664   2.420   2.324   1.379
  159HOH     H2  665   2.339   2.431   1.308
  160HOH      O  666   1.468   2.472   1.378
  160HOH     H1  667   1.557   2.447   1.354
  160HOH     H2  668   1.444   2.539   1.314
  161HOH      O  669   1.840   2.438   1.905
  161HOH     H1  670   1.786   2.359   1.901
  161HOH     H2  671   1.890   2.437   1.823
  162HOH      O  672   1.642   1.661   1.071
  162HOH     H1  673   1.591   1.586   1.103
  162HOH     H2  674   1.674   1.703   1.151
  163HOH      O  675   3.990   2.551   2.540
  163HOH     H1  676   4.008   2.633   2.586
  163HOH     H2  677   4.058   2.545   2.473
  164HOH      O  678   0.780   0.404   3.915
  164HOH     H1  679   0.744   0.488   3.886
  164HOH     H2  680   0.823   0.425   3.998
  165HOH      O  681   0.064   3.902   3.725
  165HOH     H1  682   0.027   3.842   3.790
  165HOH     H2  683   0.159   3.890   3.734
  166HOH      O  684   1.935   1.433   1.042
  166HOH     H1  685   1.849   1.459   1.009
  166HOH     H2  686   1.990   1.510   1.030
  167HOH      O  687   3.807   1.108   1.572
  167HOH     H1  688   3.840   1.047   1.507
  167HOH     H2  689   3.815   1.194   1.530
  168HOH      O  690   2.407   1.302   2.962
  168HOH     H1  691   2.365   1.380   2.927
  168HOH     H2  692   2.496   1.305   2.927
  169HOH      O  693   2.449   1.970   2.511
  169HOH     H1  694   2.400   1.896   2.474
  169HOH     H2  695   2.385   2.017   2.564
  170HOH      O  696   0.621   3.387   4.044
  170HOH     H1  697   0.673   3.465   4.021
  170HOH     H2  698   0.666   3.315   4.001
  171HOH      O  699   0.527   1.818   1.463
  171HOH     H1  700   0.580   1.870   1.403
  171HOH     H2  701   0.546   1.727   1.440
  172HOH      O  702   1.094   3.465   1.581
  172HOH     H1  703   1.100   3.509   1.665
  172HOH     H2  704   1.004   3.481   1.552
  173HOH      O  705   3.456   3.346   1.359
  173HOH     H1  706   3.465   3.441   1.357
  173HOH     H2  707   3.546   3.313   1.360
  174HOH      O  708   2.042   0.872   0.454
  174HOH     H1  709   2.030   0.918   0.537
  174HOH     H2  710   2.095   0.932   0.401
  175HOH      O  711   1.297   1.046   0.566
  175HOH     H1  712   1.314   0.957   0.598
  175HOH     H2  713   1.310   1.102   0.642
  176HOH      O  714   2.711   1.160   0.703
  176HOH     H1  715   2.776   1.195   0.764
  176HOH     H2  716   2.723   1.065   0.707
  177HOH      O  717   0.795   1.283   3.319
  177HOH     H1  718   0.721   1.343   3.314
  177HOH     H2  719   0.806   1.252   3.229
  178HOH      O  720   2.993   3.059   0.390
  178HOH     H1  721   2.906   3.085   0.359
  178HOH     H2  722   2.982   2.967   0.416
  179HOH      O  723   2.981   1.599   2.710
  179HOH     H1  724   3.065   1.560   2.686
  179HOH     H2  725   2.972   1.674   2.651
  180HOH      O  726   2.562   3.582   1.746
  180HOH     H1  727   2.535   3.563   1.656
  180HOH     H2  728   2.544   3.501   1.794
  181HOH      O  729   3.045   1.710   2.180
  181HOH     H1  730   3.024   1.617   2.177
  181HOH     H2  731   2.987   1.750   2.115
  182HOH      O  732   2.377   1.782   3.206
  182HOH     H1  733   2.462   1.773   3.250
  182HOH     H2  734   2.336   1.696   3.216
  183HOH      O  735   2.183   1.098   3.802
  183HOH     H1  736   2.269   1.107   3.760
  183HOH     H2  737   2.180   1.007   3.832
  184HOH      O  738   0.614   0.956   0.825
  184HOH     H1  739   0.655   0.880   0.868
  184HOH     H2  740   0.685   1.020   0.816
  185HOH      O  741   3.166   3.726   1.615
  185HOH     H1  742   3.091   3.689   1.569
  185HOH     H2  743   3.234   3.658   1.609
  186HOH      O  744   1.270   0.816   2.882
  186HOH     H1  745   1.239   0.748   2.822
  186HOH     H2  746   1.268   0.896   2.830
  187HOH      O  747   0.484   3.906   3.335
  187HOH     H1  748   0.490   3.971   3.404
  187HOH     H2  749   0.400   3.862   3.350
  188HOH      O  750   2.553   2.516   2.677
  188HOH     H1  751   2.507   2.598   2.696
  188HOH     H2  752   2.494   2.469   2.618
  189HOH      O  753   0.223   0.956   1.769
  189HOH     H1  754   0.213   0.936   1.676
  189HOH     H2  755   0.190   0.878   1.813
  190HOH      O  756   0.597   1.277   0.253
  190HOH     H1  757   0.607   1.183   0.267
  190HOH     H2  758   0.661   1.317   0.312
  191HOH      O  759   2.319   3.980   3.289
  191HOH     H1  760   2.289   3.937   3.369
  191HOH     H2  761   2.290   4.071   3.298
  192HOH      O  762   2.242   0.239   1.418
  192HOH     H1  763   2.310   0.213   1.481
  192HOH     H2  764   2.223   0.331   1.440
  193HOH      O  765   2.498   0.211   2.900
  193HOH     H1  766   2.556   0.153   2.850
  193HOH     H2  767   2.440   0.249   2.834
  194HOH      O  768   2.032   0.273   1.111
  194HOH     H1  769   1.960   0.318   1.067
  194HOH     H2  770   2.097   0.341   1.127
  195HOH      O  771   2.639   0.757   1.066
  195HOH     H1  772   2.663   0.849   1.055
  195HOH     H2  773   2.659   0.738   1.158
  196HOH      O  774   1.240   1.460   2.856
  196HOH     H1  775   1.195   1.484   2.937
  196HOH     H2  776   1.332   1.484   2.872
  197HOH      O  777   2.935   0.777   0.149
  197HOH     H1  778   3.029   0.756   0.145
  197HOH     H2  779   2.913   0.769   0.241
  198HOH      O  780   0.470   2.514   3.300
  198HOH     H1  781   0.565   2.506   3.286
  198HOH     H2  782   0.461   2.578   3.370
  199HOH      O  783   3.160   3.348   3.020
  199HOH     H1  784   3.079   3.348   2.970
  199HOH     H2  785   3.173   3.439   3.045
  200HOH      O  786   3.427   2.889   1.114
  200HOH     H1  787   3.395   2.800   1.098
  200HOH     H2  788   3.443   2.893   1.208
  201HOH      O  789   2.754   2.126   2.036
  201HOH     H1  790   2.738   2.034   2.054
  201HOH     H2  791   2.786   2.128   1.946
  202HOH      O  792   3.464   1.180   2.709
  202HOH     H1  793   3.467   1.259   2.655
  202HOH     H2  794   3.393   1.197   2.772
  203HOH      O  795   1.772   2.448   3.659
  203HOH     H1  796   1.690   2.439   3.609
  203HOH     H2  797   1.833   2.487   3.597
  204HOH      O  798   2.722   2.458   3.906
  204HOH     H1  799   2.738   2.545   3.941
  204HOH     H2  800   2.807   2.429   3.873
  205HOH      O  801   0.352   0.403   0.283
  205HOH     H1  802   0.365   0.339   0.213
  205HOH     H2  803   0.355   0.488   0.239
  206HOH      O  804   2.119   0.167   0.804
  206HOH     H1  805   2.153   0.156   0.715
  206HOH     H2  806   2.029   0.135   0.799
  207HOH      O  807   3.678   0.468   1.386
  207HOH     H1  808   3.602   0.471   1.328
  207HOH     H2  809   3.641   0.478   1.474
  208HOH      O  810   2.344   1.163   0.941
  208HOH     H1  811   2.394   1.242   0.960
  208HOH     H2  812   2.278   1.159   1.010
  209HOH      O  813   0.511   0.439   3.468
  209HOH     H1  814   0.439   0.442   3.404
  209HOH     H2  815   0.536   0.530   3.481
  210HOH      O  816   0.426   2.879   2.979
  210HOH     H1  817   0.486   2.822   2.933
  210HOH     H2  818   0.472   2.902   3.060
  211HOH      O  819   3.793   2.763   1.541
  211HOH     H1  820   3.778   2.699   1.471
  211HOH     H2  821   3.799   2.710   1.620
  212HOH      O  822   1.722   0.531   1.161
  212HOH     H1  823   1.626   0.537   1.158
  212HOH     H2  824   1.742   0.511   1.252
  213HOH      O  825   1.384   3.781   3.926
  213HOH     H1  826   1.421   3.700   3.962
  213HOH     H2  827   1.447   3.849   3.951
  214HOH      O  828   2.248   2.870   3.483
  214HOH     H1  829   2.295   2.941   3.526
  214HOH     H2  830   2.203   2.912   3.410
  215HOH      O  831   3.493   0.284   1.246
  215HOH     H1  832   3.490   0.300   1.152
  215HOH     H2  833   3.412   0.323   1.279
  216HOH      O  834   1.602   0.758   2.162
  216HOH     H1  835   1.513   0.763   2.128
  216HOH     H2  836   1.601   0.813   2.241
  217HOH      O  837   0.174   0.118   2.230
  217HOH     H1  838   0.135   0.051   2.173
  217HOH     H2  839   0.258   0.081   2.256
  218HOH      O  840   3.153   1.420   2.216
  218HOH     H1  841   3.074   1.367   2.232
  218HOH     H2  842   3.215   1.359   2.177
  219HOH      O  843   1.625   2.644   3.901
  219HOH     H1  844   1.553   2.679   3.953
  219HOH     H2  845   1.700   2.643   3.961
  220HOH      O  846   2.448   1.261   0.685
  220HOH     H1  847   2.524   1.202   0.686
  220HOH     H2  848   2.388   1.224   0.749
  221HOH      O  849   1.166   2.891   1.271
  221HOH     H1  850   1.204   2.817   1.222
  221HOH     H2  851   1.239   2.951   1.284
  222HOH      O  852   0.317   2.624   2.701
  222HOH     H1  853   0.388   2.682   2.727
  222HOH     H2  854   0.360   2.541   2.679
  223HOH      O  855   3.878   0.584   1.911
  223HOH     H1  856   3.834   0.630   1.982
  223HOH     H2  857   3.807   0.545   1.859
  224HOH      O  858   3.893   2.061   2.913
  224HOH     H1  859   3.928   1.981   2.953
  224HOH     H2  860   3.943   2.072   2.832
  225HOH      O  861   0.516   0.790   2.640
  225HOH     H1  862   0.498   0.883   2.627
  225HOH     H2  863   0.454   0.745   2.582
  226HOH      O  864   1.227   2.417   2.374
  226HOH     H1  865   1.294   2.354   2.347
  226HOH     H2  866   1.159   2.410   2.307
  227HOH      O  867   0.207   2.810   1.046
  227HOH     H1  868   0.272   2.810   1.116
  227HOH     H2  869   0.123   2.813   1.091
  228HOH      O  870   2.462   1.422   0.989
  228HOH     H1  871   2.418   1.433   1.074
  228HOH     H2  872   2.549   1.388   1.012
  229HOH      O  873   2.926   3.346   1.039
  229HOH     H1  874   3.017   3.319   1.054
  229HOH     H2  875   2.885   3.339   1.125
  230HOH      O  876   3.964   0.743   2.252
  230HOH     H1  877   3.947   0.649   2.255
  230HOH     H2  878   3.930   0.771   2.167
  231HOH      O  879   3.371   2.127   2.269
  231HOH     H1  880   3.284   2.166   2.264
  231HOH     H2  881   3.394   2.131   2.362
  232HOH      O  882   3.643   3.082   1.853
  232HOH     H1  883   3.592   3.136   1.913
  232HOH     H2  884   3.601   2.996   1.856
  233HOH      O  885   0.509   2.633   1.046
  233HOH     H1  886   0.546   2.641   0.958
  233HOH     H2  887   0.478   2.721   1.067
  234HOH      O  888   2.420   3.967   3.044
  234HOH     H1  889   2.366   3.952   3.123
  234HOH     H2  890   2.390   4.051   3.011
  235HOH      O  891   0.253   1.825   1.465
  235HOH     H1  892   0.232   1.766   1.392
  235HOH     H2  893   0.349   1.826   1.469
  236HOH      O  894   0.120   1.365   0.528
  236HOH     H1  895   0.140   1.275   0.555
  236HOH     H2  896   0.026   1.373   0.542
  237HOH      O  897   2.175   2.439   3.400
  237HOH     H1  898   2.206   2.400   3.319
  237HOH     H2  899   2.168   2.366   3.461
  238HOH      O  900   1.933   0.796   1.439
  238HOH     H1  901   1.874   0.820   1.368
  238HOH     H2  902   1.877   0.786   1.516
  239HOH      O  903   1.908   3.174   2.955
  239HOH     H1  904   1.840   3.107   2.961
  239HOH     H2  905   1.978   3.132   2.906
  240HOH      O  906   3.906   1.374   2.733
  240HOH     H1  907   3.833   1.410   2.783
  240HOH     H2  908   3.864   1.330   2.659
  241HOH      O  909   0.994   2.693   2.500
  241HOH     H1  910   0.997   2.780   2.537
  241HOH     H2  911   1.029   2.703   2.411
  242HOH      O  912   2.472   1.524   1.568
  242HOH     H1  913   2.379   1.527   1.588
  242HOH     H2  914   2.515   1.559   1.646
  243HOH      O  915   2.689   0.796   1.348
  243HOH     H1  916   2.706   0.707   1.379
  243HOH     H2  917   2.595   0.809   1.363
  244HOH      O  918   1.549   3.982  -0.004
  244HOH     H1  919   1.493   4.054   0.023
  244HOH     H2  920   1.631   3.996   0.043
  245HOH      O  921   3.375   1.716   3.079
  245HOH     H1  922   3.299   1.764   3.109
  245HOH     H2  923   3.417   1.684   3.160
  246HOH      O  924   0.728   1.474   3.107
  246HOH     H1  925   0.808   1.448   3.063
  246HOH     H2  926   0.660   1.467   3.040
  247HOH      O  927   2.070   1.795   0.152
  247HOH     H1  928   2.094   1.705   0.127
  247HOH     H2  929   2.153   1.833   0.182
  248HOH      O  930   2.562   1.025   2.404
  248HOH     H1  931   2.617   1.103   2.393
  248HOH     H2  932   2.612   0.955   2.364
  249HOH      O  933   2.300   0.321   0.384
  249HOH     H1  934   2.339   0.389   0.439
  249HOH     H2  935   2.265   0.368   0.308
  250HOH      O  936   0.234   1.275   3.282
  250HOH     H1  937   0.234   1.197   3.338
  250HOH     H2  938   0.142   1.303   3.280
  251HOH      O  939   3.242   2.592   2.173
  251HOH     H1  940   3.212   2.627   2.089
  251HOH     H2  941   3.216   2.658   2.237
  252HOH      O  942   0.134   1.327   2.857
  252HOH     H1  943   0.042   1.333   2.832
  252HOH     H2  944   0.157   1.414   2.889
  253HOH      O  945   0.476   2.243   1.036
  253HOH     H1  946   0.481   2.336   1.011
  253HOH     H2  947   0.516   2.240   1.123
  254HOH      O  948   0.599   1.505   0.620
  254HOH     H1  949   0.658   1.465   0.556
  254HOH     H2  950   0.571   1.587   0.579
  255HOH      O  951   0.864   3.263   0.889
  255HOH     H1  952   0.771   3.239   0.889
  255HOH     H2  953   0.908   3.187   0.851
  256HOH      O  954   2.090   1.339   1.993
  256HOH     H1  955   2.019   1.400   1.973
  256HOH     H2  956   2.051   1.252   1.986
  257HOH      O  957   1.021   2.821   1.745
  257HOH     H1  958   1.026   2.814   1.650
  257HOH     H2  959   1.110   2.807   1.775
  258HOH      O  960   0.341   3.150   0.739
  258HOH     H1  961   0.260   3.100   0.750
  258HOH     H2  962   0.313   3.233   0.700
  259HOH      O  963   0.982   1.544   3.979
  259HOH     H1  964   1.024   1.520   3.897
  259HOH     H2  965   0.895   1.576   3.953
  260HOH      O  966   3.623   0.082   2.539
  260HOH     H1  967   3.595   0.073   2.448
  260HOH     H2  968   3.588   0.167   2.566
  261HOH      O  969   0.698   1.451   3.731
  261HOH     H1  970   0.674   1.380   3.791
  261HOH     H2  971   0.646   1.433   3.652
  262HOH      O  972   2.200   3.620   3.264
  262HOH     H1  973   2.146   3.680   3.212
  262HOH     H2  974   2.287   3.658   3.261
  263HOH      O  975   3.704   1.703   0.426
  263HOH     H1  976   3.613   1.692   0.396
  263HOH     H2  977   3.731   1.786   0.387
  264HOH      O  978   4.003   0.958   3.249
  264HOH     H1  979   3.951   1.028   3.211
  264HOH     H2  980   4.069   0.938   3.183
  265HOH      O  981   2.308   1.060   3.366
  265HOH     H1  982   2.232   1.117   3.350
  265HOH     H2  983   2.378   1.120   3.392
  266HOH      O  984   0.582   2.178   1.307
  266HOH     H1  985   0.589   2.135   1.392
  266HOH     H2  986   0.597   2.271   1.326
  267HOH      O  987   3.154   1.819   0.198
  267HOH     H1  988   3.070   1.857   0.222
  267HOH     H2  989   3.218   1.869   0.249
  268HOH      O  990   3.273   1.181   2.522
  268HOH     H1  991   3.294   1.136   2.604
  268HOH     H2  992   3.355   1.185   2.474
  269HOH      O  993   0.395   2.993   0.407
  269HOH     H1  994   0.427   3.082   0.394
  269HOH     H2  995   0.307   2.993   0.370
  270HOH      O  996   1.038   2.199   4.006
  270HOH     H1  997   1.036   2.166   3.916
  270HOH     H2  998   0.946   2.193   4.035
  271HOH      O  999   2.146   3.958   2.262
  271HOH     H1 1000   2.052   3.968   2.276
  271HOH     H2 1001   2.175   3.898   2.331
  272HOH      O 1002   3.551   3.719   1.069
  272HOH     H1 1003   3.564   3.813   1.063
  272HOH     H2 1004   3.592   3.684   0.990
  273HOH      O 1005   0.863   0.760   1.621
  273HOH     H1 1006   0.907   0.705   1.557
  273HOH     H2 1007   0.885   0.720   1.706
  274HOH      O 1008   0.065   1.807   1.729
  274HOH     H1 1009   0.000   1.873   1.704
  274HOH     H2 1010   0.092   1.767   1.647
  275HOH      O 1011   0.033   3.305   3.697
  275HOH     H1 1012  -0.001   3.373   3.639
  275HOH     H2 1013   0.121   3.287   3.664
  276HOH      O 1014   3.131   1.503   1.918
  276HOH     H1 1015   3.185   1.577   1.947
  276HOH     H2 1016   3.195   1.436   1.892
  277HOH      O 1017   3.885   1.248   2.091
  277HOH     H1 1018   3.972   1.206   2.088
  277HOH     H2 1019   3.904   1.340   2.108
  278HOH      O 1020   3.251   4.001   2.743
  278HOH     H1 1021   3.335   3.956   2.731
  278HOH     H2 1022   3.252   4.070   2.677
  279HOH      O 1023   3.438   3.184   4.023
  279HOH     H1 1024   3.456   3.250   3.956
  279HOH     H2 1025   3.379   3.228   4.085
  280HOH      O 1026   3.509   1.413   3.295
  280HOH     H1 1027   3.496   1.474   3.368
  280HOH     H2 1028   3.426   1.414   3.248
  281HOH      O 1029   2.364   3.899   0.462
  281HOH     H1 1030   2.367   3.972   0.400
  281HOH     H2 1031   2.377   3.821   0.408
  282HOH      O 1032   2.737   1.953   1.149
  282HOH     H1 1033   2.769   1.905   1.225
  282HOH     H2 1034   2.685   1.889   1.100
  283HOH      O 1035   0.328   3.878   3.839
  283HOH     H1 1036   0.392   3.949   3.831
  283HOH     H2 1037   0.353   3.832   3.919
  284HOH      O 1038   3.538   1.691   0.077
  284HOH     H1 1039   3.558   1.631   0.005
  284HOH     H2 1040   3.477   1.643   0.132
  285HOH      O 1041   1.325   1.061   2.447
  285HOH     H1 1042   1.255   1.060   2.382
  285HOH     H2 1043   1.360   1.150   2.444
  286HOH      O 1044   3.359   0.596   0.453
  286HOH     H1 1045   3.364   0.528   0.386
  286HOH     H2 1046   3.437   0.650   0.437
  287HOH      O 1047   1.418   1.981   2.350
  287HOH     H1 1048   1.323   1.984   2.339
  287HOH     H2 1049   1.432   1.923   2.424
  288HOH      O 1050   2.670   3.665   0.890
  288HOH     H1 1051   2.679   3.740   0.831
  288HOH     H2 1052   2.737   3.680   0.957
  289HOH      O 1053   3.358   2.397   1.482
  289HOH     H1 1054   3.358   2.420   1.575
  289HOH     H2 1055   3.306   2.317   1.477
  290HOH      O 1056   0.059   3.442   0.176
  290HOH     H1 1057   0.141   3.393   0.176
  290HOH     H2 1058  -0.006   3.379   0.145
  291HOH      O 1059   0.763   3.694   3.064
  291HOH     H1 1060   0.801   3.720   3.148
  291HOH     H2 1061   0.840   3.677   3.008
  292HOH      O 1062   0.106   3.614   3.023
  292HOH     H1 1063   0.035   3.596   3.085
  292HOH     H2 1064   0.061   3.643   2.943
  293HOH      O 1065   3.454   1.051   0.341
  293HOH     H1 1066   3.374   1.062   0.392
  293HOH     H2 1067   3.423   1.041   0.251
  294HOH      O 1068   1.585   2.470   0.249
  294HOH     H1 1069   1.649   2.507   0.188
  294HOH     H2 1070   1.502   2.476   0.202
  295HOH      O 1071   1.250   1.930   2.649
  295HOH     H1 1072   1.206   2.005   2.609
  295HOH     H2 1073   1.260   1.955   2.741
  296HOH      O 1074   0.221   1.897   3.548
  296HOH     H1 1075   0.243   1.990   3.540
  296HOH     H2 1076   0.258   1.870   3.632
  297HOH      O 1077   0.056   2.278   1.210
  297HOH     H1 1078  -0.001   2.328   1.152
  297HOH     H2 1079   0.082   2.201   1.158
  298HOH      O 1080   2.455   3.489   1.507
  298HOH     H1 1081   2.435   3.497   1.414
  298HOH     H2 1082   2.381   3.442   1.545
  299HOH      O 1083   3.959   0.679   0.764
  299HOH     H1 1084   3.876   0.690   0.811
  299HOH     H2 1085   4.012   0.625   0.822
  300HOH      O 1086   1.213   1.292   3.645
  300HOH     H1 1087   1.143   1.325   3.589
  300HOH     H2 1088   1.293   1.316   3.600
  301HOH      O 1089   0.902   2.118   1.686
  301HOH     H1 1090   0.937   2.098   1.772
  301HOH     H2 1091   0.925   2.210   1.671
  302HOH      O 1092   1.174   0.936   1.339
  302HOH     H1 1093   1.103   1.000   1.331
  302HOH     H2 1094   1.242   0.968   1.280
  303HOH      O 1095   1.577   0.993   2.286
  303HOH     H1 1096   1.628   0.982   2.367
  303HOH     H2 1097   1.498   1.038   2.314
  304HOH      O 1098   0.346   0.594   3.792
  304HOH     H1 1099   0.396   0.675   3.780
  304HOH     H2 1100   0.266   0.607   3.742
  305HOH      O 1101   0.585   0.128   0.498
  305HOH     H1 1102   0.541   0.100   0.418
  305HOH     H2 1103   0.622   0.047   0.534
  306HOH      O 1104   1.427   3.438   0.898
  306HOH     H1 1105   1.510   3.436   0.851
  306HOH     H2 1106   1.449   3.409   0.986
  307HOH      O 1107   0.581   0.892   2.327
  307HOH     H1 1108   0.563   0.799   2.317
  307HOH     H2 1109   0.675   0.901   2.307
  308HOH      O 1110   0.680   1.681   3.275
  308HOH     H1 1111   0.708   1.612   3.215
  308HOH     H2 1112   0.587   1.666   3.287
  309HOH      O 1113   0.468   3.251   0.400
  309HOH     H1 1114   0.470   3.300   0.482
  309HOH     H2 1115   0.560   3.237   0.378
  310HOH      O 1116   3.308   1.345   1.005
  310HOH     H1 1117   3.329   1.433   0.974
  310HOH     H2 1118   3.312   1.351   1.100
  311HOH      O 1119   3.925   2.553   0.189
  311HOH     H1 1120   3.833   2.538   0.166
  311HOH     H2 1121   3.970   2.558   0.104
  312HOH      O 1122   0.782   2.677   0.479
  312HOH     H1 1123   0.738   2.592   0.480
  312HOH     H2 1124   0.791   2.701   0.571
  313HOH      O 1125   3.292   0.936   1.726
  313HOH     H1 1126   3.378   0.933   1.684
  313HOH     H2 1127   3.293   0.864   1.789
  314HOH      O 1128   1.382   2.456   0.084
  314HOH     H1 1129   1.387   2.428  -0.008
  314HOH     H2 1130   1.293   2.487   0.095
  315HOH      O 1131   0.911   0.085   2.559
  315HOH     H1 1132   0.889  -0.006   2.579
  315HOH     H2 1133   0.919   0.088   2.464
  316HOH      O 1134   0.731   0.656   3.846
  316HOH     H1 1135   0.650   0.702   3.823
  316HOH     H2 1136   0.794   0.726   3.863
  317HOH      O 1137   0.047   0.759   3.628
  317HOH     H1 1138  -0.022   0.817   3.597
  317HOH     H2 1139   0.088   0.726   3.548
  318HOH      O 1140   0.420   2.083   4.009
  318HOH     H1 1141   0.435   2.163   3.960
  318HOH     H2 1142   0.331   2.057   3.986
  319HOH      O 1143   0.744   2.486   1.633
  319HOH     H1 1144   0.834   2.459   1.649
  319HOH     H2 1145   0.713   2.516   1.718
  320HOH      O 1146   1.929   3.003   3.488
  320HOH     H1 1147   1.907   3.040   3.573
  320HOH     H2 1148   1.889   2.916   3.488
  321HOH      O 1149   2.563   2.077   0.868
  321HOH     H1 1150   2.539   2.005   0.809
  321HOH     H2 1151   2.610   2.139   0.812
  322HOH      O 1152   0.192   0.277   3.602
  322HOH     H1 1153   0.275   0.275   3.650
  322HOH     H2 1154   0.185   0.190   3.563
  323HOH      O 1155   3.485   1.144   2.369
  323HOH     H1 1156   3.562   1.154   2.312
  323HOH     H2 1157   3.448   1.060   2.345
  324HOH      O 1158   0.387   2.242   2.877
  324HOH     H1 1159   0.321   2.269   2.940
  324HOH     H2 1160   0.345   2.174   2.825
  325HOH      O 1161   3.314   2.067   1.225
  325HOH     H1 1162   3.286   2.158   1.237
  325HOH     H2 1163   3.302   2.050   1.132
  326HOH      O 1164   0.261   4.005   0.751
  326HOH     H1 1165   0.175   3.964   0.741
  326HOH     H2 1166   0.248   4.095   0.723
  327HOH      O 1167   3.206   0.993   3.908
  327HOH     H1 1168   3.269   0.945   3.963
  327HOH     H2 1169   3.257   1.018   3.831
  328HOH      O 1170   0.698   1.021   0.392
  328HOH     H1 1171   0.753   0.962   0.445
  328HOH     H2 1172   0.635   1.057   0.454
  329HOH      O 1173   2.421   3.860   2.551
  329HOH     H1 1174   2.413   3.811   2.632
  329HOH     H2 1175   2.343   3.915   2.548
  330HOH      O 1176   1.027   0.812   0.713
  330HOH     H1 1177   1.026   0.842   0.804
  330HOH     H2 1178   1.010   0.718   0.718
  331HOH      O 1179   3.389   2.304   1.940
  331HOH     H1 1180   3.317   2.327   1.881
  331HOH     H2 1181   3.346   2.283   2.023
  332HOH      O 1182   2.974   1.894   1.978
  332HOH     H1 1183   3.063   1.928   1.987
  332HOH     H2 1184   2.961   1.885   1.883
  333HOH      O 1185   3.460   1.980   2.075
  333HOH     H1 1186   3.435   2.037   2.148
  333HOH     H2 1187   3.525   1.920   2.112
  334HOH      O 1188   0.326   2.602   0.614
  334HOH     H1 1189   0.372   2.571   0.536
  334HOH     H2 1190   0.324   2.697   0.605
  335HOH      O 1191   0.109   1.700   2.854
  335HOH     H1 1192   0.044   1.697   2.924
  335HOH     H2 1193   0.076   1.766   2.793
  336HOH      O 1194   1.174   2.809   0.166
  336HOH     H1 1195   1.179   2.743   0.236
  336HOH     H2 1196   1.161   2.757   0.086
  337HOH      O 1197   1.793   1.797   1.704
  337HOH     H1 1198   1.752   1.883   1.699
  337HOH     H2 1199   1.885   1.813   1.685
  338HOH      O 1200   0.133   4.035   3.495
  338HOH     H1 1201   0.097   3.994   3.416
  338HOH     H2 1202   0.097   3.984   3.567
  339HOH      O 1203   1.796   2.823   0.410
  339HOH     H1 1204   1.749   2.893   0.455
  339HOH     H2 1205   1.857   2.790   0.476
  340HOH      O 1206   1.100   1.919   0.406
  340HOH     H1 1207   1.187   1.926   0.443
  340HOH     H2 1208   1.103   1.841   0.350
  341HOH      O 1209   1.705   1.875   2.402
  341HOH     H1 1210   1.786   1.905   2.362
  341HOH     H2 1211   1.649   1.851   2.327
  342HOH      O 1212   2.414   3.779   0.050
  342HOH     H1 1213   2.373   3.787  -0.036
  342HOH     H2 1214   2.502   3.746   0.031
  343HOH      O 1215   2.625   1.061   2.096
  343HOH     H1 1216   2.703   1.058   2.041
  343HOH     H2 1217   2.641   0.997   2.165
  344HOH      O 1218   1.711   2.538   3.065
  344HOH     H1 1219   1.751   2.625   3.055
  344HOH     H2 1220   1.661   2.526   2.985
  345HOH      O 1221   1.330   3.271   0.669
  345HOH     H1 1222   1.400   3.334   0.684
  345HOH     H2 1223   1.374   3.185   0.670
  346HOH      O 1224   1.009   0.932   0.275
  346HOH     H1 1225   1.034   0.854   0.324
  346HOH     H2 1226   0.978   0.994   0.341
  347HOH      O 1227   1.128   3.406   0.224
  347HOH     H1 1228   1.135   3.356   0.305
  347HOH     H2 1229   1.212   3.451   0.217
  348HOH      O 1230   3.236   1.223   2.860
  348HOH     H1 1231   3.174   1.296   2.869
  348HOH     H2 1232   3.189   1.147   2.892
  349HOH      O 1233   3.890   2.445   3.880
  349HOH     H1 1234   3.831   2.406   3.815
  349HOH     H2 1235   3.859   2.412   3.964
  350HOH      O 1236   2.438   0.785   1.919
  350HOH     H1 1237   2.479   0.730   1.985
  350HOH     H2 1238   2.492   0.773   1.841
  351HOH      O 1239   0.319   3.796   3.017
  351HOH     H1 1240   0.265   3.875   3.026
  351HOH     H2 1241   0.260   3.724   3.041
  352HOH      O 1242   3.920   3.865   2.696
  352HOH     H1 1243   3.955   3.777   2.709
  352HOH     H2 1244   3.846   3.870   2.757
  353HOH      O 1245   3.574   1.116   1.935
  353HOH     H1 1246   3.580   1.024   1.910
  353HOH     H2 1247   3.575   1.163   1.851
  354HOH      O 1248   2.231   1.947   2.820
  354HOH     H1 1249   2.254   1.863   2.780
  354HOH     H2 1250   2.249   2.012   2.752
  355HOH      O 1251   1.019   2.801   1.479
  355HOH     H1 1252   1.065   2.836   1.402
  355HOH     H2 1253   1.049   2.711   1.486
  356HOH      O 1254   2.186   1.668   3.686
  356HOH     H1 1255   2.215   1.604   3.750
  356HOH     H2 1256   2.247   1.742   3.696
  357HOH      O 1257   3.775   0.693   3.071
  357HOH     H1 1258   3.855   0.643   3.087
  357HOH     H2 1259   3.804   0.770   3.022
  358HOH      O 1260   1.035   3.200   0.042
  358HOH     H1 1261   1.074   3.283   0.071
  358HOH     H2 1262   1.027   3.211  -0.053
  359HOH      O 1263   0.446   0.491   4.036
  359HOH     H1 1264   0.438   0.548   3.959
  359HOH     H2 1265   0.369   0.435   4.032
  360HOH      O 1266   2.743   0.036   0.348
  360HOH     H1 1267   2.710   0.111   0.298
  360HOH     H2 1268   2.830   0.064   0.377
  361HOH      O 1269   0.695   3.200   3.196
  361HOH     H1 1270   0.673   3.231   3.284
  361HOH     H2 1271   0.661   3.267   3.137
  362HOH      O 1272   3.199   2.260   2.622
  362HOH     H1 1273   3.137   2.218   2.563
  362HOH     H2 1274   3.256   2.311   2.565
  363HOH      O 1275   3.221   2.169   1.551
  363HOH     H1 1276   3.139   2.151   1.505
  363HOH     H2 1277   3.234   2.093   1.608
  364HOH      O 1278   2.595   3.861   0.575
  364HOH     H1 1279   2.510   3.880   0.535
  364HOH     H2 1280   2.635   3.947   0.587
  365HOH      O 1281   1.677   2.432   3.336
  365HOH     H1 1282   1.759   2.476   3.360
  365HOH     H2 1283   1.672   2.441   3.241
  366HOH      O 1284   1.603   3.086   0.107
  366HOH     H1 1285   1.540   3.028   0.149
  366HOH     H2 1286   1.592   3.170   0.151
  367HOH      O 1287   0.883   3.858   3.312
  367HOH     H1 1288   0.938   3.920   3.264
  367HOH     H2 1289   0.858   3.904   3.391
  368HOH      O 1290   2.174   1.544   3.147
  368HOH     H1 1291   2.105   1.594   3.191
  368HOH     H2 1292   2.128   1.470   3.108
  369HOH      O 1293   0.834   1.683   3.491
  369HOH     H1 1294   0.920   1.677   3.450
  369HOH     H2 1295   0.772   1.664   3.420
  370HOH      O 1296   2.739   1.576   2.501
  370HOH     H1 1297   2.736   1.665   2.465
  370HOH     H2 1298   2.664   1.572   2.561
  371HOH      O 1299   3.904   0.492   2.222
  371HOH     H1 1300   3.944   0.431   2.160
  371HOH     H2 1301   3.817   0.456   2.240
  372HOH      O 1302   3.140   0.216   2.378
  372HOH     H1 1303   3.200   0.213   2.453
  372HOH     H2 1304   3.163   0.138   2.327
  373HOH      O 1305   1.596   0.438   3.338
  373HOH     H1 1306   1.654   0.399   3.404
  373HOH     H2 1307   1.528   0.372   3.324
  374HOH      O 1308   0.933   3.349   1.957
  374HOH     H1 1309   0.971   3.263   1.937
  374HOH     H2 1310   0.944   3.358   2.052
  375HOH      O 1311   3.134   3.266   3.992
  375HOH     H1 1312   3.040   3.285   3.999
  375HOH     H2 1313   3.172   3.306   4.070
  376HOH      O 1314   1.943   2.369   0.411
  376HOH     H1 1315   2.027   2.396   0.445
  376HOH     H2 1316   1.920   2.437   0.347
  377HOH      O 1317   2.958   2.893   3.853
  377HOH     H1 1318   3.036   2.937   3.887
  377HOH     H2 1319   2.899   2.965   3.829
  378HOH      O 1320   3.172   3.472   0.596
  378HOH     H1 1321   3.105   3.450   0.661
  378HOH     H2 1322   3.166   3.402   0.531
  379HOH      O 1323   2.319   0.880   0.885
  379HOH     H1 1324   2.247   0.936   0.914
  379HOH     H2 1325   2.395   0.910   0.936
  380HOH      O 1326   0.995   3.183   2.213
  380HOH     H1 1327   1.001   3.275   2.242
  380HOH     H2 1328   0.919   3.149   2.261
  381HOH      O 1329   2.144   3.388   1.128
  381HOH     H1 1330   2.103   3.356   1.048
  381HOH     H2 1331   2.086   3.457   1.159
  382HOH      O 1332   0.242   4.005   0.415
  382HOH     H1 1333   0.327   4.047   0.403
  382HOH     H2 1334   0.193   4.027   0.336
  383HOH      O 1335   3.627   0.702   2.337
  383HOH     H1 1336   3.600   0.652   2.415
  383HOH     H2 1337   3.672   0.778   2.373
  384HOH      O 1338   3.689   2.665   3.290
  384HOH     H1 1339   3.628   2.600   3.253
  384HOH     H2 1340   3.746   2.688   3.217
  385HOH      O 1341   2.615   1.705   1.005
  385HOH     H1 1342   2.552   1.667   1.066
  385HOH     H2 1343   2.562   1.757   0.944
  386HOH      O 1344   1.015   1.306   0.540
  386HOH     H1 1345   1.075   1.347   0.602
  386HOH     H2 1346   0.966   1.243   0.592
  387HOH      O 1347   1.074   2.247   3.426
  387HOH     H1 1348   1.135   2.318   3.446
  387HOH     H2 1349   1.036   2.224   3.511
  388HOH      O 1350   0.801   3.267   1.496
  388HOH     H1 1351   0.789   3.215   1.575
  388HOH     H2 1352   0.858   3.213   1.441
  389HOH      O 1353   3.232   0.347   1.268
  389HOH     H1 1354   3.184   0.399   1.204
  389HOH     H2 1355   3.165   0.317   1.330
  390HOH      O 1356   2.251   1.746   1.891
  390HOH     H1 1357   2.225   1.777   1.978
  390HOH     H2 1358   2.341   1.714   1.902
  391HOH      O 1359   3.621   3.797   2.908
  391HOH     H1 1360   3.580   3.813   2.823
  391HOH     H2 1361   3.639   3.703   2.908
  392HOH      O 1362   3.522   0.540   1.870
  392HOH     H1 1363   3.589   0.478   1.841
  392HOH     H2 1364   3.558   0.580   1.949
  393HOH      O 1365   1.506   1.226   0.747
  393HOH     H1 1366   1.590   1.180   0.746
  393HOH     H2 1367   1.493   1.249   0.839
  394HOH      O 1368   3.462   2.981   2.537
  394HOH     H1 1369   3.506   3.059   2.569
  394HOH     H2 1370   3.374   3.011   2.513
  395HOH      O 1371   0.811   2.246   3.596
  395HOH     H1 1372   0.838   2.170   3.649
  395HOH     H2 1373   0.827   2.321   3.652
  396HOH      O 1374   2.139   0.865   3.947
  396HOH     H1 1375   2.231   0.862   3.976
  396HOH     H2 1376   2.089   0.839   4.023
  397HOH      O 1377   0.679   0.289   2.532
  397HOH     H1 1378   0.616   0.274   2.602
  397HOH     H2 1379   0.749   0.226   2.550
  398HOH      O 1380   3.866   1.937   1.610
  398HOH     H1 1381   3.917   1.999   1.558
  398HOH     H2 1382   3.802   1.901   1.548
  399HOH      O 1383   2.999   2.663   2.495
  399HOH     H1 1384   2.981   2.573   2.469
  399HOH     H2 1385   3.015   2.709   2.412
  400HOH      O 1386   0.447   3.208   1.597
  400HOH     H1 1387   0.404   3.126   1.622
  400HOH     H2 1388   0.524   3.213   1.655
  401HOH      O 1389   0.801   2.486   4.020
  401HOH     H1 1390   0.847   2.506   3.938
  401HOH     H2 1391   0.831   2.553   4.081
  402HOH      O 1392   3.498   1.261   1.699
  402HOH     H1 1393   3.466   1.258   1.608
  402HOH     H2 1394   3.540   1.347   1.706
  403HOH      O 1395   3.777   3.430   2.140
  403HOH     H1 1396   3.835   3.428   2.064
  403HOH     H2 1397   3.830   3.394   2.211
  404HOH      O 1398   0.790   1.665   2.670
  404HOH     H1 1399   0.728   1.670   2.597
  404HOH     H2 1400   0.874   1.642   2.630
  405HOH      O 1401   3.339   1.153   3.376
  405HOH     H1 1402   3.423   1.114   3.401
  405HOH     H2 1403   3.362   1.229   3.323
  406HOH      O 1404   2.179   0.492   1.159
  406HOH     H1 1405   2.250   0.537   1.113
  406HOH     H2 1406   2.210   0.487   1.250
  407HOH      O 1407   1.185   3.377   3.533
  407HOH     H1 1408   1.116   3.430   3.572
  407HOH     H2 1409   1.158   3.287   3.551
  408HOH      O 1410   1.107   0.733   1.115
  408HOH     H1 1411   1.199   0.714   1.130
  408HOH     H2 1412   1.060   0.667   1.167
  409HOH      O 1413   1.309   0.491   2.461
  409HOH     H1 1414   1.326   0.511   2.553
  409HOH     H2 1415   1.332   0.398   2.452
  410HOH      O 1416  -0.010   2.913   2.755
  410HOH     H1 1417   0.017   2.823   2.771
  410HOH     H2 1418   0.033   2.937   2.673
  411HOH      O 1419   1.737   3.389   3.189
  411HOH     H1 1420   1.672   3.345   3.133
  411HOH     H2 1421   1.687   3.457   3.234
  412HOH      O 1422   2.862   0.255   3.018
  412HOH     H1 1423   2.833   0.314   2.949
  412HOH     H2 1424   2.806   0.275   3.092
  413HOH      O 1425   2.425   0.130   1.616
  413HOH     H1 1426   2.483   0.055   1.605
  413HOH     H2 1427   2.443   0.162   1.704
  414HOH      O 1428   0.585   3.189   0.863
  414HOH     H1 1429   0.623   3.106   0.893
  414HOH     H2 1430   0.502   3.164   0.823
  415HOH      O 1431   3.117   3.867   2.516
  415HOH     H1 1432   3.180   3.814   2.565
  415HOH     H2 1433   3.074   3.921   2.582
  416HOH      O 1434   3.146   2.709   1.485
  416HOH     H1 1435   3.134   2.619   1.513
  416HOH     H2 1436   3.212   2.704   1.416
  417HOH      O 1437   1.035   1.558   0.884
  417HOH     H1 1438   1.098   1.501   0.839
  417HOH     H2 1439   1.085   1.638   0.900
  418HOH      O 1440   0.917   1.902   3.173
  418HOH     H1 1441   0.942   1.821   3.128
  418HOH     H2 1442   0.860   1.873   3.244
  419HOH      O 1443   2.338   1.546   2.914
  419HOH     H1 1444   2.365   1.628   2.873
  419HOH     H2 1445   2.265   1.571   2.971
  420HOH      O 1446   2.391   3.287   1.220
  420HOH     H1 1447   2.303   3.318   1.198
  420HOH     H2 1448   2.444   3.314   1.146
  421HOH      O 1449   3.193   3.792   0.942
  421HOH     H1 1450   3.156   3.815   0.857
  421HOH     H2 1451   3.253   3.719   0.922
  422HOH      O 1452   1.045   1.008   1.013
  422HOH     H1 1453   1.016   1.053   1.093
  422HOH     H2 1454   1.072   0.922   1.043
  423HOH      O 1455   2.361   0.339   2.116
  423HOH     H1 1456   2.356   0.328   2.021
  423HOH     H2 1457   2.311   0.419   2.134
  424HOH      O 1458   3.666   3.896   3.773
  424HOH     H1 1459   3.582   3.909   3.727
  424HOH     H2 1460   3.662   3.806   3.804
  425HOH      O 1461   2.589   3.595   2.580
  425HOH     H1 1462   2.669   3.570   2.533
  425HOH     H2 1463   2.621   3.635   2.661
  426HOH      O 1464   1.594   2.516   1.012
  426HOH     H1 1465   1.641   2.574   0.953
  426HOH     H2 1466   1.544   2.458   0.955
  427HOH      O 1467   2.196   1.464   1.332
  427HOH     H1 1468   2.273   1.428   1.377
  427HOH     H2 1469   2.173   1.542   1.383
  428HOH      O 1470   3.607   0.853   1.912
  428HOH     H1 1471   3.697   0.845   1.943
  428HOH     H2 1472   3.615   0.862   1.817
  429HOH      O 1473   0.539   2.175   1.812
  429HOH     H1 1474   0.551   2.160   1.718
  429HOH     H2 1475   0.628   2.185   1.846
  430HOH      O 1476   2.802   0.150   3.573
  430HOH     H1 1477   2.803   0.237   3.532
  430HOH     H2 1478   2.892   0.118   3.563
  431HOH      O 1479   0.567   1.545   2.208
  431HOH     H1 1480   0.482   1.507   2.231
  431HOH     H2 1481   0.545   1.618   2.150
  432HOH      O 1482   2.444   1.778   2.789
  432HOH     H1 1483   2.513   1.713   2.783
  432HOH     H2 1484   2.489   1.862   2.795
  433HOH      O 1485   3.419   1.346   0.609
  433HOH     H1 1486   3.415   1.278   0.675
  433HOH     H2 1487   3.495   1.399   0.633
  434HOH      O 1488   2.833   0.547   1.419
  434HOH     H1 1489   2.780   0.470   1.440
  434HOH     H2 1490   2.917   0.530   1.460
  435HOH      O 1491   4.010   3.926   0.714
  435HOH     H1 1492   3.998   3.848   0.660
  435HOH     H2 1493   3.964   3.995   0.667
  436HOH      O 1494   2.050   1.030   1.475
  436HOH     H1 1495   2.028   0.946   1.517
  436HOH     H2 1496   2.078   1.006   1.387
  437HOH      O 1497   2.798   0.179   1.199
  437HOH     H1 1498   2.767   0.210   1.114
  437HOH     H2 1499   2.869   0.239   1.222
  438HOH      O 1500   1.046   0.706   3.108
  438HOH     H1 1501   1.079   0.636   3.164
  438HOH     H2 1502   1.124   0.741   3.065
  439HOH      O 1503   3.864   3.868   0.292
  439HOH     H1 1504   3.775   3.852   0.261
  439HOH     H2 1505   3.864   3.959   0.320
  440HOH      O 1506   1.129   1.759   2.484
  440HOH     H1 1507   1.185   1.815   2.537
  440HOH     H2 1508   1.061   1.729   2.544
  441HOH      O 1509   3.680   2.032   2.711
  441HOH     H1 1510   3.608   2.031   2.774
  441HOH     H2 1511   3.759   2.044   2.765
  442HOH      O 1512   0.288   3.593   0.315
  442HOH     H1 1513   0.279   3.633   0.228
  442HOH     H2 1514   0.306   3.501   0.296
  443HOH      O 1515   1.920   1.844   3.692
  443HOH     H1 1516   1.946   1.878   3.606
  443HOH     H2 1517   1.984   1.775   3.711
  444HOH      O 1518   3.921   1.150   3.893
  444HOH     H1 1519   3.924   1.086   3.963
  444HOH     H2 1520   3.886   1.229   3.934
  445HOH      O 1521   1.276   2.862   2.606
  445HOH     H1 1522   1.321   2.861   2.690
  445HOH     H2 1523   1.322   2.797   2.553
  446HOH      O 1524   1.073   0.566   1.501
  446HOH     H1 1525   1.073   0.498   1.568
  446HOH     H2 1526   1.151   0.618   1.519
  447HOH      O 1527   1.755   0.023   0.181
  447HOH     H1 1528   1.793   0.080   0.114
  447HOH     H2 1529   1.831  -0.007   0.232
  448HOH      O 1530   1.053   2.721   3.946
  448HOH     H1 1531   0.985   2.767   3.996
  448HOH     H2 1532   1.022   2.723   3.856
  449HOH      O 1533   3.160   1.910   2.403
  449HOH     H1 1534   3.182   1.833   2.351
  449HOH     H2 1535   3.106   1.964   2.344
  450HOH      O 1536   1.841   1.747   3.072
  450HOH     H1 1537   1.882   1.737   2.986
  450HOH     H2 1538   1.778   1.818   3.061
  451HOH      O 1539   1.011  -0.000   3.572
  451HOH     H1 1540   0.923   0.032   3.550
  451HOH     H2 1541   1.070   0.051   3.516
  452HOH      O 1542   3.001   0.042   0.437
  452HOH     H1 1543   2.987  -0.003   0.520
  452HOH     H2 1544   3.089   0.079   0.444
  453HOH      O 1545   1.462   0.642   3.227
  453HOH     H1 1546   1.491   0.626   3.137
  453HOH     H2 1547   1.509   0.578   3.280
  454HOH      O 1548   3.313   0.326   1.553
  454HOH     H1 1549   3.251   0.300   1.485
  454HOH     H2 1550   3.398   0.300   1.519
  455HOH      O 1551   3.804   2.160   1.810
  455HOH     H1 1552   3.710   2.155   1.798
  455HOH     H2 1553   3.838   2.079   1.770
  456HOH      O 1554   3.409   3.703   3.602
  456HOH     H1 1555   3.431   3.679   3.692
  456HOH     H2 1556   3.410   3.799   3.602
  457HOH      O 1557   1.259   0.150   0.442
  457HOH     H1 1558   1.280   0.223   0.500
  457HOH     H2 1559   1.341   0.132   0.396
  458HOH      O 1560   1.448   3.310   0.172
  458HOH     H1 1561   1.405   3.267   0.098
  458HOH     H2 1562   1.388   3.296   0.245
  459HOH      O 1563   1.445   1.958   3.123
  459HOH     H1 1564   1.531   1.948   3.081
  459HOH     H2 1565   1.435   1.879   3.175
  460HOH      O 1566   0.230   0.272   0.054
  460HOH     H1 1567   0.149   0.323   0.057
  460HOH     H2 1568   0.202   0.184   0.029
  461HOH      O 1569   2.152   0.728   3.097
  461HOH     H1 1570   2.245   0.751   3.103
  461HOH     H2 1571   2.108   0.812   3.085
  462HOH      O 1572   2.441   0.975   0.400
  462HOH     H1 1573   2.487   0.989   0.483
  462HOH     H2 1574   2.372   1.041   0.399
  463HOH      O 1575   0.433   0.954   1.020
  463HOH     H1 1576   0.485   1.014   1.073
  463HOH     H2 1577   0.484   0.942   0.940
  464HOH      O 1578   1.590   0.514   3.710
  464HOH     H1 1579   1.559   0.429   3.742
  464HOH     H2 1580   1.683   0.501   3.692
  465HOH      O 1581   2.990   1.103   0.310
  465HOH     H1 1582   2.974   1.076   0.220
  465HOH     H2 1583   2.904   1.098   0.352
  466HOH      O 1584   2.888   1.598   1.556
  466HOH     H1 1585   2.841   1.635   1.630
  466HOH     H2 1586   2.863   1.505   1.555
  467HOH      O 1587   3.082   1.379   3.366
  467HOH     H1 1588   2.999   1.427   3.365
  467HOH     H2 1589   3.063   1.300   3.415
  468HOH      O 1590   2.275   2.517   0.757
  468HOH     H1 1591   2.224   2.566   0.821
  468HOH     H2 1592   2.357   2.495   0.803
  469HOH      O 1593   3.011   2.025   0.456
  469HOH     H1 1594   2.961   2.063   0.527
  469HOH     H2 1595   3.066   1.959   0.498
  470HOH      O 1596   2.821   2.901   0.659
  470HOH     H1 1597   2.727   2.906   0.674
  470HOH     H2 1598   2.860   2.952   0.730
  471HOH      O 1599   0.228   3.122   0.109
  471HOH     H1 1600   0.165   3.145   0.041
  471HOH     H2 1601   0.312   3.114   0.062
  472HOH      O 1602   0.190   2.896   0.782
  472HOH     H1 1603   0.094   2.901   0.782
  472HOH     H2 1604   0.213   2.862   0.868
  473HOH      O 1605   2.696   2.720   3.990
  473HOH     H1 1606   2.657   2.700   4.075
  473HOH     H2 1607   2.777   2.767   4.010
  474HOH      O 1608   4.007   1.803   0.579
  474HOH     H1 1609   3.979   1.839   0.663
  474HOH     H2 1610   3.927   1.796   0.528
  475HOH      O 1611   1.448   2.251   2.372
  475HOH     H1 1612   1.512   2.301   2.322
  475HOH     H2 1613   1.465   2.160   2.349
  476HOH      O 1614   2.649   2.678   0.237
  476HOH     H1 1615   2.606   2.671   0.322
  476HOH     H2 1616   2.732   2.722   0.256
  477HOH      O 1617   0.763   2.792   3.316
  477HOH     H1 1618   0.785   2.700   3.327
  477HOH     H2 1619   0.829   2.826   3.255
  478HOH      O 1620   1.818   0.105   3.779
  478HOH     H1 1621   1.866   0.034   3.822
  478HOH     H2 1622   1.786   0.159   3.852
  479HOH      O 1623   0.302   0.896   1.418
  479HOH     H1 1624   0.244   0.826   1.448
  479HOH     H2 1625   0.387   0.853   1.407
  480HOH      O 1626   0.740   2.941   2.788
  480HOH     H1 1627   0.828   2.905   2.799
  480HOH     H2 1628   0.682   2.865   2.790
  481HOH      O 1629   0.115   2.523   1.458
  481HOH     H1 1630   0.173   2.485   1.392
  481HOH     H2 1631   0.173   2.543   1.531
  482HOH      O 1632   0.878   0.045   2.928
  482HOH     H1 1633   0.783   0.040   2.940
  482HOH     H2 1634   0.896   0.138   2.916
  483HOH      O 1635   1.830   0.310   3.446
  483HOH     H1 1636   1.922   0.334   3.458
  483HOH     H2 1637   1.825   0.219   3.474
  484HOH      O 1638   1.704   1.316   3.148
  484HOH     H1 1639   1.686   1.223   3.134
  484HOH     H2 1640   1.707   1.325   3.244
  485HOH      O 1641   2.577   3.194   0.431
  485HOH     H1 1642   2.537   3.110   0.451
  485HOH     H2 1643   2.506   3.257   0.437
  486HOH      O 1644   3.102   0.417   2.722
  486HOH     H1 1645   3.012   0.435   2.694
  486HOH     H2 1646   3.099   0.421   2.817
  487HOH      O 1647   1.044   2.538   2.883
  487HOH     H1 1648   1.124   2.511   2.839
  487HOH     H2 1649   0.991   2.458   2.887
  488HOH      O 1650   0.686   0.630   3.575
  488HOH     H1 1651   0.722   0.621   3.663
  488HOH     H2 1652   0.743   0.575   3.521
  489HOH      O 1653   2.911   3.324   3.380
  489HOH     H1 1654   2.916   3.248   3.323
  489HOH     H2 1655   2.846   3.381   3.339
  490HOH      O 1656   0.110   0.469   1.659
  490HOH     H1 1657   0.112   0.469   1.755
  490HOH     H2 1658   0.131   0.379   1.634
  491HOH      O 1659   2.707   1.803   0.089
  491HOH     H1 1660   2.667   1.732   0.039
  491HOH     H2 1661   2.760   1.850   0.025
  492HOH      O 1662   2.875   3.525   3.909
  492HOH     H1 1663   2.911   3.603   3.951
  492HOH     H2 1664   2.923   3.518   3.826
  493HOH      O 1665   1.572   0.767   1.780
  493HOH     H1 1666   1.652   0.771   1.832
  493HOH     H2 1667   1.580   0.839   1.717
  494HOH      O 1668   0.434   0.329   3.708
  494HOH     H1 1669   0.480   0.356   3.629
  494HOH     H2 1670   0.402   0.411   3.747
  495HOH      O 1671   3.304   0.592   1.412
  495HOH     H1 1672   3.361   0.605   1.488
  495HOH     H2 1673   3.265   0.506   1.427
  496HOH      O 1674   0.628   3.866   2.875
  496HOH     H1 1675   0.587   3.929   2.933
  496HOH     H2 1676   0.681   3.811   2.932
  497HOH      O 1677   0.204   3.749   0.995
  497HOH     H1 1678   0.196   3.720   1.086
  497HOH     H2 1679   0.251   3.832   1.001
  498HOH      O 1680   0.831   3.466   2.789
  498HOH     H1 1681   0.778   3.485   2.867
  498HOH     H2 1682   0.835   3.371   2.785
  499HOH      O 1683   2.048   1.945   0.953
  499HOH     H1 1684   1.987   2.019   0.952
  499HOH     H2 1685   2.075   1.935   0.862
  500HOH      O 1686   0.960   3.585   2.157
  500HOH     H1 1687   0.962   3.676   2.126
  500HOH     H2 1688   1.030   3.542   2.108
  501HOH      O 1689   1.449   1.264   0.073
  501HOH     H1 1690   1.457   1.354   0.103
  501HOH     H2 1691   1.395   1.221   0.140
  502HOH      O 1692   0.911   0.306   2.892
  502HOH     H1 1693   0.851   0.379   2.878
  502HOH     H2 1694   0.976   0.314   2.823
  503HOH      O 1695   3.285   2.152   0.781
  503HOH     H1 1696   3.296   2.164   0.686
  503HOH     H2 1697   3.374   2.153   0.816
  504HOH      O 1698   3.378   3.896   2.017
  504HOH     H1 1699   3.393   3.928   1.928
  504HOH     H2 1700   3.463   3.865   2.046
  505HOH      O 1701   0.862   0.500   0.120
  505HOH     H1 1702   0.841   0.593   0.116
  505HOH     H2 1703   0.909   0.489   0.202
  506HOH      O 1704   0.273   0.905   2.111
  506HOH     H1 1705   0.288   0.815   2.083
  506HOH     H2 1706   0.220   0.897   2.190
  507HOH      O 1707   2.864   3.829   3.637
  507HOH     H1 1708   2.879   3.784   3.554
  507HOH     H2 1709   2.920   3.907   3.633
  508HOH      O 1710   3.771   2.333   0.075
  508HOH     H1 1711   3.828   2.257   0.064
  508HOH     H2 1712   3.682   2.296   0.076
  509HOH      O 1713   0.485   0.718   1.904
  509HOH     H1 1714   0.500   0.704   1.811
  509HOH     H2 1715   0.458   0.809   1.911
  510HOH      O 1716   1.829   3.065   3.719
  510HOH     H1 1717   1.759   3.115   3.761
  510HOH     H2 1718   1.813   2.974   3.744
  511HOH      O 1719   3.158   1.204   0.802
  511HOH     H1 1720   3.231   1.248   0.846
  511HOH     H2 1721   3.152   1.247   0.717
  512HOH      O 1722   0.658   1.836   3.663
  512HOH     H1 1723   0.630   1.913   3.614
  512HOH     H2 1724   0.725   1.795   3.608
  513HOH      O 1725   0.156   3.880   1.807
  513HOH     H1 1726   0.202   3.962   1.792
  513HOH     H2 1727   0.194   3.819   1.743
  514HOH      O 1728   3.649   2.669   1.298
  514HOH     H1 1729   3.675   2.616   1.222
  514HOH     H2 1730   3.696   2.751   1.287
  515HOH      O 1731   3.282   1.699   2.035
  515HOH     H1 1732   3.202   1.704   2.087
  515HOH     H2 1733   3.308   1.790   2.023
  516HOH      O 1734   1.153   1.632   2.245
  516HOH     H1 1735   1.135   1.689   2.320
  516HOH     H2 1736   1.186   1.691   2.177
  517HOH      O 1737   1.359   3.732   1.241
  517HOH     H1 1738   1.303   3.808   1.260
  517HOH     H2 1739   1.378   3.739   1.147
  518HOH      O 1740   1.381   0.481   0.048
  518HOH     H1 1741   1.435   0.444  -0.022
  518HOH     H2 1742   1.304   0.516   0.004
  519HOH      O 1743   1.593   2.218   0.271
  519HOH     H1 1744   1.590   2.313   0.270
  519HOH     H2 1745   1.676   2.197   0.228
  520HOH      O 1746   3.799   2.418   1.633
  520HOH     H1 1747   3.803   2.324   1.649
  520HOH     H2 1748   3.844   2.430   1.550
  521HOH      O 1749   0.874   1.851   1.158
  521HOH     H1 1750   0.893   1.867   1.066
  521HOH     H2 1751   0.955   1.877   1.203
  522HOH      O 1752   3.795   2.117   1.247
  522HOH     H1 1753   3.824   2.042   1.299
  522HOH     H2 1754   3.699   2.110   1.247
  523HOH      O 1755   2.643   0.740   1.675
  523HOH     H1 1756   2.678   0.829   1.672
  523HOH     H2 1757   2.718   0.685   1.698
  524HOH      O 1758   1.779   2.792   3.702
  524HOH     H1 1759   1.733   2.766   3.782
  524HOH     H2 1760   1.764   2.720   3.641
  525HOH      O 1761   0.559   3.392   1.435
  525HOH     H1 1762   0.654   3.381   1.449
  525HOH     H2 1763   0.520   3.321   1.485
  526HOH      O 1764   1.182   0.168   2.379
  526HOH     H1 1765   1.089   0.189   2.370
  526HOH     H2 1766   1.214   0.161   2.289
  527HOH      O 1767   1.591   2.815   0.660
  527HOH     H1 1768   1.520   2.875   0.684
  527HOH     H2 1769   1.560   2.772   0.581
  528HOH      O 1770   2.650   2.095   1.451
  528HOH     H1 1771   2.569   2.142   1.474
  528HOH     H2 1772   2.672   2.127   1.364
  529HOH      O 1773   1.699   3.273   0.906
  529HOH     H1 1774   1.733   3.186   0.886
  529HOH     H2 1775   1.774   3.322   0.938
  530HOH      O 1776   1.653   3.587   0.754
  530HOH     H1 1777   1.687   3.617   0.839
  530HOH     H2 1778   1.625   3.668   0.711
  531HOH      O 1779   3.592   2.531   1.762
  531HOH     H1 1780   3.609   2.515   1.855
  531HOH     H2 1781   3.674   2.508   1.718
  532HOH      O 1782   0.475   3.591   2.151
  532HOH     H1 1783   0.456   3.581   2.244
  532HOH     H2 1784   0.535   3.519   2.130
  533HOH      O 1785   3.846   0.240   2.403
  533HOH     H1 1786   3.884   0.156   2.428
  533HOH     H2 1787   3.903   0.305   2.446
  534HOH      O 1788   2.277   0.542   1.412
  534HOH     H1 1789   2.197   0.551   1.464
  534HOH     H2 1790   2.346   0.528   1.477
  535HOH      O 1791   2.023   0.366   0.196
  535HOH     H1 1792   1.990   0.391   0.282
  535HOH     H2 1793   2.089   0.432   0.175
  536HOH      O 1794   2.690   1.786   2.102
  536HOH     H1 1795   2.683   1.692   2.115
  536HOH     H2 1796   2.699   1.797   2.008
  537HOH      O 1797   2.823   1.175   2.942
  537HOH     H1 1798   2.905   1.215   2.913
  537HOH     H2 1799   2.764   1.184   2.867
  538HOH      O 1800   1.350   0.267   3.270
  538HOH     H1 1801   1.394   0.182   3.275
  538HOH     H2 1802   1.279   0.253   3.207
  539HOH      O 1803   0.309   0.435   3.280
  539HOH     H1 1804   0.249   0.371   3.242
  539HOH     H2 1805   0.354   0.474   3.205
  540HOH      O 1806   2.260   1.783   2.486
  540HOH     H1 1807   2.238   1.796   2.393
  540HOH     H2 1808   2.180   1.746   2.524
  541HOH      O 1809   0.591   1.761   2.025
  541HOH     H1 1810   0.684   1.767   2.003
  541HOH     H2 1811   0.548   1.748   1.941
  542HOH      O 1812   1.824   1.476   1.370
  542HOH     H1 1813   1.816   1.566   1.337
  542HOH     H2 1814   1.828   1.422   1.291
  543HOH      O 1815   2.329   1.468   3.793
  543HOH     H1 1816   2.350   1.400   3.729
  543HOH     H2 1817   2.279   1.423   3.861
  544HOH      O 1818   2.731   1.181   2.668
  544HOH     H1 1819   2.639   1.197   2.690
  544HOH     H2 1820   2.751   1.246   2.601
  545HOH      O 1821   2.179   2.432   2.769
  545HOH     H1 1822   2.121   2.506   2.753
  545HOH     H2 1823   2.128   2.355   2.742
  546HOH      O 1824   3.961   2.145   3.581
  546HOH     H1 1825   3.990   2.234   3.565
  546HOH     H2 1826   4.042   2.095   3.589
  547HOH      O 1827   1.585   3.831   3.048
  547HOH     H1 1828   1.535   3.750   3.034
  547HOH     H2 1829   1.584   3.843   3.143
  548HOH      O 1830   1.726   3.416   3.733
  548HOH     H1 1831   1.749   3.402   3.641
  548HOH     H2 1832   1.643   3.370   3.744
  549HOH      O 1833   0.444   0.159   1.971
  549HOH     H1 1834   0.381   0.212   2.021
  549HOH     H2 1835   0.454   0.079   2.023
  550HOH      O 1836   3.956   3.063   1.798
  550HOH     H1 1837   3.979   3.027   1.712
  550HOH     H2 1838   3.872   3.022   1.819
  551HOH      O 1839   3.836   1.649   2.486
  551HOH     H1 1840   3.836   1.562   2.445
  551HOH     H2 1841   3.744   1.677   2.481
  552HOH      O 1842   1.649   1.983   2.635
  552HOH     H1 1843   1.649   1.944   2.547
  552HOH     H2 1844   1.660   2.076   2.620
  553HOH      O 1845   1.387   2.647   1.169
  553HOH     H1 1846   1.387   2.725   1.114
  553HOH     H2 1847   1.418   2.577   1.112
  554HOH      O 1848   1.903   2.576   3.442
  554HOH     H1 1849   1.998   2.570   3.445
  554HOH     H2 1850   1.886   2.661   3.402
  555HOH      O 1851   3.217   0.834   1.088
  555HOH     H1 1852   3.162   0.833   1.167
  555HOH     H2 1853   3.232   0.927   1.071
  556HOH      O 1854   2.726   2.415   0.157
  556HOH     H1 1855   2.691   2.382   0.075
  556HOH     H2 1856   2.720   2.510   0.149
  557HOH      O 1857   2.882   2.846   0.200
  557HOH     H1 1858   2.835   2.929   0.196
  557HOH     H2 1859   2.970   2.866   0.167
  558HOH      O 1860   2.677   3.964   2.936
  558HOH     H1 1861   2.650   3.981   2.846
  558HOH     H2 1862   2.596   3.969   2.986
  559HOH      O 1863   0.195   2.331   0.553
  559HOH     H1 1864   0.231   2.272   0.619
  559HOH     H2 1865   0.215   2.419   0.585
  560HOH      O 1866   1.165   0.916   3.500
  560HOH     H1 1867   1.109   0.838   3.499
  560HOH     H2 1868   1.126   0.972   3.566
  561HOH      O 1869   3.352   1.486   0.264
  561HOH     H1 1870   3.358   1.551   0.334
  561HOH     H2 1871   3.351   1.402   0.309
  562HOH      O 1872   0.568   2.076   3.016
  562HOH     H1 1873   0.637   2.125   3.061
  562HOH     H2 1874   0.515   2.142   2.973
  563HOH      O 1875   3.859   2.300   0.415
  563HOH     H1 1876   3.850   2.381   0.366
  563HOH     H2 1877   3.953   2.287   0.423
  564HOH      O 1878   1.682   1.045   3.436
  564HOH     H1 1879   1.709   1.066   3.346
  564HOH     H2 1880   1.636   0.962   3.428
  565HOH      O 1881   0.175   2.944   1.376
  565HOH     H1 1882   0.260   2.911   1.405
  565HOH     H2 1883   0.122   2.946   1.456
  566HOH      O 1884   3.750   0.924   2.425
  566HOH     H1 1885   3.705   0.982   2.365
  566HOH     H2 1886   3.732   0.960   2.512
  567HOH      O 1887   0.258   0.744   2.511
  567HOH     H1 1888   0.276   0.696   2.430
  567HOH     H2 1889   0.167   0.772   2.502
  568HOH      O 1890   2.942   1.985   2.246
  568HOH     H1 1891   2.856   1.963   2.283
  568HOH     H2 1892   2.937   1.954   2.156
  569HOH      O 1893   2.955   1.890   1.703
  569HOH     H1 1894   3.045   1.860   1.691
  569HOH     H2 1895   2.955   1.980   1.670
  570HOH      O 1896   1.869   3.518   2.074
  570HOH     H1 1897   1.918   3.536   1.993
  570HOH     H2 1898   1.869   3.423   2.081
  571HOH      O 1899   1.184   3.177   1.249
  571HOH     H1 1900   1.175   3.162   1.155
  571HOH     H2 1901   1.189   3.273   1.258
  572HOH      O 1902   1.346   0.757   2.098
  572HOH     H1 1903   1.281   0.820   2.069
  572HOH     H2 1904   1.298   0.674   2.105
  573HOH      O 1905   3.551   1.670   1.541
  573HOH     H1 1906   3.530   1.760   1.565
  573HOH     H2 1907   3.483   1.618   1.584
  574HOH      O 1908   1.016  -0.004   0.730
  574HOH     H1 1909   1.093   0.045   0.757
  574HOH     H2 1910   0.959  -0.004   0.807
  575HOH      O 1911   3.910   3.174   1.349
  575HOH     H1 1912   3.988   3.190   1.295
  575HOH     H2 1913   3.855   3.251   1.335
  576HOH      O 1914   1.518   2.362   2.816
  576HOH     H1 1915   1.445   2.408   2.774
  576HOH     H2 1916   1.480   2.323   2.894
  577HOH      O 1917   0.441   3.097   3.981
  577HOH     H1 1918   0.534   3.079   3.993
  577HOH     H2 1919   0.432   3.115   3.887
  578HOH      O 1920   3.302   1.642   0.666
  578HOH     H1 1921   3.331   1.551   0.657
  578HOH     H2 1922   3.367   1.681   0.725
  579HOH      O 1923   0.432   1.921   2.170
  579HOH     H1 1924   0.463   1.906   2.260
  579HOH     H2 1925   0.484   1.862   2.116
  580HOH      O 1926   0.166   3.576   3.910
  580HOH     H1 1927   0.156   3.496   3.961
  580HOH     H2 1928   0.090   3.577   3.851
  581HOH      O 1929   2.102   3.540   2.910
  581HOH     H1 1930   2.183   3.567   2.953
  581HOH     H2 1931   2.051   3.620   2.901
  582HOH      O 1932   2.505   0.860   3.542
  582HOH     H1 1933   2.539   0.788   3.490
  582HOH     H2 1934   2.412   0.864   3.521
  583HOH      O 1935   3.567   3.006   1.558
  583HOH     H1 1936   3.584   2.921   1.599
  583HOH     H2 1937   3.552   3.065   1.632
  584HOH      O 1938   2.789   3.656   0.612
  584HOH     H1 1939   2.798   3.663   0.517
  584HOH     H2 1940   2.703   3.693   0.630
  585HOH      O 1941   1.619   1.055   3.100
  585HOH     H1 1942   1.529   1.021   3.100
  585HOH     H2 1943   1.667   0.996   3.042
  586HOH      O 1944   3.482   0.395   1.001
  586HOH     H1 1945   3.448   0.481   0.974
  586HOH     H2 1946   3.435   0.333   0.945
  587HOH      O 1947   0.968   2.305   3.162
  587HOH     H1 1948   1.004   2.228   3.116
  587HOH     H2 1949   0.997   2.294   3.252
  588HOH      O 1950   0.990   1.954   0.665
  588HOH     H1 1951   1.043   1.952   0.586
  588HOH     H2 1952   0.929   1.881   0.655
  589HOH      O 1953   1.543   3.294   3.023
  589HOH     H1 1954   1.452   3.267   3.020
  589HOH     H2 1955   1.582   3.257   2.944
  590HOH      O 1956   0.283   3.398   1.774
  590HOH     H1 1957   0.323   3.321   1.735
  590HOH     H2 1958   0.209   3.417   1.716
  591HOH      O 1959   0.365   0.721   0.531
  591HOH     H1 1960   0.350   0.698   0.440
  591HOH     H2 1961   0.387   0.814   0.530
  592HOH      O 1962   0.701   3.496   2.330
  592HOH     H1 1963   0.705   3.448   2.247
  592HOH     H2 1964   0.775   3.463   2.380
  593HOH      O 1965   3.625   0.439   0.121
  593HOH     H1 1966   3.704   0.492   0.112
  593HOH     H2 1967   3.610   0.404   0.033
  594HOH      O 1968   0.148   2.735   2.079
  594HOH     H1 1969   0.155   2.720   1.985
  594HOH     H2 1970   0.193   2.818   2.094
  595HOH      O 1971   1.930   3.886   2.571
  595HOH     H1 1972   1.968   3.814   2.521
  595HOH     H2 1973   1.917   3.850   2.658
  596HOH      O 1974   1.171   1.780   0.864
  596HOH     H1 1975   1.103   1.845   0.884
  596HOH     H2 1976   1.184   1.787   0.770
  597HOH      O 1977   1.904   0.552   2.500
  597HOH     H1 1978   1.843   0.556   2.427
  597HOH     H2 1979   1.851   0.526   2.575
  598HOH      O 1980   0.824   2.842   0.016
  598HOH     H1 1981   0.752   2.798   0.060
  598HOH     H2 1982   0.878   2.876   0.087
  599HOH      O 1983   3.930   1.531   2.147
  599HOH     H1 1984   4.017   1.546   2.186
  599HOH     H2 1985   3.917   1.605   2.088
  600HOH      O 1986   3.848   0.989   3.490
  600HOH     H1 1987   3.816   1.071   3.454
  600HOH     H2 1988   3.863   0.933   3.414
  601HOH      O 1989   0.193   2.435   2.091
  601HOH     H1 1990   0.215   2.527   2.109
  601HOH     H2 1991   0.114   2.418   2.142
  602HOH      O 1992   3.059   0.410   0.440
  602HOH     H1 1993   3.144   0.439   0.408
  602HOH     H2 1994   3.071   0.399   0.534
  603HOH      O 1995   0.546   2.589   2.467
  603HOH     H1 1996   0.585   2.544   2.392
  603HOH     H2 1997   0.561   2.530   2.541
  604HOH      O 1998   1.806   0.146   0.521
  604HOH     H1 1999   1.867   0.076   0.498
  604HOH     H2 2000   1.804   0.146   0.617
  605HOH      O 2001   3.127   3.571   1.157
  605HOH     H1 2002   3.157   3.531   1.075
  605HOH     H2 2003   3.130   3.499   1.221
  606HOH      O 2004   1.114   0.597   2.291
  606HOH     H1 2005   1.155   0.555   2.367
  606HOH     H2 2006   1.112   0.529   2.224
  607HOH      O 2007   0.538   0.813   2.909
  607HOH     H1 2008   0.558   0.778   2.822
  607HOH     H2 2009   0.478   0.886   2.892
  608HOH      O 2010   0.492   1.518   0.171
  608HOH     H1 2011   0.530   1.438   0.206
  608HOH     H2 2012   0.483   1.575   0.247
  609HOH      O 2013   0.939   1.956   0.925
  609HOH     H1 2014   0.923   2.035   0.978
  609HOH     H2 2015   0.953   1.990   0.836
  610HOH      O 2016   3.346   2.895   2.036
  610HOH     H1 2017   3.271   2.835   2.041
  610HOH     H2 2018   3.420   2.838   2.011
  611HOH      O 2019   3.190   3.796   1.313
  611HOH     H1 2020   3.145   3.718   1.281
  611HOH     H2 2021   3.119   3.855   1.340
  612HOH      O 2022   0.773   0.954   2.875
  612HOH     H1 2023   0.832   0.891   2.834
  612HOH     H2 2024   0.688   0.911   2.874
  613HOH      O 2025   0.756   3.599   3.767
  613HOH     H1 2026   0.717   3.676   3.726
  613HOH     H2 2027   0.767   3.624   3.859
  614HOH      O 2028   1.949   3.930   0.363
  614HOH     H1 2029   1.900   3.853   0.333
  614HOH     H2 2030   2.026   3.934   0.306
  615HOH      O 2031   2.317   2.037   3.075
  615HOH     H1 2032   2.341   1.962   3.131
  615HOH     H2 2033   2.289   1.996   2.993
  616HOH      O 2034   2.219   1.975   1.186
  616HOH     H1 2035   2.248   2.037   1.119
  616HOH     H2 2036   2.145   1.929   1.146
  617HOH      O 2037   0.837   1.623   1.539
  617HOH     H1 2038   0.767   1.584   1.486
  617HOH     H2 2039   0.858   1.555   1.603
  618HOH      O 2040   3.488   3.860   3.148
  618HOH     H1 2041   3.524   3.853   3.059
  618HOH     H2 2042   3.449   3.774   3.164
  619HOH      O 2043   0.616   2.063   1.550
  619HOH     H1 2044   0.579   1.977   1.567
  619HOH     H2 2045   0.707   2.057   1.581
  620HOH      O 2046   0.078   3.276   1.046
  620HOH     H1 2047   0.138   3.342   1.013
  620HOH     H2 2048   0.129   3.227   1.110
  621HOH      O 2049   0.409   1.924   0.917
  621HOH     H1 2050   0.377   1.849   0.867
  621HOH     H2 2051   0.505   1.918   0.910
  622HOH      O 2052   2.118   3.683   1.568
  622HOH     H1 2053   2.208   3.702   1.544
  622HOH     H2 2054   2.068   3.759   1.536
  623HOH      O 2055   3.074   0.867   2.682
  623HOH     H1 2056   3.087   0.914   2.764
  623HOH     H2 2057   2.982   0.841   2.684
  624HOH      O 2058   0.672   2.334   0.218
  624HOH     H1 2059   0.617   2.388   0.163
  624HOH     H2 2060   0.757   2.378   0.217
  625HOH      O 2061   2.943   0.955   1.382
  625HOH     H1 2062   3.033   0.930   1.404
  625HOH     H2 2063   2.897   0.872   1.371
  626HOH      O 2064   3.134   0.909   0.831
  626HOH     H1 2065   3.117   0.875   0.918
  626HOH     H2 2066   3.145   1.004   0.843
  627HOH      O 2067   2.971   2.033   0.175
  627HOH     H1 2068   2.967   2.122   0.138
  627HOH     H2 2069   2.975   2.046   0.269
  628HOH      O 2070   1.124   3.953   1.484
  628HOH     H1 2071   1.049   3.894   1.487
  628HOH     H2 2072   1.199   3.897   1.463
  629HOH      O 2073   1.896   3.999   2.330
  629HOH     H1 2074   1.900   3.944   2.409
  629HOH     H2 2075   1.856   4.080   2.360
  630HOH      O 2076   2.372   3.979   1.854
  630HOH     H1 2077   2.439   3.921   1.818
  630HOH     H2 2078   2.399   3.995   1.944
  631HOH      O 2079  -0.013   2.155   1.458
  631HOH     H1 2080  -0.043   2.209   1.385
  631HOH     H2 2081   0.080   2.142   1.443
  632HOH      O 2082   3.366   1.912   3.977
  632HOH     H1 2083   3.285   1.898   4.026
  632HOH     H2 2084   3.424   1.841   4.004
  633HOH      O 2085   2.889   2.317   0.330
  633HOH     H1 2086   2.827   2.327   0.258
  633HOH     H2 2087   2.950   2.390   0.320
  634HOH      O 2088   0.557   1.117   1.212
  634HOH     H1 2089   0.622   1.057   1.174
  634HOH     H2 2090   0.561   1.101   1.306
  635HOH      O 2091   2.960   3.483   0.770
  635HOH     H1 2092   2.902   3.531   0.711
  635HOH     H2 2093   2.946   3.523   0.856
  636HOH      O 2094   1.912   3.899   3.943
  636HOH     H1 2095   1.945   3.836   4.007
  636HOH     H2 2096   1.863   3.846   3.881
  637HOH      O 2097   1.653   1.301   3.921
  637HOH     H1 2098   1.674   1.230   3.860
  637HOH     H2 2099   1.586   1.265   3.978
  638HOH      O 2100   0.488   3.277   2.455
  638HOH     H1 2101   0.511   3.200   2.508
  638HOH     H2 2102   0.568   3.298   2.407
  639HOH      O 2103   3.072   0.812   0.451
  639HOH     H1 2104   2.979   0.791   0.454
  639HOH     H2 2105   3.102   0.777   0.367
  640HOH      O 2106   3.839   1.082   0.458
  640HOH     H1 2107   3.756   1.051   0.496
  640HOH     H2 2108   3.906   1.038   0.510
  641HOH      O 2109   2.618   0.137   0.616
  641HOH     H1 2110   2.584   0.141   0.526
  641HOH     H2 2111   2.692   0.198   0.617
  642HOH      O 2112   2.414   1.205   2.104
  642HOH     H1 2113   2.359   1.178   2.030
  642HOH     H2 2114   2.496   1.156   2.093
  643HOH      O 2115   1.303   1.462   2.575
  643HOH     H1 2116   1.214   1.486   2.551
  643HOH     H2 2117   1.297   1.436   2.667
  644HOH      O 2118   2.270   0.212   3.032
  644HOH     H1 2119   2.364   0.225   3.016
  644HOH     H2 2120   2.231   0.297   3.014
  645HOH      O 2121   1.837   0.214   2.389
  645HOH     H1 2122   1.888   0.280   2.341
  645HOH     H2 2123   1.807   0.260   2.468
  646HOH      O 2124   3.895   3.835   4.012
  646HOH     H1 2125   3.978   3.792   4.032
  646HOH     H2 2126   3.840   3.765   3.976
  647HOH      O 2127   2.692   2.718   2.415
  647HOH     H1 2128   2.771   2.675   2.382
  647HOH     H2 2129   2.622   2.654   2.400
  648HOH      O 2130   1.234   2.935   3.875
  648HOH     H1 2131   1.175   2.960   3.946
  648HOH     H2 2132   1.201   2.851   3.845
  649HOH      O 2133   3.668   3.879   2.042
  649HOH     H1 2134   3.714   3.931   2.109
  649HOH     H2 2135   3.718   3.894   1.962
  650HOH      O 2136   1.276   0.338   3.713
  650HOH     H1 2137   1.362   0.300   3.731
  650HOH     H2 2138   1.224   0.316   3.790
  651HOH      O 2139   0.594   1.553   2.890
  651HOH     H1 2140   0.668   1.519   2.840
  651HOH     H2 2141   0.601   1.648   2.882
  652HOH      O 2142   1.088   3.432   0.708
  652HOH     H1 2143   1.024   3.384   0.762
  652HOH     H2 2144   1.160   3.369   0.695
  653HOH      O 2145   0.692   3.289   1.785
  653HOH     H1 2146   0.779   3.326   1.803
  653HOH     H2 2147   0.688   3.210   1.838
  654HOH      O 2148   1.188   3.914   2.661
  654HOH     H1 2149   1.180   3.855   2.735
  654HOH     H2 2150   1.205   3.857   2.586
  655HOH      O 2151   2.017   3.964   3.254
  655HOH     H1 2152   2.062   4.048   3.263
  655HOH     H2 2153   2.003   3.934   3.344
  656HOH      O 2154   3.335   0.552   3.587
  656HOH     H1 2155   3.427   0.563   3.563
  656HOH     H2 2156   3.287   0.606   3.524
  657HOH      O 2157   2.719   2.590   2.903
  657HOH     H1 2158   2.812   2.570   2.910
  657HOH     H2 2159   2.697   2.570   2.812
  658HOH      O 2160   3.241   2.857   1.737
  658HOH     H1 2161   3.310   2.802   1.700
  658HOH     H2 2162   3.282   2.943   1.748
  659HOH      O 2163   3.553   2.601   0.566
  659HOH     H1 2164   3.630   2.565   0.609
  659HOH     H2 2165   3.502   2.524   0.539
  660HOH      O 2166   0.734   1.673   3.901
  660HOH     H1 2167   0.696   1.592   3.866
  660HOH     H2 2168   0.705   1.742   3.841
  661HOH      O 2169   1.785   0.530   1.428
  661HOH     H1 2170   1.835   0.459   1.470
  661HOH     H2 2171   1.827   0.610   1.458
  662HOH      O 2172   2.436   2.963   0.462
  662HOH     H1 2173   2.347   2.989   0.438
  662HOH     H2 2174   2.438   2.868   0.451
  663HOH      O 2175   2.865   2.358   2.713
  663HOH     H1 2176   2.925   2.356   2.639
  663HOH     H2 2177   2.794   2.298   2.690
  664HOH      O 2178   2.905   2.674   0.414
  664HOH     H1 2179   2.989   2.676   0.459
  664HOH     H2 2180   2.923   2.708   0.327
  665HOH      O 2181   1.521   0.517   0.634
  665HOH     H1 2182   1.491   0.472   0.713
  665HOH     H2 2183   1.604   0.475   0.612
  666HOH      O 2184   3.787   3.145   3.796
  666HOH     H1 2185   3.872   3.150   3.753
  666HOH     H2 2186   3.796   3.073   3.859
  667HOH      O 2187   3.006   2.261   3.717
  667HOH     H1 2188   2.930   2.205   3.701
  667HOH     H2 2189   3.002   2.328   3.649
  668HOH      O 2190   1.976   1.675   3.296
  668HOH     H1 2191   1.996   1.760   3.336
  668HOH     H2 2192   1.926   1.696   3.218
  669HOH      O 2193   0.820   3.914   1.863
  669HOH     H1 2194   0.815   3.849   1.793
  669HOH     H2 2195   0.775   3.872   1.937
  670HOH      O 2196   3.413   3.538   0.338
  670HOH     H1 2197   3.424   3.585   0.420
  670HOH     H2 2198   3.424   3.446   0.362
  671HOH      O 2199   3.310   1.964   2.615
  671HOH     H1 2200   3.259   2.041   2.642
  671HOH     H2 2201   3.277   1.944   2.528
  672HOH      O 2202   1.153   2.556   1.426
  672HOH     H1 2203   1.143   2.492   1.355
  672HOH     H2 2204   1.241   2.540   1.459
  673HOH      O 2205   0.157   3.257   0.434
  673HOH     H1 2206   0.246   3.291   0.427
  673HOH     H2 2207   0.133   3.234   0.344
  674HOH      O 2208   1.921   1.714   2.550
  674HOH     H1 2209   1.912   1.632   2.502
  674HOH     H2 2210   1.832   1.748   2.556
  675HOH      O 2211   2.949   0.857   3.718
  675HOH     H1 2212   2.970   0.781   3.773
  675HOH     H2 2213   3.021   0.917   3.733
  676HOH      O 2214   3.912   2.633   0.673
  676HOH     H1 2215   3.948   2.621   0.585
  676HOH     H2 2216   3.971   2.696   0.714
  677HOH      O 2217   3.661   2.353   0.910
  677HOH     H1 2218   3.681   2.438   0.948
  677HOH     H2 2219   3.694   2.357   0.821
  678HOH      O 2220   2.627   3.415   2.277
  678HOH     H1 2221   2.541   3.403   2.318
  678HOH     H2 2222   2.685   3.437   2.350
  679HOH      O 2223   3.879   3.529   3.080
  679HOH     H1 2224   3.836   3.503   3.162
  679HOH     H2 2225   3.808   3.559   3.024
  680HOH      O 2226   0.794   3.975   0.953
  680HOH     H1 2227   0.830   3.914   1.017
  680HOH     H2 2228   0.702   3.986   0.979
  681HOH      O 2229   1.757   2.070   0.458
  681HOH     H1 2230   1.696   2.127   0.412
  681HOH     H2 2231   1.748   1.985   0.415
  682HOH      O 2232   1.496   0.066   0.729
  682HOH     H1 2233   1.436   0.123   0.682
  682HOH     H2 2234   1.495   0.100   0.819
  683HOH      O 2235   1.424   1.719   3.244
  683HOH     H1 2236   1.510   1.678   3.244
  683HOH     H2 2237   1.375   1.673   3.312
  684HOH      O 2238   1.140   0.934   1.629
  684HOH     H1 2239   1.176   0.929   1.541
  684HOH     H2 2240   1.187   0.867   1.678
  685HOH      O 2241   0.215   2.299   3.804
  685HOH     H1 2242   0.127   2.333   3.786
  685HOH     H2 2243   0.200   2.207   3.827
  686HOH      O 2244   2.448   1.588   3.529
  686HOH     H1 2245   2.360   1.625   3.536
  686HOH     H2 2246   2.498   1.656   3.483
  687HOH      O 2247   0.883   2.078   3.796
  687HOH     H1 2248   0.841   2.070   3.881
  687HOH     H2 2249   0.904   1.988   3.771
  688HOH      O 2250   3.434   4.043   3.378
  688HOH     H1 2251   3.437   4.025   3.284
  688HOH     H2 2252   3.513   4.002   3.413
  689HOH      O 2253   3.564   1.092   1.085
  689HOH     H1 2254   3.647   1.128   1.118
  689HOH     H2 2255   3.525   1.164   1.036
  690HOH      O 2256   2.099   3.598   3.989
  690HOH     H1 2257   2.125   3.611   4.080
  690HOH     H2 2258   2.172   3.552   3.948
  691HOH      O 2259   3.977   3.917   0.979
  691HOH     H1 2260   4.057   3.878   1.014
  691HOH     H2 2261   3.990   3.920   0.885
  692HOH      O 2262   3.854   1.062   1.859
  692HOH     H1 2263   3.830   1.067   1.766
  692HOH     H2 2264   3.843   1.152   1.891
  693HOH      O 2265   3.721   2.520   2.609
  693HOH     H1 2266   3.816   2.534   2.603
  693HOH     H2 2267   3.691   2.589   2.668
  694HOH      O 2268   3.958   3.461   3.494
  694HOH     H1 2269   3.901   3.413   3.432
  694HOH     H2 2270   3.900   3.526   3.534
  695HOH      O 2271   0.497   1.025   0.601
  695HOH     H1 2272   0.540   0.987   0.678
  695HOH     H2 2273   0.476   1.115   0.627
  696HOH      O 2274   1.621   3.721   1.329
  696HOH     H1 2275   1.647   3.629   1.322
  696HOH     H2 2276   1.526   3.720   1.317
  697HOH      O 2277   0.661   3.434   2.029
  697HOH     H1 2278   0.709   3.357   2.000
  697HOH     H2 2279   0.647   3.485   1.949
  698HOH      O 2280   2.453   2.400   3.837
  698HOH     H1 2281   2.548   2.408   3.836
  698HOH     H2 2282   2.424   2.459   3.906
  699HOH      O 2283   1.056   2.334   0.420
  699HOH     H1 2284   1.015   2.254   0.452
  699HOH     H2 2285   1.139   2.306   0.381
  700HOH      O 2286   1.540   2.766   3.413
  700HOH     H1 2287   1.548   2.853   3.453
  700HOH     H2 2288   1.524   2.707   3.487
  701HOH      O 2289   2.546   3.198   0.103
  701HOH     H1 2290   2.627   3.160   0.139
  701HOH     H2 2291   2.477   3.137   0.130
  702HOH      O 2292   3.903   1.368   0.625
  702HOH     H1 2293   3.827   1.314   0.648
  702HOH     H2 2294   3.879   1.408   0.541
  703HOH      O 2295   2.736   1.130   0.409
  703HOH     H1 2296   2.754   1.114   0.502
  703HOH     H2 2297   2.646   1.161   0.407
  704HOH      O 2298   2.056   0.470   1.570
  704HOH     H1 2299   2.032   0.494   1.659
  704HOH     H2 2300   2.019   0.382   1.557
  705HOH      O 2301   3.929   3.473   0.458
  705HOH     H1 2302   3.981   3.461   0.378
  705HOH     H2 2303   3.986   3.442   0.528
  706HOH      O 2304   1.922   0.931   3.744
  706HOH     H1 2305   1.993   0.918   3.807
  706HOH     H2 2306   1.954   0.998   3.684
  707HOH      O 2307   3.404   2.209   3.093
  707HOH     H1 2308   3.323   2.221   3.043
  707HOH     H2 2309   3.378   2.229   3.183
  708HOH      O 2310   1.362   1.076   1.199
  708HOH     H1 2311   1.343   1.162   1.160
  708HOH     H2 2312   1.376   1.018   1.124
  709HOH      O 2313   0.977   1.270   1.907
  709HOH     H1 2314   1.005   1.309   1.990
  709HOH     H2 2315   0.969   1.177   1.926
  710HOH      O 2316   0.920   1.106   0.108
  710HOH     H1 2317   0.995   1.166   0.104
  710HOH     H2 2318   0.947   1.039   0.171
  711HOH      O 2319   1.578   3.587   1.806
  711HOH     H1 2320   1.556   3.653   1.871
  711HOH     H2 2321   1.668   3.608   1.781
  712HOH      O 2322   2.353   3.433   0.444
  712HOH     H1 2323   2.277   3.376   0.449
  712HOH     H2 2324   2.341   3.495   0.516
  713HOH      O 2325   1.831   3.371   3.471
  713HOH     H1 2326   1.806   3.370   3.378
  713HOH     H2 2327   1.900   3.305   3.477
  714HOH      O 2328   1.185   2.798   2.298
  714HOH     H1 2329   1.254   2.769   2.358
  714HOH     H2 2330   1.202   2.892   2.285
  715HOH      O 2331   2.519   1.642   1.843
  715HOH     H1 2332   2.542   1.598   1.925
  715HOH     H2 2333   2.577   1.718   1.840
  716HOH      O 2334   1.316   1.192   2.950
  716HOH     H1 2335   1.323   1.284   2.924
  716HOH     H2 2336   1.363   1.144   2.882
  717HOH      O 2337   3.015   1.567   0.434
  717HOH     H1 2338   3.062   1.598   0.357
  717HOH     H2 2339   2.924   1.590   0.418
  718HOH      O 2340   2.885   3.059   3.266
  718HOH     H1 2341   2.870   3.038   3.358
  718HOH     H2 2342   2.863   2.979   3.218
  719HOH      O 2343   2.171   2.481   1.221
  719HOH     H1 2344   2.102   2.486   1.286
  719HOH     H2 2345   2.125   2.478   1.137
  720HOH      O 2346   2.586   1.503   0.762
  720HOH     H1 2347   2.641   1.484   0.838
  720HOH     H2 2348   2.508   1.449   0.775
  721HOH      O 2349   1.436   1.467   1.633
  721HOH     H1 2350   1.384   1.547   1.623
  721HOH     H2 2351   1.522   1.489   1.596
  722HOH      O 2352   1.923   3.514   2.604
  722HOH     H1 2353   1.849   3.454   2.615
  722HOH     H2 2354   1.931   3.525   2.510
  723HOH      O 2355   3.229   3.709   2.972
  723HOH     H1 2356   3.315   3.673   2.995
  723HOH     H2 2357   3.233   3.722   2.877
  724HOH      O 2358   3.827   1.385   0.009
  724HOH     H1 2359   3.850   1.345   0.092
  724HOH     H2 2360   3.731   1.387   0.008
  725HOH      O 2361   3.755   0.436   1.676
  725HOH     H1 2362   3.835   0.467   1.632
  725HOH     H2 2363   3.753   0.342   1.660
  726HOH      O 2364   2.079   1.417   2.672
  726HOH     H1 2365   2.102   1.398   2.581
  726HOH     H2 2366   2.068   1.512   2.674
  727HOH      O 2367   2.401   1.488   0.530
  727HOH     H1 2368   2.447   1.529   0.604
  727HOH     H2 2369   2.416   1.394   0.542
  728HOH      O 2370   3.703   2.149   3.487
  728HOH     H1 2371   3.793   2.147   3.520
  728HOH     H2 2372   3.707   2.210   3.413
  729HOH      O 2373   1.023   0.338   2.638
  729HOH     H1 2374   1.013   0.246   2.615
  729HOH     H2 2375   1.003   0.385   2.558
  730HOH      O 2376   3.557   3.613   0.122
  730HOH     H1 2377   3.553   3.705   0.149
  730HOH     H2 2378   3.525   3.565   0.199
  731HOH      O 2379   3.596   1.061   0.598
  731HOH     H1 2380   3.530   1.015   0.650
  731HOH     H2 2381   3.554   1.077   0.514
  732HOH      O 2382   1.994   3.232   2.466
  732HOH     H1 2383   1.931   3.240   2.538
  732HOH     H2 2384   2.072   3.278   2.497
  733HOH      O 2385   1.514   1.523   0.137
  733HOH     H1 2386   1.544   1.580   0.208
  733HOH     H2 2387   1.502   1.582   0.063
  734HOH      O 2388   0.031   2.917   3.183
  734HOH     H1 2389   0.087   2.901   3.258
  734HOH     H2 2390   0.090   2.952   3.116
  735HOH      O 2391   1.154   1.610   1.660
  735HOH     H1 2392   1.064   1.637   1.639
  735HOH     H2 2393   1.207   1.653   1.593
  736HOH      O 2394   0.108   3.590   3.334
  736HOH     H1 2395   0.037   3.551   3.385
  736HOH     H2 2396   0.151   3.516   3.291
  737HOH      O 2397   3.328   0.350   3.880
  737HOH     H1 2398   3.237   0.336   3.854
  737HOH     H2 2399   3.379   0.320   3.804
  738HOH      O 2400   0.343   1.063   2.641
  738HOH     H1 2401   0.258   1.062   2.598
  738HOH     H2 2402   0.367   1.156   2.644
  739HOH      O 2403   3.535   1.625   3.489
  739HOH     H1 2404   3.545   1.718   3.507
  739HOH     H2 2405   3.615   1.585   3.523
  740HOH      O 2406   3.343   0.784   1.938
  740HOH     H1 2407   3.435   0.806   1.948
  740HOH     H2 2408   3.333   0.699   1.980
  741HOH      O 2409   2.722   2.632   2.091
  741HOH     H1 2410   2.733   2.538   2.106
  741HOH     H2 2411   2.629   2.648   2.104
  742HOH      O 2412   0.115   2.844   0.502
  742HOH     H1 2413   0.090   2.920   0.450
  742HOH     H2 2414   0.139   2.880   0.588
  743HOH      O 2415   3.027   1.408   2.896
  743HOH     H1 2416   2.998   1.467   2.965
  743HOH     H2 2417   3.007   1.454   2.814
  744HOH      O 2418   0.087   3.335   2.580
  744HOH     H1 2419   0.090   3.381   2.664
  744HOH     H2 2420  -0.002   3.300   2.576
  745HOH      O 2421   1.729   2.395   1.232
  745HOH     H1 2422   1.752   2.305   1.211
  745HOH     H2 2423   1.686   2.428   1.153
  746HOH      O 2424   1.929   1.126   1.923
  746HOH     H1 2425   1.854   1.077   1.957
  746HOH     H2 2426   1.921   1.119   1.828
  747HOH      O 2427   2.558   0.028   2.700
  747HOH     H1 2428   2.465   0.037   2.718
  747HOH     H2 2429   2.564  -0.045   2.638
  748HOH      O 2430   0.790   0.299   0.500
  748HOH     H1 2431   0.716   0.239   0.504
  748HOH     H2 2432   0.854   0.264   0.562
  749HOH      O 2433   2.497   2.457   3.006
  749HOH     H1 2434   2.543   2.478   2.925
  749HOH     H2 2435   2.437   2.387   2.982
  750HOH      O 2436   0.512   3.718   2.659
  750HOH     H1 2437   0.548   3.633   2.684
  750HOH     H2 2438   0.539   3.777   2.730
  751HOH      O 2439   2.198   0.600   2.714
  751HOH     H1 2440   2.128   0.535   2.709
  751HOH     H2 2441   2.254   0.580   2.639
  752HOH      O 2442   1.182   1.742   0.071
  752HOH     H1 2443   1.254   1.714   0.128
  752HOH     H2 2444   1.149   1.662   0.033
  753HOH      O 2445   2.168   2.824   2.753
  753HOH     H1 2446   2.183   2.788   2.666
  753HOH     H2 2447   2.108   2.762   2.795
  754HOH      O 2448   2.955   0.144   3.282
  754HOH     H1 2449   2.906   0.062   3.277
  754HOH     H2 2450   3.023   0.127   3.348
  755HOH      O 2451   3.647   2.864   0.589
  755HOH     H1 2452   3.631   2.770   0.593
  755HOH     H2 2453   3.611   2.899   0.670
  756HOH      O 2454   3.522   3.308   3.784
  756HOH     H1 2455   3.611   3.300   3.819
  756HOH     H2 2456   3.514   3.236   3.721
  757HOH      O 2457   1.868   0.282   1.554
  757HOH     H1 2458   1.824   0.226   1.618
  757HOH     H2 2459   1.919   0.222   1.501
  758HOH      O 2460   2.428   1.830   0.836
  758HOH     H1 2461   2.417   1.813   0.743
  758HOH     H2 2462   2.349   1.795   0.877
  759HOH      O 2463   3.592   0.846   0.982
  759HOH     H1 2464   3.567   0.796   1.060
  759HOH     H2 2465   3.585   0.938   1.009
  760HOH      O 2466   3.926   0.796   1.197
  760HOH     H1 2467   4.018   0.789   1.173
  760HOH     H2 2468   3.897   0.706   1.207
  761HOH      O 2469   3.473   3.297   0.439
  761HOH     H1 2470   3.503   3.235   0.505
  761HOH     H2 2471   3.513   3.266   0.358
  762HOH      O 2472   1.470   0.115   3.022
  762HOH     H1 2473   1.497   0.066   3.100
  762HOH     H2 2474   1.545   0.171   3.002
  763HOH      O 2475   0.585   2.459   3.613
  763HOH     H1 2476   0.550   2.411   3.688
  763HOH     H2 2477   0.674   2.482   3.639
  764HOH      O 2478   3.366   1.290   2.047
  764HOH     H1 2479   3.445   1.236   2.051
  764HOH     H2 2480   3.325   1.264   1.964
  765HOH      O 2481   3.218   3.295   1.091
  765HOH     H1 2482   3.214   3.308   1.186
  765HOH     H2 2483   3.311   3.277   1.074
  766HOH      O 2484   2.299   0.214   4.011
  766HOH     H1 2485   2.388   0.184   3.998
  766HOH     H2 2486   2.295   0.299   3.968
  767HOH      O 2487   3.725   2.939   1.309
  767HOH     H1 2488   3.684   2.980   1.385
  767HOH     H2 2489   3.791   3.003   1.280
  768HOH      O 2490   0.404   1.339   2.648
  768HOH     H1 2491   0.359   1.421   2.669
  768HOH     H2 2492   0.459   1.322   2.725
  769HOH      O 2493   1.500   1.583   1.376
  769HOH     H1 2494   1.537   1.495   1.381
  769HOH     H2 2495   1.575   1.641   1.362
  770HOH      O 2496   1.398   2.147   3.331
  770HOH     H1 2497   1.487   2.165   3.361
  770HOH     H2 2498   1.410   2.090   3.255
  771HOH      O 2499   1.317   3.289   1.637
  771HOH     H1 2500   1.390   3.322   1.586
  771HOH     H2 2501   1.242   3.343   1.611
  772HOH      O 2502   1.528   1.352   2.178
  772HOH     H1 2503   1.523   1.327   2.270
  772HOH     H2 2504   1.479   1.285   2.131
  773HOH      O 2505   1.412   0.895   3.126
  773HOH     H1 2506   1.359   0.886   3.046
  773HOH     H2 2507   1.434   0.805   3.149
  774HOH      O 2508   1.832   3.584   3.941
  774HOH     H1 2509   1.925   3.608   3.944
  774HOH     H2 2510   1.823   3.533   3.861
  775HOH      O 2511   0.988   0.094   0.075
  775HOH     H1 2512   1.069   0.048   0.097
  775HOH     H2 2513   0.924   0.062   0.139
  776HOH      O 2514   2.158   3.103   2.828
  776HOH     H1 2515   2.246   3.121   2.860
  776HOH     H2 2516   2.163   3.016   2.789
  777HOH      O 2517   1.159   0.572   3.959
  777HOH     H1 2518   1.109   0.637   4.008
  777HOH     H2 2519   1.181   0.615   3.877
  778HOH      O 2520   3.577   0.049   0.353
  778HOH     H1 2521   3.562   0.011   0.439
  778HOH     H2 2522   3.529   0.131   0.353
  779HOH      O 2523   3.171   3.324   3.623
  779HOH     H1 2524   3.228   3.247   3.624
  779HOH     H2 2525   3.185   3.364   3.537
  780HOH      O 2526   0.783   1.438   0.409
  780HOH     H1 2527   0.858   1.381   0.426
  780HOH     H2 2528   0.806   1.485   0.329
  781HOH      O 2529   1.081   3.926   1.924
  781HOH     H1 2530   0.994   3.938   1.886
  781HOH     H2 2531   1.130   3.880   1.856
  782HOH      O 2532   0.872   3.879   2.714
  782HOH     H1 2533   0.935   3.917   2.775
  782HOH     H2 2534   0.786   3.902   2.750
  783HOH      O 2535   0.733   2.239   2.530
  783HOH     H1 2536   0.796   2.311   2.522
  783HOH     H2 2537   0.712   2.216   2.439
  784HOH      O 2538   1.218   3.499   2.046
  784HOH     H1 2539   1.243   3.491   2.138
  784HOH     H2 2540   1.275   3.437   2.000
  785HOH      O 2541   1.470   1.692   3.960
  785HOH     H1 2542   1.447   1.771   3.910
  785HOH     H2 2543   1.432   1.620   3.909
  786HOH      O 2544   2.557   3.882   1.613
  786HOH     H1 2545   2.648   3.890   1.584
  786HOH     H2 2546   2.510   3.850   1.536
  787HOH      O 2547   3.359   2.576   0.044
  787HOH     H1 2548   3.382   2.505  -0.017
  787HOH     H2 2549   3.290   2.538   0.099
  788HOH      O 2550   3.580   3.879   0.178
  788HOH     H1 2551   3.577   3.936   0.254
  788HOH     H2 2552   3.557   3.936   0.104
  789HOH      O 2553   3.897   0.836   2.005
  789HOH     H1 2554   3.964   0.779   1.968
  789HOH     H2 2555   3.892   0.909   1.944
  790HOH      O 2556   1.410   0.383   1.005
  790HOH     H1 2557   1.396   0.288   1.004
  790HOH     H2 2558   1.421   0.405   1.097
  791HOH      O 2559   2.070   2.770   0.292
  791HOH     H1 2560   2.140   2.712   0.262
  791HOH     H2 2561   2.035   2.726   0.370
  792HOH      O 2562   2.010   0.706   1.133
  792HOH     H1 2563   2.020   0.769   1.203
  792HOH     H2 2564   2.067   0.633   1.157
  793HOH      O 2565   3.328   1.737   1.284
  793HOH     H1 2566   3.265   1.755   1.215
  793HOH     H2 2567   3.368   1.822   1.303
  794HOH      O 2568   1.439   3.836   1.011
  794HOH     H1 2569   1.362   3.888   1.034
  794HOH     H2 2570   1.418   3.798   0.925
  795HOH      O 2571   0.043   3.248   3.959
  795HOH     H1 2572  -0.044   3.279   3.986
  795HOH     H2 2573   0.043   3.256   3.864
  796HOH      O 2574   0.514   3.902   0.086
  796HOH     H1 2575   0.586   3.854   0.127
  796HOH     H2 2576   0.442   3.839   0.083
  797HOH      O 2577   0.640   2.119   0.855
  797HOH     H1 2578   0.559   2.132   0.905
  797HOH     H2 2579   0.693   2.196   0.875
  798HOH      O 2580   2.612   2.377   2.411
  798HOH     H1 2581   2.525   2.407   2.437
  798HOH     H2 2582   2.628   2.300   2.466
  799HOH      O 2583   1.250   0.148   2.645
  799HOH     H1 2584   1.210   0.062   2.658
  799HOH     H2 2585   1.233   0.169   2.553
  800HOH      O 2586   0.070   2.671   2.818
  800HOH     H1 2587   0.108   2.675   2.906
  800HOH     H2 2588   0.138   2.632   2.764
  801HOH      O 2589   1.745   2.254   3.020
  801HOH     H1 2590   1.826   2.247   2.970
  801HOH     H2 2591   1.722   2.347   3.016
  802HOH      O 2592   1.674   1.113   3.703
  802HOH     H1 2593   1.671   1.089   3.610
  802HOH     H2 2594   1.766   1.130   3.720
  803HOH      O 2595   0.336   0.548   2.680
  803HOH     H1 2596   0.302   0.629   2.643
  803HOH     H2 2597   0.354   0.493   2.603
  804HOH      O 2598   1.332   0.371   1.875
  804HOH     H1 2599   1.355   0.280   1.853
  804HOH     H2 2600   1.350   0.420   1.795
  805HOH      O 2601   1.786   2.035   3.209
  805HOH     H1 2602   1.757   2.103   3.147
  805HOH     H2 2603   1.879   2.054   3.223
  806HOH      O 2604   3.107   2.230   1.856
  806HOH     H1 2605   3.106   2.249   1.950
  806HOH     H2 2606   3.023   2.261   1.824
  807HOH      O 2607   2.241   2.680   3.893
  807HOH     H1 2608   2.195   2.698   3.810
  807HOH     H2 2609   2.193   2.731   3.958
  808HOH      O 2610   3.844   0.593   0.123
  808HOH     H1 2611   3.884   0.619   0.206
  808HOH     H2 2612   3.882   0.653   0.059
  809HOH      O 2613   3.371   2.739   2.478
  809HOH     H1 2614   3.410   2.826   2.490
  809HOH     H2 2615   3.289   2.743   2.526
  810HOH      O 2616   1.359   0.666   1.242
  810HOH     H1 2617   1.404   0.582   1.237
  810HOH     H2 2618   1.316   0.666   1.327
  811HOH      O 2619   2.769   3.102   0.261
  811HOH     H1 2620   2.713   3.141   0.327
  811HOH     H2 2621   2.805   3.176   0.212
  812HOH      O 2622   1.153   0.591   2.707
  812HOH     H1 2623   1.097   0.515   2.696
  812HOH     H2 2624   1.242   0.556   2.716
  813HOH      O 2625   3.286   1.218   0.097
  813HOH     H1 2626   3.224   1.270   0.149
  813HOH     H2 2627   3.272   1.247   0.007
  814HOH      O 2628   3.130   0.372   0.722
  814HOH     H1 2629   3.180   0.451   0.742
  814HOH     H2 2630   3.125   0.325   0.806
  815HOH      O 2631   0.605   2.689   0.148
  815HOH     H1 2632   0.609   2.708   0.241
  815HOH     H2 2633   0.576   2.598   0.143
  816HOH      O 2634   2.975   0.543   3.669
  816HOH     H1 2635   3.060   0.581   3.692
  816HOH     H2 2636   2.954   0.484   3.741
  817HOH      O 2637   1.520   0.732   3.929
  817HOH     H1 2638   1.569   0.668   3.982
  817HOH     H2 2639   1.473   0.785   3.994
  818HOH      O 2640   1.750   1.664   4.009
  818HOH     H1 2641   1.780   1.737   4.063
  818HOH     H2 2642   1.656   1.679   4.001
  819HOH      O 2643   3.725   2.652   3.814
  819HOH     H1 2644   3.658   2.587   3.789
  819HOH     H2 2645   3.807   2.602   3.817
  820HOH      O 2646   1.713   3.645   1.046
  820HOH     H1 2647   1.678   3.597   1.120
  820HOH     H2 2648   1.733   3.732   1.082
  821HOH      O 2649   0.572   1.648   2.471
  821HOH     H1 2650   0.495   1.640   2.527
  821HOH     H2 2651   0.545   1.611   2.387
  822HOH      O 2652   3.010   2.272   0.068
  822HOH     H1 2653   3.058   2.318  -0.001
  822HOH     H2 2654   2.970   2.341   0.121
  823HOH      O 2655   3.572   0.604   3.470
  823HOH     H1 2656   3.659   0.569   3.487
  823HOH     H2 2657   3.585   0.667   3.400
  824HOH      O 2658   1.424   3.382   1.879
  824HOH     H1 2659   1.426   3.342   1.792
  824HOH     H2 2660   1.478   3.460   1.870
  825HOH      O 2661   2.300   3.613   0.621
  825HOH     H1 2662   2.308   3.662   0.703
  825HOH     H2 2663   2.220   3.647   0.581
  826HOH      O 2664   4.002   3.164   0.597
  826HOH     H1 2665   4.067   3.184   0.529
  826HOH     H2 2666   4.000   3.241   0.652
  827HOH      O 2667   3.943   0.159   0.620
  827HOH     H1 2668   3.917   0.157   0.528
  827HOH     H2 2669   4.031   0.197   0.619
  828HOH      O 2670   1.994   0.131   1.352
  828HOH     H1 2671   1.977   0.160   1.262
  828HOH     H2 2672   2.087   0.150   1.366
  829HOH      O 2673   3.736   3.273   0.567
  829HOH     H1 2674   3.776   3.201   0.518
  829HOH     H2 2675   3.785   3.351   0.540
  830HOH      O 2676   2.768   0.562   0.133
  830HOH     H1 2677   2.861   0.542   0.122
  830HOH     H2 2678   2.766   0.658   0.141
  831HOH      O 2679   0.312   2.094   2.669
  831HOH     H1 2680   0.309   2.133   2.582
  831HOH     H2 2681   0.398   2.053   2.674
  832HOH      O 2682   3.233   4.033   2.233
  832HOH     H1 2683   3.161   3.973   2.212
  832HOH     H2 2684   3.301   4.013   2.170
  833HOH      O 2685   0.909   3.438   3.157
  833HOH     H1 2686   0.929   3.467   3.246
  833HOH     H2 2687   0.814   3.426   3.157
  834HOH      O 2688   1.119   1.314   0.052
  834HOH     H1 2689   1.068   1.392   0.034
  834HOH     H2 2690   1.141   1.322   0.145
  835HOH      O 2691   1.447   0.675   0.973
  835HOH     H1 2692   1.422   0.587   0.947
  835HOH     H2 2693   1.412   0.685   1.062
  836HOH      O 2694   1.774   0.352   2.633
  836HOH     H1 2695   1.697   0.295   2.633
  836HOH     H2 2696   1.771   0.397   2.717
  837HOH      O 2697   2.428   3.478   2.860
  837HOH     H1 2698   2.459   3.543   2.923
  837HOH     H2 2699   2.379   3.415   2.913
  838HOH      O 2700   2.914   3.195   0.773
  838HOH     H1 2701   2.858   3.222   0.700
  838HOH     H2 2702   2.912   3.270   0.833
  839HOH      O 2703   2.081   0.055   2.927
  839HOH     H1 2704   2.144   0.106   2.976
  839HOH     H2 2705   1.996   0.080   2.964
  840HOH      O 2706   2.220   1.049   2.281
  840HOH     H1 2707   2.195   1.003   2.201
  840HOH     H2 2708   2.292   1.107   2.255
  841HOH      O 2709   1.349   3.707   3.659
  841HOH     H1 2710   1.256   3.694   3.643
  841HOH     H2 2711   1.357   3.716   3.754
  842HOH      O 2712   1.849   2.183   0.209
  842HOH     H1 2713   1.872   2.096   0.176
  842HOH     H2 2714   1.901   2.194   0.288
  843HOH      O 2715   2.445   0.698   2.868
  843HOH     H1 2716   2.458   0.785   2.830
  843HOH     H2 2717   2.375   0.660   2.816
  844HOH      O 2718   3.714   1.476   1.726
  844HOH     H1 2719   3.806   1.475   1.753
  844HOH     H2 2720   3.704   1.559   1.679
  845HOH      O 2721   0.785   2.418   0.881
  845HOH     H1 2722   0.732   2.476   0.828
  845HOH     H2 2723   0.851   2.383   0.821
  846HOH      O 2724   0.346   0.029   1.734
  846HOH     H1 2725   0.409   0.039   1.663
  846HOH     H2 2726   0.386   0.077   1.807
  847HOH      O 2727   3.652   1.894   3.659
  847HOH     H1 2728   3.744   1.870   3.667
  847HOH     H2 2729   3.652   1.971   3.603
  848HOH      O 2730   3.586   0.796   3.250
  848HOH     H1 2731   3.655   0.756   3.197
  848HOH     H2 2732   3.515   0.812   3.188
  849HOH      O 2733   2.445   2.854   1.002
  849HOH     H1 2734   2.430   2.909   1.079
  849HOH     H2 2735   2.390   2.777   1.018
  850HOH      O 2736   2.675   0.661   2.980
  850HOH     H1 2737   2.582   0.668   2.963
  850HOH     H2 2738   2.687   0.705   3.065
  851HOH      O 2739   2.574   2.943   0.758
  851HOH     H1 2740   2.535   2.891   0.829
  851HOH     H2 2741   2.509   2.938   0.687
  852HOH      O 2742   1.484   3.127   1.029
  852HOH     H1 2743   1.577   3.133   1.006
  852HOH     H2 2744   1.473   3.190   1.100
  853HOH      O 2745   2.606   2.867   3.357
  853HOH     H1 2746   2.604   2.823   3.272
  853HOH     H2 2747   2.699   2.871   3.380
  854HOH      O 2748   0.608   1.271   2.902
  854HOH     H1 2749   0.529   1.276   2.957
  854HOH     H2 2750   0.665   1.210   2.949
  855HOH      O 2751   1.946   0.979   0.707
  855HOH     H1 2752   1.994   0.999   0.788
  855HOH     H2 2753   1.857   1.010   0.724
  856HOH      O 2754   0.048   0.261   1.129
  856HOH     H1 2755   0.006   0.175   1.124
  856HOH     H2 2756   0.044   0.284   1.221
  857HOH      O 2757   3.998   0.658   3.919
  857HOH     H1 2758   3.964   0.715   3.850
  857HOH     H2 2759   4.023   0.578   3.874
  858HOH      O 2760   1.733   1.516   1.622
  858HOH     H1 2761   1.768   1.501   1.534
  858HOH     H2 2762   1.755   1.607   1.641
  859HOH      O 2763   0.881   1.773   2.067
  859HOH     H1 2764   0.896   1.807   2.156
  859HOH     H2 2765   0.959   1.721   2.048
  860HOH      O 2766   1.081   0.655   3.481
  860HOH     H1 2767   1.136   0.614   3.414
  860HOH     H2 2768   1.001   0.601   3.481
  861HOH      O 2769   3.469   0.423   3.157
  861HOH     H1 2770   3.415   0.370   3.216
  861HOH     H2 2771   3.425   0.419   3.073
  862HOH      O 2772   3.545   0.113   1.533
  862HOH     H1 2773   3.521   0.050   1.465
  862HOH     H2 2774   3.623   0.157   1.499
  863HOH      O 2775   3.366   0.620   0.874
  863HOH     H1 2776   3.371   0.705   0.917
  863HOH     H2 2777   3.305   0.633   0.802
  864HOH      O 2778   0.737   3.142   3.920
  864HOH     H1 2779   0.817   3.162   3.871
  864HOH     H2 2780   0.767   3.126   4.009
  865HOH      O 2781   1.973   1.680   2.178
  865HOH     H1 2782   2.068   1.670   2.183
  865HOH     H2 2783   1.942   1.664   2.267
  866HOH      O 2784   1.971   3.430   0.718
  866HOH     H1 2785   1.978   3.513   0.766
  866HOH     H2 2786   1.961   3.364   0.786
  867HOH      O 2787   3.841   3.602   1.797
  867HOH     H1 2788   3.930   3.583   1.829
  867HOH     H2 2789   3.797   3.517   1.795
  868HOH      O 2790   3.081   3.468   2.025
  868HOH     H1 2791   2.990   3.495   2.043
  868HOH     H2 2792   3.108   3.523   1.952
  869HOH      O 2793   3.127   1.132   3.547
  869HOH     H1 2794   3.207   1.126   3.495
  869HOH     H2 2795   3.157   1.156   3.635
  870HOH      O 2796   3.243   0.497   2.056
  870HOH     H1 2797   3.151   0.519   2.039
  870HOH     H2 2798   3.272   0.452   1.976
  871HOH      O 2799   1.506   3.899   1.739
  871HOH     H1 2800   1.577   3.894   1.675
  871HOH     H2 2801   1.429   3.867   1.692
  872HOH      O 2802   0.520   3.847   1.008
  872HOH     H1 2803   0.501   3.816   0.919
  872HOH     H2 2804   0.548   3.769   1.055
  873HOH      O 2805   1.673   1.607   3.255
  873HOH     H1 2806   1.735   1.602   3.182
  873HOH     H2 2807   1.707   1.545   3.319
  874HOH      O 2808   0.278   2.858   3.303
  874HOH     H1 2809   0.305   2.811   3.383
  874HOH     H2 2810   0.360   2.895   3.269
  875HOH      O 2811   3.711   0.292   3.887
  875HOH     H1 2812   3.802   0.315   3.907
  875HOH     H2 2813   3.709   0.287   3.791
  876HOH      O 2814   0.551   3.456   0.865
  876HOH     H1 2815   0.575   3.364   0.871
  876HOH     H2 2816   0.551   3.475   0.771
  877HOH      O 2817   1.465   0.421   1.252
  877HOH     H1 2818   1.404   0.387   1.317
  877HOH     H2 2819   1.537   0.358   1.252
  878HOH      O 2820   2.946   0.617   0.718
  878HOH     H1 2821   3.041   0.605   0.712
  878HOH     H2 2822   2.910   0.539   0.676
  879HOH      O 2823   3.555   1.679   2.391
  879HOH     H1 2824   3.545   1.608   2.327
  879HOH     H2 2825   3.467   1.692   2.425
  880HOH      O 2826   0.195   0.615   2.918
  880HOH     H1 2827   0.209   0.605   2.823
  880HOH     H2 2828   0.265   0.565   2.958
  881HOH      O 2829   2.987   0.427   2.366
  881HOH     H1 2830   3.055   0.489   2.342
  881HOH     H2 2831   3.029   0.341   2.360
  882HOH      O 2832   0.738   0.527   2.775
  882HOH     H1 2833   0.792   0.594   2.815
  882HOH     H2 2834   0.713   0.564   2.690
  883HOH      O 2835   2.092   0.125   0.111
  883HOH     H1 2836   2.054   0.203   0.153
  883HOH     H2 2837   2.162   0.160   0.057
  884HOH      O 2838   3.305   0.463   2.317
  884HOH     H1 2839   3.384   0.410   2.314
  884HOH     H2 2840   3.280   0.474   2.225
  885HOH      O 2841   3.884   3.133   2.845
  885HOH     H1 2842   3.841   3.115   2.929
  885HOH     H2 2843   3.915   3.047   2.815
  886HOH      O 2844   0.191   1.251   1.408
  886HOH     H1 2845   0.164   1.184   1.345
  886HOH     H2 2846   0.111   1.301   1.425
  887HOH      O 2847   1.321   3.621   0.176
  887HOH     H1 2848   1.353   3.711   0.179
  887HOH     H2 2849   1.398   3.567   0.190
  888HOH      O 2850   0.821   0.730   1.932
  888HOH     H1 2851   0.777   0.815   1.935
  888HOH     H2 2852   0.818   0.698   2.022
  889HOH      O 2853   0.995   1.960   1.906
  889HOH     H1 2854   0.932   1.899   1.944
  889HOH     H2 2855   0.985   2.040   1.957
  890HOH      O 2856   0.055   3.723   0.167
  890HOH     H1 2857   0.081   3.634   0.190
  890HOH     H2 2858  -0.033   3.732   0.203
  891HOH      O 2859   3.705   0.791   3.657
  891HOH     H1 2860   3.709   0.854   3.585
  891HOH     H2 2861   3.732   0.708   3.618
  892HOH      O 2862   1.880   0.397   0.428
  892HOH     H1 2863   1.863   0.458   0.500
  892HOH     H2 2864   1.875   0.310   0.468
  893HOH      O 2865   2.071   0.922   2.061
  893HOH     H1 2866   2.030   0.992   2.011
  893HOH     H2 2867   2.006   0.897   2.127
  894HOH      O 2868   0.940   0.712   2.845
  894HOH     H1 2869   1.010   0.674   2.792
  894HOH     H2 2870   0.968   0.699   2.935
  895HOH      O 2871   1.371   0.803   2.482
  895HOH     H1 2872   1.319   0.874   2.445
  895HOH     H2 2873   1.342   0.725   2.435
  896HOH      O 2874   2.210   0.904   2.723
  896HOH     H1 2875   2.173   0.935   2.640
  896HOH     H2 2876   2.136   0.862   2.767
  897HOH      O 2877   0.527   1.036   3.171
  897HOH     H1 2878   0.507   1.127   3.147
  897HOH     H2 2879   0.577   1.003   3.097
  898HOH      O 2880   3.735   3.384   1.285
  898HOH     H1 2881   3.685   3.414   1.209
  898HOH     H2 2882   3.822   3.421   1.272
  899HOH      O 2883   2.377   2.266   2.832
  899HOH     H1 2884   2.345   2.203   2.767
  899HOH     H2 2885   2.323   2.343   2.820
  900HOH      O 2886   3.766   2.035   0.361
  900HOH     H1 2887   3.773   2.038   0.265
  900HOH     H2 2888   3.790   2.124   0.389
  901HOH      O 2889   0.783   0.331   0.809
  901HOH     H1 2890   0.739   0.250   0.783
  901HOH     H2 2891   0.721   0.374   0.867
  902HOH      O 2892   0.777   2.961   0.427
  902HOH     H1 2893   0.804   2.869   0.421
  902HOH     H2 2894   0.835   3.007   0.368
  903HOH      O 2895   0.288   0.589   2.233
  903HOH     H1 2896   0.247   0.521   2.287
  903HOH     H2 2897   0.309   0.544   2.151
  904HOH      O 2898   1.611   1.826   0.604
  904HOH     H1 2899   1.561   1.791   0.678
  904HOH     H2 2900   1.681   1.762   0.591
  905HOH      O 2901   0.824   1.536   2.349
  905HOH     H1 2902   0.734   1.512   2.329
  905HOH     H2 2903   0.824   1.632   2.346
  906HOH      O 2904   1.664   0.244   1.273
  906HOH     H1 2905   1.742   0.295   1.294
  906HOH     H2 2906   1.691   0.153   1.288
  907HOH      O 2907   3.633   0.999   3.820
  907HOH     H1 2908   3.705   1.004   3.883
  907HOH     H2 2909   3.651   0.920   3.769
  908HOH      O 2910   1.183   1.351   0.311
  908HOH     H1 2911   1.242   1.278   0.292
  908HOH     H2 2912   1.128   1.319   0.383
  909HOH      O 2913   0.945   2.333   0.684
  909HOH     H1 2914   0.904   2.358   0.601
  909HOH     H2 2915   1.000   2.258   0.663
  910HOH      O 2916   3.513   1.995   2.920
  910HOH     H1 2917   3.505   1.906   2.954
  910HOH     H2 2918   3.463   2.049   2.982
  911HOH      O 2919   0.826   1.105   0.858
  911HOH     H1 2920   0.792   1.184   0.900
  911HOH     H2 2921   0.893   1.073   0.918
  912HOH      O 2922   0.714   0.871   1.162
  912HOH     H1 2923   0.666   0.794   1.131
  912HOH     H2 2924   0.795   0.836   1.197
  913HOH      O 2925   1.455   2.227   0.521
  913HOH     H1 2926   1.539   2.253   0.558
  913HOH     H2 2927   1.466   2.239   0.427
  914HOH      O 2928   2.994   3.654   3.109
  914HOH     H1 2929   2.961   3.606   3.033
  914HOH     H2 2930   3.080   3.688   3.081
  915HOH      O 2931   2.967   2.460   3.484
  915HOH     H1 2932   2.887   2.511   3.495
  915HOH     H2 2933   2.997   2.481   3.396
  916HOH      O 2934   3.599   1.514   0.672
  916HOH     H1 2935   3.652   1.511   0.752
  916HOH     H2 2936   3.631   1.591   0.625
  917HOH      O 2937   1.508   3.813   0.697
  917HOH     H1 2938   1.419   3.803   0.664
  917HOH     H2 2939   1.522   3.908   0.697
  918HOH      O 2940   0.892   0.874   3.908
  918HOH     H1 2941   0.983   0.901   3.905
  918HOH     H2 2942   0.842   0.955   3.920
  919HOH      O 2943   3.798   3.870   2.292
  919HOH     H1 2944   3.755   3.798   2.338
  919HOH     H2 2945   3.851   3.913   2.358
  920HOH      O 2946   0.341   2.321   1.459
  920HOH     H1 2947   0.310   2.232   1.442
  920HOH     H2 2948   0.361   2.356   1.372
  921HOH      O 2949   2.790   1.328   1.489
  921HOH     H1 2950   2.700   1.295   1.487
  921HOH     H2 2951   2.809   1.352   1.398
  922HOH      O 2952   3.139   1.984   3.792
  922HOH     H1 2953   3.191   1.999   3.871
  922HOH     H2 2954   3.122   2.072   3.758
  923HOH      O 2955   0.579   3.471   0.578
  923HOH     H1 2956   0.656   3.426   0.611
  923HOH     H2 2957   0.608   3.561   0.563
  924HOH      O 2958   1.892   2.001   2.747
  924HOH     H1 2959   1.824   1.966   2.689
  924HOH     H2 2960   1.936   2.068   2.694
  925HOH      O 2961   3.705   3.626   2.439
  925HOH     H1 2962   3.668   3.576   2.366
  925HOH     H2 2963   3.714   3.562   2.510
  926HOH      O 2964   3.539   1.378   0.040
  926HOH     H1 2965   3.452   1.391   0.002
  926HOH     H2 2966   3.522   1.344   0.127
  927HOH      O 2967   2.377   1.007   2.954
  927HOH     H1 2968   2.300   0.975   2.908
  927HOH     H2 2969   2.367   1.102   2.955
  928HOH      O 2970   2.743   1.099   3.722
  928HOH     H1 2971   2.769   1.089   3.630
  928HOH     H2 2972   2.783   1.025   3.766
  929HOH      O 2973   3.710   0.997   2.689
  929HOH     H1 2974   3.675   0.914   2.720
  929HOH     H2 2975   3.640   1.061   2.706
  930HOH      O 2976   2.386   3.984   2.122
  930HOH     H1 2977   2.378   3.889   2.121
  930HOH     H2 2978   2.310   4.014   2.172
  931HOH      O 2979   2.510   1.369   1.305
  931HOH     H1 2980   2.517   1.279   1.275
  931HOH     H2 2981   2.500   1.362   1.400
  932HOH      O 2982   2.064   0.386   1.862
  932HOH     H1 2983   2.024   0.303   1.887
  932HOH     H2 2984   2.158   0.367   1.859
  933HOH      O 2985   3.172   3.992   3.350
  933HOH     H1 2986   3.137   3.972   3.263
  933HOH     H2 2987   3.266   3.976   3.342
  934HOH      O 2988   3.996   2.182   1.983
  934HOH     H1 2989   3.924   2.172   1.921
  934HOH     H2 2990   3.959   2.233   2.055
  935HOH      O 2991   1.742   3.784   3.559
  935HOH     H1 2992   1.711   3.786   3.649
  935HOH     H2 2993   1.838   3.785   3.566
  936HOH      O 2994   1.233   1.879   2.915
  936HOH     H1 2995   1.192   1.811   2.970
  936HOH     H2 2996   1.318   1.893   2.955
  937HOH      O 2997   1.745   3.996   2.883
  937HOH     H1 2998   1.733   3.986   2.789
  937HOH     H2 2999   1.682   3.935   2.922
  938HOH      O 3000   2.696   1.848   1.826
  938HOH     H1 3001   2.782   1.883   1.801
  938HOH     H2 3002   2.647   1.844   1.744
  939HOH      O 3003   3.711   1.402   2.287
  939HOH     H1 3004   3.780   1.421   2.224
  939HOH     H2 3005   3.633   1.385   2.233
  940HOH      O 3006   0.750   3.934   0.644
  940HOH     H1 3007   0.844   3.922   0.661
  940HOH     H2 3008   0.717   3.980   0.721
  941HOH      O 3009   3.201   1.107   1.098
  941HOH     H1 3010   3.141   1.132   1.168
  941HOH     H2 3011   3.217   1.188   1.050
  942HOH      O 3012   0.831   0.218   1.575
  942HOH     H1 3013   0.846   0.311   1.592
  942HOH     H2 3014   0.798   0.184   1.659
  943HOH      O 3015   2.007   3.614   1.208
  943HOH     H1 3016   2.013   3.703   1.242
  943HOH     H2 3017   1.937   3.573   1.259
  944HOH      O 3018   0.053   1.058   2.784
  944HOH     H1 3019   0.096   1.123   2.839
  944HOH     H2 3020  -0.029   1.099   2.758
  945HOH      O 3021   2.047   1.795   1.651
  945HOH     H1 3022   2.109   1.814   1.721
  945HOH     H2 3023   2.100   1.752   1.583
  946HOH      O 3024   3.217   1.999   1.935
  946HOH     H1 3025   3.176   2.082   1.911
  946HOH     H2 3026   3.306   2.023   1.962
  947HOH      O 3027   3.901   3.581   3.817
  947HOH     H1 3028   3.852   3.558   3.896
  947HOH     H2 3029   3.835   3.582   3.747
  948HOH      O 3030   0.683   3.696   1.721
  948HOH     H1 3031   0.642   3.700   1.635
  948HOH     H2 3032   0.624   3.642   1.773
  949HOH      O 3033   1.535   1.449   2.907
  949HOH     H1 3034   1.616   1.398   2.914
  949HOH     H2 3035   1.565   1.538   2.888
  950HOH      O 3036   0.071   1.433   1.157
  950HOH     H1 3037   0.152   1.473   1.125
  950HOH     H2 3038   0.031   1.394   1.079
  951HOH      O 3039   3.461   2.381   3.889
  951HOH     H1 3040   3.550   2.353   3.870
  951HOH     H2 3041   3.407   2.333   3.826
  952HOH      O 3042   0.494   1.393   3.544
  952HOH     H1 3043   0.464   1.302   3.537
  952HOH     H2 3044   0.424   1.445   3.504
  953HOH      O 3045   3.849   2.868   3.689
  953HOH     H1 3046   3.897   2.814   3.626
  953HOH     H2 3047   3.801   2.806   3.743
  954HOH      O 3048   3.478   1.935   1.619
  954HOH     H1 3049   3.496   1.979   1.536
  954HOH     H2 3050   3.515   1.993   1.686
  955HOH      O 3051   3.288   2.586   3.360
  955HOH     H1 3052   3.319   2.612   3.447
  955HOH     H2 3053   3.283   2.490   3.364
  956HOH      O 3054   2.293   1.452   2.153
  956HOH     H1 3055   2.226   1.440   2.086
  956HOH     H2 3056   2.339   1.369   2.156
  957HOH      O 3057   2.446   0.767   3.994
  957HOH     H1 3058   2.481   0.690   4.038
  957HOH     H2 3059   2.498   0.775   3.914
  958HOH      O 3060   0.262   2.080   1.124
  958HOH     H1 3061   0.319   2.157   1.130
  958HOH     H2 3062   0.293   2.033   1.046
  959HOH      O 3063   0.993   3.880   2.183
  959HOH     H1 3064   1.068   3.898   2.240
  959HOH     H2 3065   1.020   3.912   2.097
  960HOH      O 3066   0.542   0.975   3.435
  960HOH     H1 3067   0.517   0.986   3.343
  960HOH     H2 3068   0.638   0.982   3.434
  961HOH      O 3069   1.134   0.143   2.117
  961HOH     H1 3070   1.039   0.128   2.121
  961HOH     H2 3071   1.167   0.076   2.058
  962HOH      O 3072   3.689   3.966   0.996
  962HOH     H1 3073   3.681   4.026   0.922
  962HOH     H2 3074   3.781   3.939   0.995
  963HOH      O 3075   0.340   3.778   0.510
  963HOH     H1 3076   0.283   3.851   0.485
  963HOH     H2 3077   0.341   3.721   0.433
  964HOH      O 3078   2.095   0.723   1.847
  964HOH     H1 3079   2.096   0.773   1.929
  964HOH     H2 3080   2.061   0.637   1.872
  965HOH      O 3081   0.872   0.467   2.439
  965HOH     H1 3082   0.805   0.399   2.443
  965HOH     H2 3083   0.829   0.546   2.473
  966HOH      O 3084   1.504   2.654   3.181
  966HOH     H1 3085   1.587   2.611   3.157
  966HOH     H2 3086   1.517   2.683   3.271
  967HOH      O 3087   3.458   1.019   0.029
  967HOH     H1 3088   3.403   1.096   0.042
  967HOH     H2 3089   3.525   1.048  -0.033
  968HOH      O 3090   1.575   0.438   2.948
  968HOH     H1 3091   1.613   0.359   2.986
  968HOH     H2 3092   1.649   0.480   2.903
  969HOH      O 3093   2.333   2.130   0.988
  969HOH     H1 3094   2.413   2.089   0.956
  969HOH     H2 3095   2.275   2.135   0.912
  970HOH      O 3096   1.555   0.296   0.423
  970HOH     H1 3097   1.603   0.339   0.352
  970HOH     H2 3098   1.621   0.244   0.468
  971HOH      O 3099   1.196   1.814   2.040
  971HOH     H1 3100   1.133   1.869   1.993
  971HOH     H2 3101   1.278   1.862   2.035
  972HOH      O 3102   2.964   0.585   2.031
  972HOH     H1 3103   2.919   0.517   2.080
  972HOH     H2 3104   2.969   0.659   2.091
  973HOH      O 3105   1.581   0.622   0.165
  973HOH     H1 3106   1.576   0.682   0.239
  973HOH     H2 3107   1.490   0.602   0.144
  974HOH      O 3108   2.521   0.218   1.898
  974HOH     H1 3109   2.603   0.186   1.859
  974HOH     H2 3110   2.512   0.167   1.979
  975HOH      O 3111   3.539   2.527   3.118
  975HOH     H1 3112   3.608   2.512   3.054
  975HOH     H2 3113   3.497   2.441   3.127
  976HOH      O 3114   1.517   0.918   2.676
  976HOH     H1 3115   1.479   0.883   2.595
  976HOH     H2 3116   1.458   0.890   2.745
  977HOH      O 3117   0.925   1.039   0.621
  977HOH     H1 3118   0.893   1.072   0.705
  977HOH     H2 3119   0.982   0.966   0.644
  978HOH      O 3120   1.289   3.225   2.053
  978HOH     H1 3121   1.364   3.265   2.008
  978HOH     H2 3122   1.231   3.198   1.982
  979HOH      O 3123   1.394   2.981   2.947
  979HOH     H1 3124   1.357   3.040   3.013
  979HOH     H2 3125   1.462   3.034   2.903
  980HOH      O 3126   1.011   2.374   1.624
  980HOH     H1 3127   1.046   2.438   1.563
  980HOH     H2 3128   1.088   2.334   1.664
  981HOH      O 3129   3.696   2.611   1.033
  981HOH     H1 3130   3.616   2.635   0.986
  981HOH     H2 3131   3.757   2.683   1.015
  982HOH      O 3132   0.510   2.510   3.035
  982HOH     H1 3133   0.552   2.424   3.036
  982HOH     H2 3134   0.469   2.518   3.121
  983HOH      O 3135   3.980   0.350   0.074
  983HOH     H1 3136   3.934   0.425   0.109
  983HOH     H2 3137   3.927   0.275   0.100
  984HOH      O 3138   0.990   2.801   2.856
  984HOH     H1 3139   1.032   2.830   2.775
  984HOH     H2 3140   1.020   2.711   2.868
  985HOH      O 3141   3.888   2.933   0.745
  985HOH     H1 3142   3.934   3.008   0.709
  985HOH     H2 3143   3.828   2.905   0.675
  986HOH      O 3144   2.824   0.349   3.355
  986HOH     H1 3145   2.869   0.273   3.319
  986HOH     H2 3146   2.756   0.370   3.291
  987HOH      O 3147   1.629   3.134   3.862
  987HOH     H1 3148   1.580   3.057   3.833
  987HOH     H2 3149   1.623   3.131   3.958
  988HOH      O 3150   0.078   4.026   0.184
  988HOH     H1 3151   0.077   4.050   0.091
  988HOH     H2 3152   0.063   3.932   0.184
  989HOH      O 3153   1.782   2.876  -0.034
  989HOH     H1 3154   1.749   2.958   0.002
  989HOH     H2 3155   1.776   2.814   0.040
  990HOH      O 3156   0.636   1.055   3.738
  990HOH     H1 3157   0.700   1.113   3.778
  990HOH     H2 3158   0.667   1.043   3.648
  991HOH      O 3159   3.075   3.467   2.729
  991HOH     H1 3160   2.983   3.451   2.752
  991HOH     H2 3161   3.093   3.405   2.658
  992HOH      O 3162   2.494   2.883   3.831
  992HOH     H1 3163   2.525   2.804   3.875
  992HOH     H2 3164   2.448   2.850   3.754
  993HOH      O 3165   0.839   2.506   3.695
  993HOH     H1 3166   0.857   2.575   3.630
  993HOH     H2 3167   0.920   2.500   3.745
  994HOH      O 3168   2.023   1.723   2.864
  994HOH     H1 3169   2.089   1.787   2.891
  994HOH     H2 3170   1.978   1.765   2.790
  995HOH      O 3171   2.311   1.855   0.228
  995HOH     H1 3172   2.402   1.863   0.200
  995HOH     H2 3173   2.287   1.944   0.255
  996HOH      O 3174   2.175   3.324   2.659
  996HOH     H1 3175   2.148   3.403   2.706
  996HOH     H2 3176   2.132   3.252   2.705
  997HOH      O 3177   3.666   2.282   3.229
  997HOH     H1 3178   3.593   2.245   3.180
  997HOH     H2 3179   3.722   2.322   3.163
  998HOH      O 3180   2.432   2.235   0.535
  998HOH     H1 3181   2.466   2.146   0.538
  998HOH     H2 3182   2.510   2.290   0.527
  999HOH      O 3183   0.540   2.696   3.871
  999HOH     H1 3184   0.479   2.625   3.892
  999HOH     H2 3185   0.575   2.724   3.955
 1000HOH      O 3186   1.923   0.784   0.078
 1000HOH     H1 3187   1.855   0.841   0.041
 1000HOH     H2 3188   1.915   0.796   0.172
 1001HOH      O 3189   1.713   1.840   3.393
 1001HOH     H1 3190   1.711   1.755   3.348
 1001HOH     H2 3191   1.749   1.900   3.328
 1002HOH      O 3192   0.666   3.406   3.017
 1002HOH     H1 3193   0.597   3.473   3.020
 1002HOH     H2 3194   0.624   3.331   2.974
 1003HOH      O 3195   1.144   0.457   0.937
 1003HOH     H1 3196   1.230   0.415   0.939
 1003HOH     H2 3197   1.111   0.448   1.027
 1004HOH      O 3198   3.946   3.359   1.942
 1004HOH     H1 3199   3.936   3.264   1.937
 1004HOH     H2 3200   4.022   3.372   1.999
 1005HOH      O 3201   0.049   2.472   1.745
 1005HOH     H1 3202   0.069   2.559   1.711
 1005HOH     H2 3203  -0.045   2.461   1.730
 1006HOH      O 3204   0.097   2.761   1.797
 1006HOH     H1 3205   0.084   2.853   1.771
 1006HOH     H2 3206   0.179   2.735   1.755
 1007HOH      O 3207   0.215   2.284   3.093
 1007HOH     H1 3208   0.131   2.243   3.113
 1007HOH     H2 3209   0.267   2.273   3.172
 1008HOH      O 3210   0.394   1.283   3.069
 1008HOH     H1 3211   0.373   1.363   3.021
 1008HOH     H2 3212   0.343   1.289   3.150
 1009HOH      O 3213   3.783   3.497   0.822
 1009HOH     H1 3214   3.764   3.585   0.788
 1009HOH     H2 3215   3.703   3.448   0.807
 1010HOH      O 3216   1.600   0.463   2.038
 1010HOH     H1 3217   1.575   0.382   1.993
 1010HOH     H2 3218   1.540   0.467   2.113
 1011HOH      O 3219   0.934   0.815   2.408
 1011HOH     H1 3220   1.007   0.760   2.377
 1011HOH     H2 3221   0.908   0.865   2.331
 1012HOH      O 3222   1.362   1.779   3.684
 1012HOH     H1 3223   1.335   1.858   3.732
 1012HOH     H2 3224   1.455   1.791   3.668
 1013HOH      O 3225   1.287   3.200   3.080
 1013HOH     H1 3226   1.285   3.230   3.170
 1013HOH     H2 3227   1.199   3.217   3.046
 1014HOH      O 3228   1.860   1.515   1.892
 1014HOH     H1 3229   1.822   1.507   1.804
 1014HOH     H2 3230   1.887   1.606   1.898
 1015HOH      O 3231   2.224   2.109   3.567
 1015HOH     H1 3232   2.285   2.181   3.583
 1015HOH     H2 3233   2.138   2.146   3.589
 1016HOH      O 3234   2.370   2.904   3.066
 1016HOH     H1 3235   2.412   2.959   3.001
 1016HOH     H2 3236   2.427   2.827   3.073
 1017HOH      O 3237   2.552   3.153   3.861
 1017HOH     H1 3238   2.539   3.058   3.858
 1017HOH     H2 3239   2.532   3.177   3.952
 1018HOH      O 3240   3.370   1.093   3.721
 1018HOH     H1 3241   3.347   1.036   3.647
 1018HOH     H2 3242   3.426   1.040   3.777
 1019HOH      O 3243   3.723   3.165   0.917
 1019HOH     H1 3244   3.766   3.170   0.832
 1019HOH     H2 3245   3.785   3.119   0.973
 1020HOH      O 3246   3.381   0.859   2.361
 1020HOH     H1 3247   3.449   0.804   2.322
 1020HOH     H2 3248   3.344   0.805   2.431
 1021HOH      O 3249   3.810   3.933   3.129
 1021HOH     H1 3250   3.746   3.891   3.072
 1021HOH     H2 3251   3.807   4.026   3.106
 1022HOH      O 3252   0.464   1.335   1.465
 1022HOH     H1 3253   0.380   1.290   1.464
 1022HOH     H2 3254   0.528   1.265   1.481
 1023HOH      O 3255   0.943   3.196   3.769
 1023HOH     H1 3256   0.915   3.132   3.704
 1023HOH     H2 3257   0.951   3.278   3.720
 1024HOH      O 3258   0.802   3.015   3.566
 1024HOH     H1 3259   0.847   3.023   3.482
 1024HOH     H2 3260   0.714   3.047   3.549
 1025HOH      O 3261   3.346   2.897   0.374
 1025HOH     H1 3262   3.385   2.955   0.439
 1025HOH     H2 3263   3.420   2.862   0.325
 1026HOH      O 3264   1.446   3.033   0.720
 1026HOH     H1 3265   1.451   3.039   0.816
 1026HOH     H2 3266   1.525   3.077   0.690
 1027HOH      O 3267   1.091   0.416   1.737
 1027HOH     H1 3268   1.125   0.339   1.781
 1027HOH     H2 3269   0.996   0.403   1.735
 1028HOH      O 3270   4.020   1.819   3.916
 1028HOH     H1 3271   4.078   1.832   3.991
 1028HOH     H2 3272   3.956   1.755   3.946
 1029HOH      O 3273   0.232   2.566   2.419
 1029HOH     H1 3274   0.313   2.515   2.420
 1029HOH     H2 3275   0.260   2.656   2.437
 1030HOH      O 3276   2.304   3.076   3.651
 1030HOH     H1 3277   2.252   3.155   3.665
 1030HOH     H2 3278   2.370   3.079   3.721
 1031HOH      O 3279   0.612   1.559   1.391
 1031HOH     H1 3280   0.544   1.493   1.402
 1031HOH     H2 3281   0.636   1.554   1.298
 1032HOH      O 3282   2.605   3.327   1.062
 1032HOH     H1 3283   2.591   3.351   0.971
 1032HOH     H2 3284   2.665   3.395   1.095
 1033HOH      O 3285   1.540   1.270   1.376
 1033HOH     H1 3286   1.513   1.189   1.334
 1033HOH     H2 3287   1.529   1.254   1.470
 1034HOH      O 3288   1.982   2.246   3.607
 1034HOH     H1 3289   1.918   2.210   3.667
 1034HOH     H2 3290   1.942   2.328   3.576
 1035HOH      O 3291   0.701   0.675   0.895
 1035HOH     H1 3292   0.636   0.654   0.828
 1035HOH     H2 3293   0.784   0.644   0.858
 1036HOH      O 3294   3.925   0.041   1.188
 1036HOH     H1 3295   3.917  -0.027   1.255
 1036HOH     H2 3296   3.901  -0.002   1.106
 1037HOH      O 3297   1.157   2.479   0.776
 1037HOH     H1 3298   1.134   2.473   0.868
 1037HOH     H2 3299   1.090   2.429   0.730
 1038HOH      O 3300   2.358   3.597   1.041
 1038HOH     H1 3301   2.302   3.654   0.988
 1038HOH     H2 3302   2.443   3.601   0.998
 1039HOH      O 3303   0.687   2.966   0.996
 1039HOH     H1 3304   0.782   2.958   1.005
 1039HOH     H2 3305   0.652   2.901   1.056
 1040HOH      O 3306   2.128   0.348   2.369
 1040HOH     H1 3307   2.073   0.397   2.431
 1040HOH     H2 3308   2.158   0.415   2.307
 1041HOH      O 3309   1.135   3.029   0.586
 1041HOH     H1 3310   1.141   2.936   0.565
 1041HOH     H2 3311   1.111   3.032   0.678
 1042HOH      O 3312   0.825   0.491   1.770
 1042HOH     H1 3313   0.778   0.427   1.825
 1042HOH     H2 3314   0.811   0.574   1.815
 1043HOH      O 3315   2.092   2.182   3.995
 1043HOH     H1 3316   2.062   2.218   3.912
 1043HOH     H2 3317   2.040   2.103   4.007
 1044HOH      O 3318   1.779   0.057   3.539
 1044HOH     H1 3319   1.794   0.079   3.631
 1044HOH     H2 3320   1.787  -0.038   3.536
 1045HOH      O 3321   3.877   2.222   1.014
 1045HOH     H1 3322   3.855   2.196   1.103
 1045HOH     H2 3323   3.793   2.244   0.974
 1046HOH      O 3324   3.803   0.764   0.475
 1046HOH     H1 3325   3.810   0.843   0.528
 1046HOH     H2 3326   3.885   0.717   0.490
 1047HOH      O 3327   2.559   1.967   0.546
 1047HOH     H1 3328   2.624   1.977   0.477
 1047HOH     H2 3329   2.492   1.911   0.508
 1048HOH      O 3330   3.061   0.282   3.783
 1048HOH     H1 3331   3.007   0.218   3.830
 1048HOH     H2 3332   3.058   0.253   3.692
 1049HOH      O 3333   1.964   0.672   0.864
 1049HOH     H1 3334   1.977   0.651   0.956
 1049HOH     H2 3335   1.926   0.759   0.864
 1050HOH      O 3336   2.153   3.897   0.177
 1050HOH     H1 3337   2.136   3.988   0.154
 1050HOH     H2 3338   2.240   3.879   0.141
 1051HOH      O 3339   1.327   2.281   2.988
 1051HOH     H1 3340   1.327   2.236   3.072
 1051HOH     H2 3341   1.260   2.236   2.936
 1052HOH      O 3342   1.939   2.424   3.882
 1052HOH     H1 3343   1.878   2.427   3.808
 1052HOH     H2 3344   2.025   2.420   3.841
 1053HOH      O 3345   0.314   3.328   3.555
 1053HOH     H1 3346   0.332   3.336   3.461
 1053HOH     H2 3347   0.383   3.379   3.596
 1054HOH      O 3348   3.728   1.470   3.584
 1054HOH     H1 3349   3.823   1.456   3.589
 1054HOH     H2 3350   3.690   1.386   3.610
 1055HOH      O 3351   1.752   0.224   4.010
 1055HOH     H1 3352   1.731   0.276   4.088
 1055HOH     H2 3353   1.832   0.263   3.975
 1056HOH      O 3354   0.290   2.193   2.439
 1056HOH     H1 3355   0.220   2.258   2.429
 1056HOH     H2 3356   0.352   2.213   2.369
 1057HOH      O 3357   3.946   2.409   3.232
 1057HOH     H1 3358   3.976   2.319   3.244
 1057HOH     H2 3359   3.875   2.402   3.168
 1058HOH      O 3360   3.071   1.060   2.992
 1058HOH     H1 3361   3.003   1.108   3.040
 1058HOH     H2 3362   3.034   0.973   2.979
 1059HOH      O 3363   2.893   1.438   2.039
 1059HOH     H1 3364   2.920   1.358   2.083
 1059HOH     H2 3365   2.961   1.452   1.972
 1060HOH      O 3366   1.808   1.107   1.077
 1060HOH     H1 3367   1.791   1.189   1.032
 1060HOH     H2 3368   1.807   1.130   1.170
 1061HOH      O 3369   1.189   1.453   3.181
 1061HOH     H1 3370   1.120   1.433   3.244
 1061HOH     H2 3371   1.265   1.405   3.213
 1062HOH      O 3372   0.269   2.345   3.381
 1062HOH     H1 3373   0.202   2.413   3.371
 1062HOH     H2 3374   0.350   2.387   3.354
 1063HOH      O 3375   0.760   3.792   2.347
 1063HOH     H1 3376   0.844   3.813   2.308
 1063HOH     H2 3377   0.767   3.701   2.374
 1064HOH      O 3378   1.330   0.275   1.432
 1064HOH     H1 3379   1.392   0.248   1.500
 1064HOH     H2 3380   1.245   0.278   1.477
 1065HOH      O 3381   0.697   2.560   1.912
 1065HOH     H1 3382   0.768   2.542   1.974
 1065HOH     H2 3383   0.618   2.556   1.965
 1066HOH      O 3384   0.237   3.086   3.676
 1066HOH     H1 3385   0.294   3.033   3.619
 1066HOH     H2 3386   0.257   3.177   3.652
 1067HOH      O 3387   0.184   3.037   1.881
 1067HOH     H1 3388   0.206   3.076   1.965
 1067HOH     H2 3389   0.093   3.061   1.866
 1068HOH      O 3390   3.769   0.415   3.009
 1068HOH     H1 3391   3.720   0.497   3.005
 1068HOH     H2 3392   3.860   0.442   3.022
 1069HOH      O 3393   3.873   1.494   0.407
 1069HOH     H1 3394   3.790   1.535   0.432
 1069HOH     H2 3395   3.922   1.564   0.365
 1070HOH      O 3396   0.863   2.887   1.949
 1070HOH     H1 3397   0.902   2.848   2.027
 1070HOH     H2 3398   0.925   2.868   1.879
 1071HOH      O 3399   3.034   2.724   2.986
 1071HOH     H1 3400   3.058   2.764   2.902
 1071HOH     H2 3401   3.111   2.672   3.011
 1072HOH      O 3402   3.469   2.355   0.426
 1072HOH     H1 3403   3.379   2.330   0.404
 1072HOH     H2 3404   3.511   2.273   0.450
 1073HOH      O 3405   2.361   2.386   2.548
 1073HOH     H1 3406   2.331   2.295   2.552
 1073HOH     H2 3407   2.310   2.430   2.615
 1074HOH      O 3408   0.930   2.811   2.205
 1074HOH     H1 3409   1.025   2.808   2.220
 1074HOH     H2 3410   0.910   2.728   2.162
 1075HOH      O 3411   2.744   0.816   2.340
 1075HOH     H1 3412   2.820   0.802   2.284
 1075HOH     H2 3413   2.764   0.768   2.421
 1076HOH      O 3414   2.419   2.314   3.549
 1076HOH     H1 3415   2.479   2.348   3.483
 1076HOH     H2 3416   2.421   2.379   3.619
 1077HOH      O 3417   3.119   3.665   3.982
 1077HOH     H1 3418   3.144   3.696   4.069
 1077HOH     H2 3419   3.190   3.607   3.955
 1078HOH      O 3420   1.566   1.023   1.605
 1078HOH     H1 3421   1.497   1.077   1.643
 1078HOH     H2 3422   1.528   0.987   1.525
 1079HOH      O 3423   0.954   3.002   0.227
 1079HOH     H1 3424   0.997   3.088   0.223
 1079HOH     H2 3425   1.022   2.940   0.203
 1080HOH      O 3426   0.389   3.391   3.234
 1080HOH     H1 3427   0.426   3.469   3.193
 1080HOH     H2 3428   0.311   3.371   3.183
 1081HOH      O 3429   3.719   3.494   3.285
 1081HOH     H1 3430   3.708   3.404   3.317
 1081HOH     H2 3431   3.640   3.540   3.313
 1082HOH      O 3432   1.470   1.490   0.661
 1082HOH     H1 3433   1.486   1.557   0.727
 1082HOH     H2 3434   1.515   1.413   0.694
 1083HOH      O 3435   2.399   0.681   2.519
 1083HOH     H1 3436   2.414   0.775   2.523
 1083HOH     H2 3437   2.428   0.655   2.431
 1084HOH      O 3438   0.147   0.842   1.063
 1084HOH     H1 3439   0.108   0.859   0.978
 1084HOH     H2 3440   0.235   0.809   1.044
 1085HOH      O 3441   1.912   1.500   2.404
 1085HOH     H1 3442   2.004   1.478   2.416
 1085HOH     H2 3443   1.881   1.435   2.340
 1086HOH      O 3444   2.897   0.653   1.782
 1086HOH     H1 3445   2.935   0.741   1.774
 1086HOH     H2 3446   2.909   0.631   1.875
 1087HOH      O 3447   3.053   3.340   2.456
 1087HOH     H1 3448   3.109   3.378   2.388
 1087HOH     H2 3449   3.000   3.275   2.410
 1088HOH      O 3450   2.076   3.384   3.180
 1088HOH     H1 3451   2.083   3.315   3.246
 1088HOH     H2 3452   2.126   3.457   3.216
 1089HOH      O 3453   2.570   3.653   2.999
 1089HOH     H1 3454   2.570   3.736   3.047
 1089HOH     H2 3455   2.661   3.622   3.004
 1090HOH      O 3456   3.182   1.751   1.022
 1090HOH     H1 3457   3.097   1.715   0.997
 1090HOH     H2 3458   3.175   1.845   1.003
 1091HOH      O 3459   0.396   0.124   2.427
 1091HOH     H1 3460   0.442   0.040   2.423
 1091HOH     H2 3461   0.394   0.146   2.520
 1092HOH      O 3462   0.871   0.633   2.185
 1092HOH     H1 3463   0.961   0.651   2.213
 1092HOH     H2 3464   0.824   0.613   2.266
 1093HOH      O 3465   1.942   2.478   1.391
 1093HOH     H1 3466   1.892   2.516   1.463
 1093HOH     H2 3467   1.877   2.429   1.340
 1094HOH      O 3468   4.017   1.431   3.333
 1094HOH     H1 3469   3.943   1.491   3.335
 1094HOH     H2 3470   4.087   1.479   3.289
 1095HOH      O 3471   2.920   1.011   1.989
 1095HOH     H1 3472   2.912   1.009   1.893
 1095HOH     H2 3473   2.957   0.926   2.012
 1096HOH      O 3474   3.291   3.314   0.179
 1096HOH     H1 3475   3.344   3.388   0.209
 1096HOH     H2 3476   3.267   3.267   0.259
 1097HOH      O 3477   3.526   3.617   3.841
 1097HOH     H1 3478   3.554   3.652   3.925
 1097HOH     H2 3479   3.468   3.545   3.862
 1098HOH      O 3480   0.591   0.147   1.087
 1098HOH     H1 3481   0.646   0.136   1.164
 1098HOH     H2 3482   0.594   0.241   1.068
 1099HOH      O 3483   2.643   3.719   2.272
 1099HOH     H1 3484   2.640   3.707   2.177
 1099HOH     H2 3485   2.736   3.734   2.291
 1100HOH      O 3486   0.599   0.305   2.849
 1100HOH     H1 3487   0.625   0.299   2.941
 1100HOH     H2 3488   0.651   0.377   2.814
 1101HOH      O 3489   1.202   3.074   1.674
 1101HOH     H1 3490   1.226   3.164   1.649
 1101HOH     H2 3491   1.272   3.020   1.637
 1102HOH      O 3492   1.991   3.294   0.127
 1102HOH     H1 3493   1.906   3.296   0.172
 1102HOH     H2 3494   1.970   3.318   0.037
 1103HOH      O 3495   1.409   0.484   2.747
 1103HOH     H1 3496   1.366   0.398   2.743
 1103HOH     H2 3497   1.473   0.475   2.817
 1104HOH      O 3498   1.967   2.229   0.676
 1104HOH     H1 3499   1.878   2.196   0.689
 1104HOH     H2 3500   1.972   2.248   0.582
 1105HOH      O 3501   3.277   1.668   3.457
 1105HOH     H1 3502   3.271   1.709   3.544
 1105HOH     H2 3503   3.357   1.615   3.462
 1106HOH      O 3504   1.193   2.790   3.528
 1106HOH     H1 3505   1.224   2.716   3.475
 1106HOH     H2 3506   1.205   2.866   3.471
 1107HOH      O 3507   0.541   1.757   1.769
 1107HOH     H1 3508   0.515   1.667   1.748
 1107HOH     H2 3509   0.512   1.808   1.694
 1108HOH      O 3510   3.514   2.228   0.113
 1108HOH     H1 3511   3.519   2.207   0.020
 1108HOH     H2 3512   3.421   2.219   0.135
 1109HOH      O 3513   0.059   0.413   1.929
 1109HOH     H1 3514   0.048   0.327   1.970
 1109HOH     H2 3515  -0.022   0.460   1.949
 1110HOH      O 3516   2.362   0.549   3.762
 1110HOH     H1 3517   2.456   0.537   3.773
 1110HOH     H2 3518   2.354   0.623   3.702
 1111HOH      O 3519   3.632   2.464   2.019
 1111HOH     H1 3520   3.570   2.393   2.005
 1111HOH     H2 3521   3.627   2.482   2.113
 1112HOH      O 3522   3.405   1.723   0.419
 1112HOH     H1 3523   3.368   1.724   0.507
 1112HOH     H2 3524   3.358   1.793   0.373
 1113HOH      O 3525   1.890   3.659   3.181
 1113HOH     H1 3526   1.796   3.675   3.166
 1113HOH     H2 3527   1.935   3.721   3.124
 1114HOH      O 3528   0.444   2.999   3.504
 1114HOH     H1 3529   0.469   3.032   3.418
 1114HOH     H2 3530   0.471   2.907   3.504
 1115HOH      O 3531   0.394   0.231   2.670
 1115HOH     H1 3532   0.436   0.303   2.717
 1115HOH     H2 3533   0.358   0.174   2.738
 1116HOH      O 3534   1.017   0.022   3.184
 1116HOH     H1 3535   1.103  -0.007   3.214
 1116HOH     H2 3536   1.024   0.026   3.089
 1117HOH      O 3537   1.478   1.318   2.447
 1117HOH     H1 3538   1.406   1.362   2.493
 1117HOH     H2 3539   1.551   1.322   2.508
 1118HOH      O 3540   1.043   2.989   2.571
 1118HOH     H1 3541   1.125   2.942   2.581
 1118HOH     H2 3542   1.055   3.069   2.624
 1119HOH      O 3543   0.831   1.233   2.318
 1119HOH     H1 3544   0.864   1.323   2.322
 1119HOH     H2 3545   0.756   1.232   2.378
 1120HOH      O 3546   0.566   0.023   3.059
 1120HOH     H1 3547   0.621   0.092   3.095
 1120HOH     H2 3548   0.551  -0.037   3.133
 1121HOH      O 3549   3.545   2.070   3.877
 1121HOH     H1 3550   3.473   2.016   3.909
 1121HOH     H2 3551   3.616   2.008   3.859
 1122HOH      O 3552   0.661   3.886   1.309
 1122HOH     H1 3553   0.644   3.817   1.245
 1122HOH     H2 3554   0.579   3.893   1.358
 1123HOH      O 3555   2.908   3.955   0.086
 1123HOH     H1 3556   2.883   3.876   0.038
 1123HOH     H2 3557   2.833   3.972   0.144
 1124HOH      O 3558   2.690   3.078   1.162
 1124HOH     H1 3559   2.642   3.077   1.245
 1124HOH     H2 3560   2.651   3.149   1.112
 1125HOH      O 3561   0.930   3.756   1.409
 1125HOH     H1 3562   0.838   3.761   1.435
 1125HOH     H2 3563   0.944   3.663   1.391
 1126HOH      O 3564   0.114   2.654   0.035
 1126HOH     H1 3565   0.183   2.671   0.099
 1126HOH     H2 3566   0.101   2.738  -0.009
 1127HOH      O 3567   2.800   2.074   3.452
 1127HOH     H1 3568   2.706   2.076   3.438
 1127HOH     H2 3569   2.811   2.065   3.546
 1128HOH      O 3570   2.069   3.849   1.988
 1128HOH     H1 3571   2.106   3.891   2.066
 1128HOH     H2 3572   2.143   3.807   1.946
 1129HOH      O 3573   1.195   2.191   0.671
 1129HOH     H1 3574   1.245   2.163   0.747
 1129HOH     H2 3575   1.250   2.256   0.628
 1130HOH      O 3576   3.508   2.102   1.837
 1130HOH     H1 3577   3.531   2.053   1.915
 1130HOH     H2 3578   3.470   2.183   1.870
 1131HOH      O 3579   3.205   3.064   2.514
 1131HOH     H1 3580   3.174   3.081   2.603
 1131HOH     H2 3581   3.161   3.129   2.460
 1132HOH      O 3582   1.087   1.381   2.145
 1132HOH     H1 3583   1.156   1.408   2.084
 1132HOH     H2 3584   1.083   1.453   2.209
 1133HOH      O 3585   0.437   3.770   0.766
 1133HOH     H1 3586   0.426   3.731   0.679
 1133HOH     H2 3587   0.363   3.829   0.776
 1134HOH      O 3588   2.497   0.519   1.645
 1134HOH     H1 3589   2.573   0.480   1.687
 1134HOH     H2 3590   2.497   0.610   1.674
 1135HOH      O 3591   1.876   0.471   3.211
 1135HOH     H1 3592   1.862   0.416   3.288
 1135HOH     H2 3593   1.788   0.501   3.187
 1136HOH      O 3594   2.712   1.818   2.380
 1136HOH     H1 3595   2.626   1.851   2.404
 1136HOH     H2 3596   2.700   1.782   2.292
 1137HOH      O 3597   1.313   2.538   2.731
 1137HOH     H1 3598   1.331   2.617   2.782
 1137HOH     H2 3599   1.323   2.565   2.640
 1138HOH      O 3600   1.805   1.644   0.545
 1138HOH     H1 3601   1.860   1.574   0.581
 1138HOH     H2 3602   1.864   1.692   0.486
 1139HOH      O 3603   3.654   1.877   2.241
 1139HOH     H1 3604   3.707   1.910   2.313
 1139HOH     H2 3605   3.616   1.796   2.274
 1140HOH      O 3606   1.961   0.369   3.932
 1140HOH     H1 3607   1.997   0.369   4.021
 1140HOH     H2 3608   1.986   0.455   3.897
 1141HOH      O 3609   2.824   0.401   3.890
 1141HOH     H1 3610   2.878   0.322   3.889
 1141HOH     H2 3611   2.846   0.444   3.973
 1142HOH      O 3612   2.867   0.305   0.265
 1142HOH     H1 3613   2.862   0.380   0.205
 1142HOH     H2 3614   2.930   0.332   0.331
 1143HOH      O 3615   2.762   1.573   3.567
 1143HOH     H1 3616   2.797   1.502   3.621
 1143HOH     H2 3617   2.715   1.628   3.629
 1144HOH      O 3618   3.196   3.245   0.439
 1144HOH     H1 3619   3.267   3.191   0.472
 1144HOH     H2 3620   3.120   3.187   0.437
 1145HOH      O 3621   1.760   1.512   0.787
 1145HOH     H1 3622   1.843   1.486   0.748
 1145HOH     H2 3623   1.746   1.601   0.756
 1146HOH      O 3624   0.797   1.084   3.510
 1146HOH     H1 3625   0.796   1.152   3.443
 1146HOH     H2 3626   0.889   1.075   3.535
 1147HOH      O 3627   3.808   2.825   2.508
 1147HOH     H1 3628   3.844   2.750   2.460
 1147HOH     H2 3629   3.723   2.795   2.539
 1148HOH      O 3630   0.328   1.547   2.975
 1148HOH     H1 3631   0.287   1.619   2.928
 1148HOH     H2 3632   0.421   1.552   2.950
 1149HOH      O 3633   2.706   0.208   2.525
 1149HOH     H1 3634   2.668   0.287   2.562
 1149HOH     H2 3635   2.647   0.138   2.553
 1150HOH      O 3636   3.853   0.936   0.015
 1150HOH     H1 3637   3.772   0.884   0.011
 1150HOH     H2 3638   3.871   0.944   0.109
 1151HOH      O 3639   0.530   2.854   2.017
 1151HOH     H1 3640   0.595   2.923   2.009
 1151HOH     H2 3641   0.529   2.813   1.930
 1152HOH      O 3642   2.917   2.025   3.197
 1152HOH     H1 3643   2.861   2.004   3.273
 1152HOH     H2 3644   2.870   1.988   3.122
 1153HOH      O 3645   3.140   3.117   3.299
 1153HOH     H1 3646   3.050   3.083   3.301
 1153HOH     H2 3647   3.193   3.046   3.337
 1154HOH      O 3648   0.308   3.393   0.642
 1154HOH     H1 3649   0.373   3.452   0.603
 1154HOH     H2 3650   0.241   3.451   0.677
 1155HOH      O 3651   2.047   2.127   3.271
 1155HOH     H1 3652   2.071   2.089   3.187
 1155HOH     H2 3653   2.112   2.196   3.286
 1156HOH      O 3654   2.383   0.489   3.087
 1156HOH     H1 3655   2.295   0.485   3.124
 1156HOH     H2 3656   2.381   0.563   3.028
 1157HOH      O 3657   2.069   1.006   2.507
 1157HOH     H1 3658   1.997   1.061   2.477
 1157HOH     H2 3659   2.139   1.020   2.444
 1158HOH      O 3660   2.249   0.536   0.202
 1158HOH     H1 3661   2.256   0.609   0.263
 1158HOH     H2 3662   2.335   0.532   0.160
 1159HOH      O 3663   1.126   1.341   1.654
 1159HOH     H1 3664   1.095   1.286   1.726
 1159HOH     H2 3665   1.122   1.430   1.689
 1160HOH      O 3666   1.270   1.698   0.574
 1160HOH     H1 3667   1.300   1.788   0.562
 1160HOH     H2 3668   1.351   1.646   0.575
 1161HOH      O 3669   2.200   0.768   1.588
 1161HOH     H1 3670   2.181   0.736   1.677
 1161HOH     H2 3671   2.116   0.760   1.542
 1162HOH      O 3672   3.161   3.077   0.755
 1162HOH     H1 3673   3.164   3.070   0.850
 1162HOH     H2 3674   3.074   3.111   0.736
 1163HOH      O 3675   3.530   2.074   0.522
 1163HOH     H1 3676   3.614   2.048   0.483
 1163HOH     H2 3677   3.502   1.997   0.571
 1164HOH      O 3678   2.973   2.145   1.139
 1164HOH     H1 3679   2.888   2.101   1.131
 1164HOH     H2 3680   3.025   2.111   1.065
 1165HOH      O 3681   3.196   2.998   3.954
 1165HOH     H1 3682   3.178   3.091   3.963
 1165HOH     H2 3683   3.292   2.992   3.956
 1166HOH      O 3684   1.451   1.752   2.596
 1166HOH     H1 3685   1.393   1.689   2.553
 1166HOH     H2 3686   1.392   1.822   2.625
 1167HOH      O 3687   1.712   0.737   0.980
 1167HOH     H1 3688   1.756   0.692   1.052
 1167HOH     H2 3689   1.620   0.713   0.990
 1168HOH      O 3690   1.416   3.375   3.709
 1168HOH     H1 3691   1.360   3.354   3.635
 1168HOH     H2 3692   1.372   3.448   3.752
 1169HOH      O 3693   2.454   3.661   3.343
 1169HOH     H1 3694   2.433   3.668   3.436
 1169HOH     H2 3695   2.503   3.580   3.334
 1170HOH      O 3696   1.554   0.811   0.580
 1170HOH     H1 3697   1.517   0.729   0.611
 1170HOH     H2 3698   1.516   0.823   0.493
 1171HOH      O 3699   0.845   1.461   1.756
 1171HOH     H1 3700   0.894   1.381   1.777
 1171HOH     H2 3701   0.816   1.494   1.841
 1172HOH      O 3702   0.435   1.941   3.258
 1172HOH     H1 3703   0.487   1.951   3.338
 1172HOH     H2 3704   0.488   1.984   3.190
 1173HOH      O 3705   1.293   0.766   1.777
 1173HOH     H1 3706   1.388   0.764   1.789
 1173HOH     H2 3707   1.259   0.712   1.848
 1174HOH      O 3708   2.562   2.707   3.117
 1174HOH     H1 3709   2.645   2.690   3.072
 1174HOH     H2 3710   2.505   2.635   3.092
 1175HOH      O 3711   1.136   3.674   3.208
 1175HOH     H1 3712   1.074   3.704   3.141
 1175HOH     H2 3713   1.171   3.755   3.245
 1176HOH      O 3714   2.334   0.393   1.817
 1176HOH     H1 3715   2.397   0.337   1.862
 1176HOH     H2 3716   2.382   0.427   1.741
 1177HOH      O 3717   0.555   0.640   1.355
 1177HOH     H1 3718   0.509   0.557   1.370
 1177HOH     H2 3719   0.647   0.619   1.370
 1178HOH      O 3720   1.823   0.842   2.494
 1178HOH     H1 3721   1.822   0.902   2.569
 1178HOH     H2 3722   1.901   0.788   2.508
 1179HOH      O 3723   1.690   2.375   0.520
 1179HOH     H1 3724   1.655   2.408   0.438
 1179HOH     H2 3725   1.782   2.358   0.501
 1180HOH      O 3726   0.936   3.573   1.789
 1180HOH     H1 3727   0.941   3.502   1.853
 1180HOH     H2 3728   0.845   3.602   1.792
 1181HOH      O 3729   2.538   0.649   2.284
 1181HOH     H1 3730   2.608   0.712   2.302
 1181HOH     H2 3731   2.565   0.605   2.204
 1182HOH      O 3732   3.266   1.625   2.399
 1182HOH     H1 3733   3.246   1.554   2.338
 1182HOH     H2 3734   3.235   1.592   2.484
 1183HOH      O 3735   1.320   0.471   0.396
 1183HOH     H1 3736   1.347   0.494   0.485
 1183HOH     H2 3737   1.390   0.415   0.363
 1184HOH      O 3738   0.443   2.117   0.289
 1184HOH     H1 3739   0.474   2.206   0.269
 1184HOH     H2 3740   0.415   2.082   0.204
 1185HOH      O 3741   3.557   3.261   2.045
 1185HOH     H1 3742   3.614   3.331   2.077
 1185HOH     H2 3743   3.529   3.215   2.123
 1186HOH      O 3744   0.592   0.307   0.186
 1186HOH     H1 3745   0.570   0.380   0.242
 1186HOH     H2 3746   0.573   0.337   0.097
 1187HOH      O 3747   2.780   3.106   3.760
 1187HOH     H1 3748   2.693   3.124   3.798
 1187HOH     H2 3749   2.821   3.192   3.754
 1188HOH      O 3750   1.656   1.979   2.943
 1188HOH     H1 3751   1.747   1.987   2.913
 1188HOH     H2 3752   1.624   2.070   2.945
 1189HOH      O 3753   0.673   2.923   1.386
 1189HOH     H1 3754   0.758   2.965   1.372
 1189HOH     H2 3755   0.658   2.930   1.480
 1190HOH      O 3756   1.681   1.729   2.765
 1190HOH     H1 3757   1.610   1.739   2.701
 1190HOH     H2 3758   1.689   1.815   2.806
 1191HOH      O 3759   2.162   2.819   0.729
 1191HOH     H1 3760   2.189   2.814   0.820
 1191HOH     H2 3761   2.168   2.912   0.707
 1192HOH      O 3762   0.701   0.403   1.309
 1192HOH     H1 3763   0.709   0.315   1.347
 1192HOH     H2 3764   0.633   0.394   1.242
 1193HOH      O 3765   3.283   2.592   0.758
 1193HOH     H1 3766   3.230   2.656   0.709
 1193HOH     H2 3767   3.370   2.597   0.719
 1194HOH      O 3768   0.117   0.561   0.603
 1194HOH     H1 3769   0.061   0.612   0.662
 1194HOH     H2 3770   0.198   0.612   0.597
 1195HOH      O 3771   0.166   1.530   3.707
 1195HOH     H1 3772   0.106   1.496   3.640
 1195HOH     H2 3773   0.114   1.534   3.787
 1196HOH      O 3774   4.003   0.728   2.562
 1196HOH     H1 3775   4.001   0.773   2.647
 1196HOH     H2 3776   3.966   0.791   2.501
 1197HOH      O 3777   0.791   0.154   3.903
 1197HOH     H1 3778   0.770   0.247   3.892
 1197HOH     H2 3779   0.862   0.154   3.967
 1198HOH      O 3780   3.981   4.042   2.502
 1198HOH     H1 3781   4.076   4.027   2.502
 1198HOH     H2 3782   3.946   3.971   2.555
 1199HOH      O 3783   0.856   3.525   0.274
 1199HOH     H1 3784   0.929   3.466   0.255
 1199HOH     H2 3785   0.859   3.538   0.368
 1200HOH      O 3786   1.083   1.734   3.396
 1200HOH     H1 3787   1.163   1.687   3.419
 1200HOH     H2 3788   1.105   1.826   3.406
 1201HOH      O 3789   1.821   0.352   0.975
 1201HOH     H1 3790   1.785   0.397   0.898
 1201HOH     H2 3791   1.784   0.398   1.050
 1202HOH      O 3792   0.116   0.707   1.894
 1202HOH     H1 3793   0.065   0.684   1.817
 1202HOH     H2 3794   0.126   0.624   1.941
 1203HOH      O 3795   0.858   1.149   3.874
 1203HOH     H1 3796   0.920   1.140   3.946
 1203HOH     H2 3797   0.821   1.236   3.885
 1204HOH      O 3798   0.589   0.756   3.179
 1204HOH     H1 3799   0.576   0.754   3.084
 1204HOH     H2 3800   0.600   0.849   3.199
 1205HOH      O 3801   2.727   1.958   0.337
 1205HOH     H1 3802   2.809   1.966   0.386
 1205HOH     H2 3803   2.753   1.916   0.255
 1206HOH      O 3804   3.210   2.257   2.913
 1206HOH     H1 3805   3.219   2.274   2.819
 1206HOH     H2 3806   3.140   2.316   2.941
 1207HOH      O 3807   1.056   0.720   0.438
 1207HOH     H1 3808   1.045   0.632   0.403
 1207HOH     H2 3809   0.974   0.738   0.484
 1208HOH      O 3810   3.636   2.430   2.376
 1208HOH     H1 3811   3.654   2.455   2.466
 1208HOH     H2 3812   3.701   2.363   2.355
 1209HOH      O 3813   1.191   0.113   0.897
 1209HOH     H1 3814   1.114   0.159   0.933
 1209HOH     H2 3815   1.192   0.029   0.942
 1210HOH      O 3816   3.578   2.679   2.318
 1210HOH     H1 3817   3.503   2.692   2.376
 1210HOH     H2 3818   3.600   2.587   2.327
 1211HOH      O 3819   1.646   3.226   0.651
 1211HOH     H1 3820   1.666   3.267   0.735
 1211HOH     H2 3821   1.706   3.268   0.589
 1212HOH      O 3822   1.756   0.855   1.235
 1212HOH     H1 3823   1.763   0.949   1.252
 1212HOH     H2 3824   1.768   0.847   1.141
 1213HOH      O 3825   1.708   3.952   2.139
 1213HOH     H1 3826   1.768   3.977   2.209
 1213HOH     H2 3827   1.701   3.857   2.146
 1214HOH      O 3828   3.319   1.527   1.641
 1214HOH     H1 3829   3.281   1.591   1.702
 1214HOH     H2 3830   3.278   1.548   1.557
 1215HOH      O 3831   0.240   0.371   2.382
 1215HOH     H1 3832   0.209   0.296   2.330
 1215HOH     H2 3833   0.250   0.335   2.471
 1216HOH      O 3834   0.410   0.334   0.560
 1216HOH     H1 3835   0.393   0.376   0.476
 1216HOH     H2 3836   0.475   0.267   0.540
 1217HOH      O 3837   0.929   3.579   0.534
 1217HOH     H1 3838   0.976   3.546   0.611
 1217HOH     H2 3839   0.975   3.660   0.512
 1218HOH      O 3840   3.618   3.206   0.192
 1218HOH     H1 3841   3.566   3.204   0.111
 1218HOH     H2 3842   3.649   3.116   0.202
 1219HOH      O 3843   2.752   0.498   1.029
 1219HOH     H1 3844   2.699   0.572   1.001
 1219HOH     H2 3845   2.725   0.426   0.972
 1220HOH      O 3846   3.033   0.272   1.464
 1220HOH     H1 3847   2.999   0.190   1.499
 1220HOH     H2 3848   3.025   0.334   1.536
 1221HOH      O 3849   3.584   1.663   3.810
 1221HOH     H1 3850   3.556   1.598   3.745
 1221HOH     H2 3851   3.593   1.744   3.759
 1222HOH      O 3852   0.037   1.125   0.123
 1222HOH     H1 3853   0.024   1.046   0.175
 1222HOH     H2 3854  -0.011   1.193   0.170
 1223HOH      O 3855   0.096   0.933   2.322
 1223HOH     H1 3856   0.032   1.003   2.333
 1223HOH     H2 3857   0.043   0.853   2.322
 1224HOH      O 3858   1.534   0.243   2.313
 1224HOH     H1 3859   1.541   0.202   2.226
 1224HOH     H2 3860   1.579   0.326   2.304
 1225HOH      O 3861   1.258   0.617   3.692
 1225HOH     H1 3862   1.192   0.640   3.627
 1225HOH     H2 3863   1.254   0.522   3.698
 1226HOH      O 3864   0.371   1.012   2.913
 1226HOH     H1 3865   0.318   1.008   2.834
 1226HOH     H2 3866   0.344   1.094   2.955
 1227HOH      O 3867   1.586   1.032   0.241
 1227HOH     H1 3868   1.641   1.101   0.279
 1227HOH     H2 3869   1.631   0.951   0.263
 1228HOH      O 3870   0.685   0.272   3.124
 1228HOH     H1 3871   0.773   0.248   3.153
 1228HOH     H2 3872   0.685   0.368   3.125
 1229HOH      O 3873   0.904   3.712   0.950
 1229HOH     H1 3874   0.841   3.767   0.903
 1229HOH     H2 3875   0.984   3.717   0.897
 1230HOH      O 3876   1.008   3.106   1.850
 1230HOH     H1 3877   1.041   3.056   1.925
 1230HOH     H2 3878   1.062   3.076   1.776
 1231HOH      O 3879   3.897   3.093   3.510
 1231HOH     H1 3880   3.993   3.086   3.503
 1231HOH     H2 3881   3.872   3.018   3.564
 1232HOH      O 3882   1.623   3.796   3.314
 1232HOH     H1 3883   1.655   3.806   3.403
 1232HOH     H2 3884   1.549   3.735   3.322
 1233HOH      O 3885   1.875   1.817   0.338
 1233HOH     H1 3886   1.796   1.785   0.294
 1233HOH     H2 3887   1.943   1.813   0.271
 1234HOH      O 3888   2.230   1.272   4.007
 1234HOH     H1 3889   2.195   1.228   3.929
 1234HOH     H2 3890   2.259   1.200   4.064
 1235HOH      O 3891   0.700   2.144   2.238
 1235HOH     H1 3892   0.617   2.188   2.227
 1235HOH     H2 3893   0.677   2.055   2.265
 1236HOH      O 3894   3.334   2.662   1.025
 1236HOH     H1 3895   3.386   2.590   1.062
 1236HOH     H2 3896   3.302   2.629   0.941
 1237HOH      O 3897   0.773   0.062   3.471
 1237HOH     H1 3898   0.687   0.043   3.433
 1237HOH     H2 3899   0.762   0.147   3.513
 1238HOH      O 3900   0.136   1.214   2.483
 1238HOH     H1 3901   0.170   1.282   2.541
 1238HOH     H2 3902   0.043   1.210   2.502
 1239HOH      O 3903   3.580   0.037   3.966
 1239HOH     H1 3904   3.641  -0.000   3.902
 1239HOH     H2 3905   3.564   0.126   3.935
 1240HOH      O 3906   0.460   1.494   1.104
 1240HOH     H1 3907   0.394   1.431   1.135
 1240HOH     H2 3908   0.540   1.442   1.095
 1241HOH      O 3909   1.201   0.542   3.256
 1241HOH     H1 3910   1.162   0.469   3.207
 1241HOH     H2 3911   1.295   0.536   3.238
 1242HOH      O 3912   3.262   0.694   2.831
 1242HOH     H1 3913   3.255   0.683   2.737
 1242HOH     H2 3914   3.187   0.748   2.856
 1243HOH      O 3915   1.372   3.571   2.770
 1243HOH     H1 3916   1.367   3.479   2.798
 1243HOH     H2 3917   1.329   3.572   2.685
 1244HOH      O 3918   2.367   1.534   0.239
 1244HOH     H1 3919   2.328   1.488   0.313
 1244HOH     H2 3920   2.349   1.626   0.256
 1245HOH      O 3921   2.931   1.861   0.819
 1245HOH     H1 3922   2.952   1.824   0.733
 1245HOH     H2 3923   2.842   1.834   0.837
 1246HOH      O 3924   2.161   3.304   3.735
 1246HOH     H1 3925   2.203   3.368   3.792
 1246HOH     H2 3926   2.070   3.302   3.764
 1247HOH      O 3927   0.930   0.818   1.366
 1247HOH     H1 3928   0.888   0.838   1.450
 1247HOH     H2 3929   1.021   0.844   1.378
 1248HOH      O 3930   3.643   3.829   1.406
 1248HOH     H1 3931   3.561   3.779   1.402
 1248HOH     H2 3932   3.625   3.908   1.355
 1249HOH      O 3933   2.072   3.854   0.619
 1249HOH     H1 3934   2.036   3.799   0.550
 1249HOH     H2 3935   2.134   3.912   0.573
 1250HOH      O 3936   2.774   1.934   2.989
 1250HOH     H1 3937   2.687   1.975   2.985
 1250HOH     H2 3938   2.756   1.840   2.982
 1251HOH      O 3939   3.877   0.178   3.074
 1251HOH     H1 3940   3.960   0.202   3.116
 1251HOH     H2 3941   3.838   0.261   3.049
 1252HOH      O 3942   1.109   0.648   1.959
 1252HOH     H1 3943   1.115   0.552   1.965
 1252HOH     H2 3944   1.015   0.665   1.946
 1253HOH      O 3945   1.214   3.460   1.298
 1253HOH     H1 3946   1.247   3.550   1.307
 1253HOH     H2 3947   1.189   3.435   1.387
 1254HOH      O 3948   2.264   3.617   2.655
 1254HOH     H1 3949   2.173   3.637   2.679
 1254HOH     H2 3950   2.317   3.671   2.714
 1255HOH      O 3951   3.140   0.717   3.461
 1255HOH     H1 3952   3.076   0.781   3.430
 1255HOH     H2 3953   3.115   0.635   3.417
 1256HOH      O 3954   1.792   1.297   2.709
 1256HOH     H1 3955   1.829   1.340   2.786
 1256HOH     H2 3956   1.839   1.336   2.635
 1257HOH      O 3957   2.224   1.540   1.647
 1257HOH     H1 3958   2.240   1.456   1.691
 1257HOH     H2 3959   2.173   1.591   1.711
 1258HOH      O 3960   0.951   3.072   1.376
 1258HOH     H1 3961   0.970   2.986   1.412
 1258HOH     H2 3962   1.022   3.090   1.315
 1259HOH      O 3963   3.797   3.532   0.034
 1259HOH     H1 3964   3.711   3.557   0.068
 1259HOH     H2 3965   3.820   3.453   0.083
 1260HOH      O 3966   1.804   1.413   3.404
 1260HOH     H1 3967   1.899   1.415   3.400
 1260HOH     H2 3968   1.783   1.433   3.496
 1261HOH      O 3969   1.440   1.120   1.990
 1261HOH     H1 3970   1.438   1.141   1.896
 1261HOH     H2 3971   1.363   1.065   2.004
 1262HOH      O 3972   2.654   0.522   0.534
 1262HOH     H1 3973   2.687   0.565   0.613
 1262HOH     H2 3974   2.559   0.532   0.538
 1263HOH      O 3975   3.208   0.645   0.666
 1263HOH     H1 3976   3.260   0.650   0.586
 1263HOH     H2 3977   3.152   0.723   0.663
 1264HOH      O 3978   1.817   1.410   2.160
 1264HOH     H1 3979   1.730   1.371   2.158
 1264HOH     H2 3980   1.831   1.443   2.071
 1265HOH      O 3981   2.291   2.291   3.202
 1265HOH     H1 3982   2.311   2.209   3.156
 1265HOH     H2 3983   2.376   2.324   3.230
 1266HOH      O 3984   2.693   3.722   1.425
 1266HOH     H1 3985   2.682   3.792   1.361
 1266HOH     H2 3986   2.619   3.663   1.410
 1267HOH      O 3987   1.565   3.806   0.221
 1267HOH     H1 3988   1.564   3.858   0.301
 1267HOH     H2 3989   1.550   3.869   0.150
 1268HOH      O 3990   1.005   3.197   3.057
 1268HOH     H1 3991   0.975   3.279   3.096
 1268HOH     H2 3992   0.963   3.194   2.971
 1269HOH      O 3993   0.703   0.533   3.128
 1269HOH     H1 3994   0.785   0.572   3.159
 1269HOH     H2 3995   0.635   0.582   3.174
 1270HOH      O 3996   3.288   2.311   3.330
 1270HOH     H1 3997   3.203   2.268   3.320
 1270HOH     H2 3998   3.337   2.254   3.389
 1271HOH      O 3999   2.905   0.826   2.918
 1271HOH     H1 4000   2.858   0.875   2.850
 1271HOH     H2 4001   2.852   0.747   2.931
 1272HOH      O 4002   2.427   3.104   2.892
 1272HOH     H1 4003   2.421   3.198   2.907
 1272HOH     H2 4004   2.488   3.095   2.819
 1273HOH      O 4005   1.241   1.132   0.871
 1273HOH     H1 4006   1.165   1.102   0.922
 1273HOH     H2 4007   1.308   1.065   0.887
 1274HOH      O 4008   2.446   1.129   3.761
 1274HOH     H1 4009   2.518   1.065   3.758
 1274HOH     H2 4010   2.466   1.190   3.690
 1275HOH      O 4011   1.737   2.098   3.722
 1275HOH     H1 4012   1.714   2.120   3.632
 1275HOH     H2 4013   1.779   2.012   3.715
 1276HOH      O 4014   3.411   3.254   3.173
 1276HOH     H1 4015   3.318   3.238   3.157
 1276HOH     H2 4016   3.436   3.188   3.237
 1277HOH      O 4017   2.514   0.641   3.378
 1277HOH     H1 4018   2.533   0.672   3.290
 1277HOH     H2 4019   2.596   0.601   3.408
 1278HOH      O 4020   2.054   3.862   1.316
 1278HOH     H1 4021   2.098   3.941   1.284
 1278HOH     H2 4022   1.997   3.893   1.386
 1279HOH      O 4023   3.265   2.714   3.827
 1279HOH     H1 4024   3.337   2.741   3.885
 1279HOH     H2 4025   3.206   2.789   3.826
 1280HOH      O 4026   3.446   3.710   2.488
 1280HOH     H1 4027   3.391   3.703   2.409
 1280HOH     H2 4028   3.533   3.683   2.458
 1281HOH      O 4029   1.786   0.102   3.258
 1281HOH     H1 4030   1.867   0.050   3.253
 1281HOH     H2 4031   1.766   0.104   3.352
 1282HOH      O 4032   0.894   1.613   0.225
 1282HOH     H1 4033   0.930   1.578   0.144
 1282HOH     H2 4034   0.970   1.649   0.272
 1283HOH      O 4035   3.879   3.272   0.136
 1283HOH     H1 4036   3.895   3.181   0.109
 1283HOH     H2 4037   3.794   3.270   0.180
 1284HOH      O 4038   1.344   1.135   0.313
 1284HOH     H1 4039   1.326   1.121   0.406
 1284HOH     H2 4040   1.424   1.086   0.296
 1285HOH      O 4041   2.918   2.396   2.406
 1285HOH     H1 4042   2.828   2.383   2.438
 1285HOH     H2 4043   2.907   2.411   2.312
 1286HOH      O 4044   3.940   1.811   3.646
 1286HOH     H1 4045   4.012   1.829   3.585
 1286HOH     H2 4046   3.976   1.834   3.732
 1287HOH      O 4047   2.925   0.097   3.895
 1287HOH     H1 4048   2.853   0.049   3.853
 1287HOH     H2 4049   2.941   0.050   3.977
 1288HOH      O 4050   1.936   3.055   0.282
 1288HOH     H1 4051   1.922   2.974   0.232
 1288HOH     H2 4052   1.849   3.092   0.292
 1289HOH      O 4053  -0.003   3.612   2.750
 1289HOH     H1 4054   0.090   3.591   2.742
 1289HOH     H2 4055  -0.041   3.537   2.797
 1290HOH      O 4056   3.322   1.465   1.253
 1290HOH     H1 4057   3.232   1.491   1.275
 1290HOH     H2 4058   3.363   1.546   1.222
 1291HOH      O 4059   2.542   3.234   2.065
 1291HOH     H1 4060   2.587   3.303   2.115
 1291HOH     H2 4061   2.516   3.170   2.131
 1292HOH      O 4062   3.720   2.799   4.021
 1292HOH     H1 4063   3.670   2.754   4.090
 1292HOH     H2 4064   3.718   2.738   3.947
 1293HOH      O 4065   2.075   3.355   0.483
 1293HOH     H1 4066   2.003   3.363   0.421
 1293HOH     H2 4067   2.038   3.384   0.566
 1294HOH      O 4068   0.000   2.741   3.520
 1294HOH     H1 4069   0.093   2.750   3.544
 1294HOH     H2 4070   0.002   2.696   3.436
 1295HOH      O 4071   1.353   3.198   3.958
 1295HOH     H1 4072   1.369   3.227   3.868
 1295HOH     H2 4073   1.304   3.116   3.948
 1296HOH      O 4074   1.256   2.156   0.973
 1296HOH     H1 4075   1.191   2.192   1.034
 1296HOH     H2 4076   1.289   2.077   1.016
 1297HOH      O 4077   3.678   1.113   2.188
 1297HOH     H1 4078   3.757   1.167   2.188
 1297HOH     H2 4079   3.656   1.103   2.095
 1298HOH      O 4080   2.051   1.011   3.044
 1298HOH     H1 4081   2.015   1.053   3.122
 1298HOH     H2 4082   2.048   1.078   2.976
 1299HOH      O 4083   2.175   3.110   0.667
 1299HOH     H1 4084   2.257   3.125   0.713
 1299HOH     H2 4085   2.149   3.196   0.634
 1300HOH      O 4086   2.254   1.289   1.785
 1300HOH     H1 4087   2.246   1.315   1.877
 1300HOH     H2 4088   2.286   1.199   1.789
 1301HOH      O 4089   0.617   1.348   0.886
 1301HOH     H1 4090   0.649   1.418   0.829
 1301HOH     H2 4091   0.548   1.306   0.835
 1302HOH      O 4092   3.791   3.432   2.620
 1302HOH     H1 4093   3.758   3.342   2.613
 1302HOH     H2 4094   3.860   3.437   2.553
 1303HOH      O 4095   1.989   0.633   2.887
 1303HOH     H1 4096   2.002   0.683   2.968
 1303HOH     H2 4097   2.073   0.637   2.843
 1304HOH      O 4098   2.718   1.094   0.079
 1304HOH     H1 4099   2.811   1.090   0.059
 1304HOH     H2 4100   2.680   1.017   0.036
 1305HOH      O 4101   3.594   3.083   3.605
 1305HOH     H1 4102   3.598   2.999   3.560
 1305HOH     H2 4103   3.678   3.089   3.651
 1306HOH      O 4104   3.024   0.533   3.277
 1306HOH     H1 4105   3.052   0.497   3.193
 1306HOH     H2 4106   3.006   0.456   3.331
 1307HOH      O 4107   0.836   1.893   1.480
 1307HOH     H1 4108   0.813   1.801   1.492
 1307HOH     H2 4109   0.885   1.916   1.559
 1308HOH      O 4110   3.967   3.785   1.645
 1308HOH     H1 4111   4.040   3.811   1.701
 1308HOH     H2 4112   3.924   3.715   1.692
 1309HOH      O 4113   1.352   1.971   0.528
 1309HOH     H1 4114   1.444   1.945   0.529
 1309HOH     H2 4115   1.354   2.065   0.515
 1310HOH      O 4116   2.234   3.778   0.879
 1310HOH     H1 4117   2.145   3.775   0.844
 1310HOH     H2 4118   2.269   3.863   0.852
 1311HOH      O 4119   2.180   1.046   0.311
 1311HOH     H1 4120   2.133   1.129   0.308
 1311HOH     H2 4121   2.231   1.045   0.230
 1312HOH      O 4122   0.196   1.623   0.573
 1312HOH     H1 4123   0.106   1.657   0.571
 1312HOH     H2 4124   0.185   1.528   0.562
 1313HOH      O 4125   2.466   2.779   2.718
 1313HOH     H1 4126   2.489   2.866   2.686
 1313HOH     H2 4127   2.386   2.793   2.770
 1314HOH      O 4128   3.219   4.002   1.605
 1314HOH     H1 4129   3.203   3.914   1.569
 1314HOH     H2 4130   3.308   3.998   1.640
 1315HOH      O 4131   0.448   2.678   3.523
 1315HOH     H1 4132   0.465   2.590   3.557
 1315HOH     H2 4133   0.515   2.733   3.564
 1316HOH      O 4134   0.101   0.063   3.947
 1316HOH     H1 4135   0.039  -0.010   3.938
 1316HOH     H2 4136   0.155   0.057   3.868
 1317HOH      O 4137   0.935   2.885   3.114
 1317HOH     H1 4138   0.949   2.842   3.030
 1317HOH     H2 4139   1.018   2.930   3.132
 1318HOH      O 4140   3.680   1.911   1.088
 1318HOH     H1 4141   3.773   1.928   1.102
 1318HOH     H2 4142   3.661   1.836   1.144
 1319HOH      O 4143   1.705   1.499   3.678
 1319HOH     H1 4144   1.706   1.463   3.767
 1319HOH     H2 4145   1.677   1.590   3.690
 1320HOH      O 4146   2.628   2.425   0.483
 1320HOH     H1 4147   2.663   2.491   0.544
 1320HOH     H2 4148   2.705   2.395   0.434
 1321HOH      O 4149   2.773   3.327   0.562
 1321HOH     H1 4150   2.818   3.391   0.506
 1321HOH     H2 4151   2.695   3.302   0.512
 1322HOH      O 4152   0.487   2.893   1.184
 1322HOH     H1 4153   0.565   2.889   1.240
 1322HOH     H2 4154   0.474   2.987   1.168
 1323HOH      O 4155   4.011   1.106   3.658
 1323HOH     H1 4156   3.933   1.065   3.621
 1323HOH     H2 4157   3.988   1.123   3.749
 1324HOH      O 4158   0.472   1.259   2.077
 1324HOH     H1 4159   0.500   1.217   2.158
 1324HOH     H2 4160   0.387   1.220   2.058
 1325HOH      O 4161   0.993   0.069   0.470
 1325HOH     H1 4162   1.065   0.097   0.414
 1325HOH     H2 4163   1.032   0.059   0.557
 1326HOH      O 4164   2.551   1.288   3.999
 1326HOH     H1 4165   2.587   1.212   4.045
 1326HOH     H2 4166   2.505   1.251   3.923
 1327HOH      O 4167   1.109   2.701   0.645
 1327HOH     H1 4168   1.141   2.634   0.706
 1327HOH     H2 4169   1.019   2.717   0.673
 1328HOH      O 4170   1.139   3.694   0.832
 1328HOH     H1 4171   1.177   3.731   0.752
 1328HOH     H2 4172   1.152   3.600   0.824
 1329HOH      O 4173   1.153   3.915   1.039
 1329HOH     H1 4174   1.073   3.919   1.092
 1329HOH     H2 4175   1.139   3.842   0.979
 1330HOH      O 4176   1.285   1.733   1.471
 1330HOH     H1 4177   1.233   1.781   1.407
 1330HOH     H2 4178   1.352   1.688   1.418
 1331HOH      O 4179   2.493   3.356   3.335
 1331HOH     H1 4180   2.434   3.393   3.401
 1331HOH     H2 4181   2.528   3.277   3.377
 1332HOH      O 4182   0.302   3.431   1.006
 1332HOH     H1 4183   0.376   3.409   0.949
 1332HOH     H2 4184   0.342   3.450   1.091
 1333HOH      O 4185   1.394   0.759   3.485
 1333HOH     H1 4186   1.396   0.759   3.389
 1333HOH     H2 4187   1.320   0.815   3.507
 1334HOH      O 4188   1.421   0.954   0.950
 1334HOH     H1 4189   1.437   0.860   0.937
 1334HOH     H2 4190   1.505   0.996   0.930
 1335HOH      O 4191   1.857   1.087   1.677
 1335HOH     H1 4192   1.766   1.085   1.649
 1335HOH     H2 4193   1.906   1.112   1.599
 1336HOH      O 4194   0.762   0.135   1.304
 1336HOH     H1 4195   0.836   0.142   1.364
 1336HOH     H2 4196   0.746   0.041   1.296
 1337HOH      O 4197   1.003   2.578   3.248
 1337HOH     H1 4198   0.998   2.664   3.206
 1337HOH     H2 4199   0.967   2.518   3.184
 1338HOH      O 4200   2.782   3.305   1.701
 1338HOH     H1 4201   2.707   3.264   1.743
 1338HOH     H2 4202   2.767   3.291   1.607
 1339HOH      O 4203   3.163   2.791   0.598
 1339HOH     H1 4204   3.215   2.809   0.519
 1339HOH     H2 4205   3.149   2.877   0.638
 1340HOH      O 4206   3.388   1.266   1.453
 1340HOH     H1 4207   3.300   1.232   1.435
 1340HOH     H2 4208   3.398   1.340   1.394
 1341HOH      O 4209   2.972   3.983   2.812
 1341HOH     H1 4210   2.954   4.029   2.730
 1341HOH     H2 4211   3.067   3.973   2.813
 1342HOH      O 4212   1.759   0.909   3.959
 1342HOH     H1 4213   1.674   0.870   3.942
 1342HOH     H2 4214   1.796   0.925   3.872
 1343HOH      O 4215   0.875   2.757   0.786
 1343HOH     H1 4216   0.916   2.778   0.870
 1343HOH     H2 4217   0.790   2.720   0.809
 1344HOH      O 4218   0.343   1.245   1.081
 1344HOH     H1 4219   0.273   1.220   1.142
 1344HOH     H2 4220   0.418   1.193   1.108
 1345HOH      O 4221   1.262   3.901   3.257
 1345HOH     H1 4222   1.350   3.897   3.221
 1345HOH     H2 4223   1.275   3.927   3.349
 1346HOH      O 4224   0.176   1.570   3.211
 1346HOH     H1 4225   0.231   1.564   3.132
 1346HOH     H2 4226   0.230   1.618   3.274
 1347HOH      O 4227   3.208   1.594   0.060
 1347HOH     H1 4228   3.183   1.674   0.105
 1347HOH     H2 4229   3.260   1.545   0.124
 1348HOH      O 4230   0.403   0.689   1.111
 1348HOH     H1 4231   0.424   0.782   1.115
 1348HOH     H2 4232   0.441   0.652   1.191
 1349HOH      O 4233   1.118   0.354   3.096
 1349HOH     H1 4234   1.165   0.305   3.029
 1349HOH     H2 4235   1.026   0.341   3.076
 1350HOH      O 4236   2.483   0.933   2.663
 1350HOH     H1 4237   2.389   0.921   2.681
 1350HOH     H2 4238   2.486   0.969   2.574
 1351HOH      O 4239   3.603   1.250   3.659
 1351HOH     H1 4240   3.615   1.176   3.718
 1351HOH     H2 4241   3.515   1.238   3.623
 1352HOH      O 4242   1.958   3.612   0.925
 1352HOH     H1 4243   1.868   3.592   0.952
 1352HOH     H2 4244   1.999   3.647   1.004
 1353HOH      O 4245   1.096   2.458   3.854
 1353HOH     H1 4246   1.110   2.548   3.883
 1353HOH     H2 4247   1.182   2.416   3.863
 1354HOH      O 4248   2.274   1.688   1.019
 1354HOH     H1 4249   2.183   1.691   1.046
 1354HOH     H2 4250   2.324   1.685   1.101
 1355HOH      O 4251   1.854   0.021   1.907
 1355HOH     H1 4252   1.826  -0.032   1.982
 1355HOH     H2 4253   1.939   0.057   1.934
 1356HOH      O 4254   0.852   1.917   2.763
 1356HOH     H1 4255   0.840   1.953   2.851
 1356HOH     H2 4256   0.798   1.838   2.762
 1357HOH      O 4257   0.175   2.036   3.889
 1357HOH     H1 4258   0.174   1.945   3.860
 1357HOH     H2 4259   0.116   2.038   3.965
 1358HOH      O 4260   1.945   1.962   3.996
 1358HOH     H1 4261   1.974   1.881   4.037
 1358HOH     H2 4262   1.889   1.934   3.924
 1359HOH      O 4263   2.514   1.242   1.580
 1359HOH     H1 4264   2.480   1.180   1.645
 1359HOH     H2 4265   2.463   1.322   1.595
 1360HOH      O 4266   0.093   1.942   2.384
 1360HOH     H1 4267   0.158   2.010   2.367
 1360HOH     H2 4268   0.030   1.950   2.313
 1361HOH      O 4269   1.499   3.370   3.339
 1361HOH     H1 4270   1.492   3.424   3.417
 1361HOH     H2 4271   1.533   3.287   3.370
 1362HOH      O 4272   3.963   0.206   2.085
 1362HOH     H1 4273   3.887   0.182   2.138
 1362HOH     H2 4274   4.038   0.180   2.137
 1363HOH      O 4275   3.279   1.400   3.917
 1363HOH     H1 4276   3.257   1.490   3.941
 1363HOH     H2 4277   3.237   1.388   3.831
 1364HOH      O 4278   0.310   2.532   3.919
 1364HOH     H1 4279   0.283   2.446   3.885
 1364HOH     H2 4280   0.229   2.570   3.953
 1365HOH      O 4281   1.137   2.960   2.037
 1365HOH     H1 4282   1.227   2.953   2.068
 1365HOH     H2 4283   1.094   3.015   2.102
 1366HOH      O 4284   0.223   0.034   2.842
 1366HOH     H1 4285   0.239  -0.054   2.809
 1366HOH     H2 4286   0.167   0.022   2.918
 1367HOH      O 4287   1.762   3.466   0.504
 1367HOH     H1 4288   1.698   3.510   0.560
 1367HOH     H2 4289   1.846   3.502   0.532
 1368HOH      O 4290   3.088   1.807   0.601
 1368HOH     H1 4291   3.061   1.722   0.567
 1368HOH     H2 4292   3.176   1.792   0.637
 1369HOH      O 4293   1.195   1.979   3.427
 1369HOH     H1 4294   1.289   1.980   3.410
 1369HOH     H2 4295   1.163   2.062   3.393
 1370HOH      O 4296   0.508   1.479   1.877
 1370HOH     H1 4297   0.470   1.412   1.935
 1370HOH     H2 4298   0.600   1.482   1.902
 1371HOH      O 4299   1.807   0.544   0.659
 1371HOH     H1 4300   1.874   0.584   0.713
 1371HOH     H2 4301   1.728   0.595   0.676
 1372HOH      O 4302   0.632   2.439   1.368
 1372HOH     H1 4303   0.566   2.489   1.416
 1372HOH     H2 4304   0.706   2.432   1.428
 1373HOH      O 4305   3.187   3.641   3.448
 1373HOH     H1 4306   3.192   3.546   3.437
 1373HOH     H2 4307   3.248   3.660   3.520
 1374HOH      O 4308   1.004   1.533   2.560
 1374HOH     H1 4309   0.947   1.504   2.489
 1374HOH     H2 4310   1.003   1.460   2.623
 1375HOH      O 4311   1.349   1.969   1.181
 1375HOH     H1 4312   1.359   2.041   1.244
 1375HOH     H2 4313   1.439   1.949   1.154
 1376HOH      O 4314   3.550   0.765   0.372
 1376HOH     H1 4315   3.644   0.750   0.386
 1376HOH     H2 4316   3.541   0.861   0.373
 1377HOH      O 4317   0.943   3.967   1.202
 1377HOH     H1 4318   0.990   4.033   1.254
 1377HOH     H2 4319   0.928   3.895   1.262
 1378HOH      O 4320   1.553   3.560   4.014
 1378HOH     H1 4321   1.514   3.482   4.053
 1378HOH     H2 4322   1.645   3.536   3.999
 1379HOH      O 4323   2.087   0.580   3.832
 1379HOH     H1 4324   2.103   0.663   3.877
 1379HOH     H2 4325   2.175   0.545   3.816
 1380HOH      O 4326   3.883   2.635   1.920
 1380HOH     H1 4327   3.921   2.549   1.905
 1380HOH     H2 4328   3.942   2.678   1.981
 1381HOH      O 4329   3.806   1.195   1.169
 1381HOH     H1 4330   3.829   1.190   1.262
 1381HOH     H2 4331   3.827   1.285   1.144
 1382HOH      O 4332   2.298   3.087   3.266
 1382HOH     H1 4333   2.366   3.104   3.331
 1382HOH     H2 4334   2.342   3.035   3.198
 1383HOH      O 4335   0.117   3.426   2.080
 1383HOH     H1 4336   0.186   3.377   2.124
 1383HOH     H2 4337   0.117   3.511   2.123
 1384HOH      O 4338   3.436   3.587   3.098
 1384HOH     H1 4339   3.455   3.571   3.191
 1384HOH     H2 4340   3.458   3.505   3.055
 1385HOH      O 4341   0.805   2.113   0.061
 1385HOH     H1 4342   0.821   2.020   0.074
 1385HOH     H2 4343   0.782   2.146   0.148
 1386HOH      O 4344   2.083   3.820   3.033
 1386HOH     H1 4345   2.081   3.886   2.963
 1386HOH     H2 4346   2.056   3.867   3.111
 1387HOH      O 4347   1.704   2.184   3.441
 1387HOH     H1 4348   1.699   2.272   3.402
 1387HOH     H2 4349   1.746   2.130   3.375
 1388HOH      O 4350   3.255   3.258   1.982
 1388HOH     H1 4351   3.182   3.318   1.996
 1388HOH     H2 4352   3.330   3.300   2.024
 1389HOH      O 4353   2.526   1.586  -0.000
 1389HOH     H1 4354   2.516   1.502  -0.045
 1389HOH     H2 4355   2.456   1.586   0.066
 1390HOH      O 4356   1.781   2.695   0.162
 1390HOH     H1 4357   1.770   2.735   0.248
 1390HOH     H2 4358   1.831   2.615   0.179
 1391HOH      O 4359   2.417   0.278   3.608
 1391HOH     H1 4360   2.438   0.331   3.531
 1391HOH     H2 4361   2.365   0.336   3.664
 1392HOH      O 4362   2.193   1.435   0.836
 1392HOH     H1 4363   2.213   1.353   0.882
 1392HOH     H2 4364   2.226   1.503   0.894
 1393HOH      O 4365   3.179   3.353   1.349
 1393HOH     H1 4366   3.273   3.336   1.359
 1393HOH     H2 4367   3.141   3.328   1.433
 1394HOH      O 4368   3.089   1.334   0.224
 1394HOH     H1 4369   3.011   1.390   0.225
 1394HOH     H2 4370   3.069   1.263   0.284
 1395HOH      O 4371   2.748   1.006   1.594
 1395HOH     H1 4372   2.721   1.094   1.567
 1395HOH     H2 4373   2.828   0.989   1.544
 1396HOH      O 4374   0.373   0.466   1.990
 1396HOH     H1 4375   0.402   0.553   1.962
 1396HOH     H2 4376   0.417   0.406   1.930
 1397HOH      O 4377   2.927   2.963   0.919
 1397HOH     H1 4378   3.020   2.946   0.933
 1397HOH     H2 4379   2.923   3.052   0.885
 1398HOH      O 4380   3.077   2.204   2.350
 1398HOH     H1 4381   3.017   2.133   2.326
 1398HOH     H2 4382   3.022   2.271   2.388
 1399HOH      O 4383   0.261   3.771   2.717
 1399HOH     H1 4384   0.344   3.755   2.672
 1399HOH     H2 4385   0.277   3.739   2.806
 1400HOH      O 4386   1.831   0.155   0.790
 1400HOH     H1 4387   1.813   0.214   0.863
 1400HOH     H2 4388   1.799   0.070   0.818
 1401HOH      O 4389   2.834   0.315   0.621
 1401HOH     H1 4390   2.889   0.292   0.546
 1401HOH     H2 4391   2.773   0.381   0.587
 1402HOH      O 4392   1.519   1.582   2.023
 1402HOH     H1 4393   1.535   1.496   2.062
 1402HOH     H2 4394   1.430   1.577   1.990
 1403HOH      O 4395   2.913   1.203   0.913
 1403HOH     H1 4396   3.000   1.178   0.883
 1403HOH     H2 4397   2.911   1.298   0.901
 1404HOH      O 4398   3.182   0.846   1.443
 1404HOH     H1 4399   3.191   0.752   1.453
 1404HOH     H2 4400   3.218   0.883   1.523
 1405HOH      O 4401   1.599   3.921   2.637
 1405HOH     H1 4402   1.629   3.830   2.636
 1405HOH     H2 4403   1.560   3.934   2.550
 1406HOH      O 4404   0.216   0.725   4.027
 1406HOH     H1 4405   0.138   0.678   3.998
 1406HOH     H2 4406   0.231   0.791   3.959
 1407HOH      O 4407   1.153   1.134   3.345
 1407HOH     H1 4408   1.244   1.135   3.316
 1407HOH     H2 4409   1.145   1.052   3.395
 1408HOH      O 4410   2.553   2.072   0.098
 1408HOH     H1 4411   2.607   2.143   0.065
 1408HOH     H2 4412   2.611   2.022   0.156
 1409HOH      O 4413   2.549   0.673   0.796
 1409HOH     H1 4414   2.465   0.627   0.790
 1409HOH     H2 4415   2.566   0.680   0.890
 1410HOH      O 4416   3.896   1.932   0.827
 1410HOH     H1 4417   3.918   1.894   0.913
 1410HOH     H2 4418   3.882   2.025   0.845
 1411HOH      O 4419   2.770   1.656   0.627
 1411HOH     H1 4420   2.759   1.663   0.533
 1411HOH     H2 4421   2.684   1.633   0.660
 1412HOH      O 4422   0.935   3.438   3.626
 1412HOH     H1 4423   0.902   3.449   3.537
 1412HOH     H2 4424   0.872   3.485   3.681
 1413HOH      O 4425   1.223   3.657   1.823
 1413HOH     H1 4426   1.294   3.707   1.864
 1413HOH     H2 4427   1.195   3.596   1.891
 1414HOH      O 4428   3.826   0.071   0.088
 1414HOH     H1 4429   3.835  -0.016   0.049
 1414HOH     H2 4430   3.737   0.098   0.065
 1415HOH      O 4431   3.041   2.631   1.051
 1415HOH     H1 4432   3.124   2.638   1.099
 1415HOH     H2 4433   3.067   2.617   0.960
 1416HOH      O 4434   2.410   0.089   0.332
 1416HOH     H1 4435   2.373   0.175   0.354
 1416HOH     H2 4436   2.456   0.103   0.249
 1417HOH      O 4437   2.972   3.000   2.125
 1417HOH     H1 4438   2.943   3.065   2.061
 1417HOH     H2 4439   2.957   2.916   2.083
 1418HOH      O 4440   0.558   0.618   2.304
 1418HOH     H1 4441   0.584   0.535   2.343
 1418HOH     H2 4442   0.474   0.599   2.261
 1419HOH      O 4443   0.122   3.712   2.488
 1419HOH     H1 4444   0.053   3.645   2.490
 1419HOH     H2 4445   0.144   3.726   2.580
 1420HOH      O 4446   2.490   0.242   1.243
 1420HOH     H1 4447   2.416   0.234   1.183
 1420HOH     H2 4448   2.456   0.209   1.326
 1421HOH      O 4449   2.305   1.040   1.574
 1421HOH     H1 4450   2.276   0.956   1.609
 1421HOH     H2 4451   2.224   1.091   1.565
 1422HOH      O 4452   3.357   2.426   2.429
 1422HOH     H1 4453   3.442   2.401   2.394
 1422HOH     H2 4454   3.336   2.508   2.385
 1423HOH      O 4455   1.583   3.978   0.412
 1423HOH     H1 4456   1.674   4.008   0.408
 1423HOH     H2 4457   1.545   4.028   0.484
 1424HOH      O 4458   1.352   2.630   2.472
 1424HOH     H1 4459   1.446   2.623   2.457
 1424HOH     H2 4460   1.316   2.548   2.439
 1425HOH      O 4461   1.475   2.898   3.774
 1425HOH     H1 4462   1.487   2.809   3.740
 1425HOH     H2 4463   1.391   2.894   3.821
 1426HOH      O 4464   2.004   1.471   0.651
 1426HOH     H1 4465   2.050   1.441   0.573
 1426HOH     H2 4466   2.070   1.467   0.721
 1427HOH      O 4467   0.866   2.189   1.084
 1427HOH     H1 4468   0.900   2.278   1.075
 1427HOH     H2 4469   0.865   2.173   1.178
 1428HOH      O 4470   2.368   2.615   3.546
 1428HOH     H1 4471   2.311   2.542   3.521
 1428HOH     H2 4472   2.345   2.685   3.485
 1429HOH      O 4473   1.073   0.485   0.300
 1429HOH     H1 4474   1.081   0.390   0.300
 1429HOH     H2 4475   1.160   0.517   0.276
 1430HOH      O 4476   2.490   1.077   1.343
 1430HOH     H1 4477   2.458   1.101   1.429
 1430HOH     H2 4478   2.505   0.982   1.349
 1431HOH      O 4479   1.019   3.775   3.878
 1431HOH     H1 4480   0.937   3.823   3.890
 1431HOH     H2 4481   1.014   3.742   3.788
 1432HOH      O 4482   2.665   2.944   2.891
 1432HOH     H1 4483   2.659   2.848   2.894
 1432HOH     H2 4484   2.612   2.969   2.815
 1433HOH      O 4485   4.007   2.824   1.207
 1433HOH     H1 4486   3.986   2.731   1.217
 1433HOH     H2 4487   4.060   2.846   1.283
 1434HOH      O 4488   0.711   2.291   3.049
 1434HOH     H1 4489   0.787   2.305   3.105
 1434HOH     H2 4490   0.742   2.312   2.961
 1435HOH      O 4491   0.762   3.905   3.904
 1435HOH     H1 4492   0.770   3.998   3.885
 1435HOH     H2 4493   0.710   3.902   3.985
 1436HOH      O 4494   3.686   3.701   0.695
 1436HOH     H1 4495   3.756   3.725   0.633
 1436HOH     H2 4496   3.606   3.708   0.643
 1437HOH      O 4497   1.198   0.419   2.099
 1437HOH     H1 4498   1.250   0.418   2.020
 1437HOH     H2 4499   1.186   0.326   2.121
 1438HOH      O 4500   0.747   3.805   0.198
 1438HOH     H1 4501   0.768   3.892   0.231
 1438HOH     H2 4502   0.737   3.752   0.276
 1439HOH      O 4503   3.571   2.746   2.717
 1439HOH     H1 4504   3.505   2.780   2.657
 1439HOH     H2 4505   3.565   2.803   2.794
 1440HOH      O 4506   2.115   1.217   2.859
 1440HOH     H1 4507   2.173   1.272   2.911
 1440HOH     H2 4508   2.099   1.267   2.779
 1441HOH      O 4509   0.384   3.481   1.246
 1441HOH     H1 4510   0.431   3.551   1.201
 1441HOH     H2 4511   0.443   3.454   1.316
 1442HOH      O 4512   1.480  -0.017   2.308
 1442HOH     H1 4513   1.556  -0.037   2.253
 1442HOH     H2 4514   1.491   0.075   2.331
 1443HOH      O 4515   1.131   0.384   1.181
 1443HOH     H1 4516   1.081   0.445   1.235
 1443HOH     H2 4517   1.127   0.301   1.227
 1444HOH      O 4518   1.343   2.897   1.054
 1444HOH     H1 4519   1.390   2.979   1.039
 1444HOH     H2 4520   1.263   2.906   1.001
 1445HOH      O 4521   2.418   3.246   0.760
 1445HOH     H1 4522   2.476   3.173   0.780
 1445HOH     H2 4523   2.476   3.320   0.745
 1446HOH      O 4524   3.627   0.793   0.020
 1446HOH     H1 4525   3.549   0.845   0.038
 1446HOH     H2 4526   3.634   0.734   0.095
 1447HOH      O 4527   1.124   2.345   1.282
 1447HOH     H1 4528   1.048   2.324   1.336
 1447HOH     H2 4529   1.188   2.277   1.303
 1448HOH      O 4530   1.251   3.808   2.929
 1448HOH     H1 4531   1.314   3.736   2.933
 1448HOH     H2 4532   1.304   3.886   2.915
 1449HOH      O 4533   3.729   0.255   3.583
 1449HOH     H1 4534   3.773   0.176   3.612
 1449HOH     H2 4535   3.721   0.245   3.488
 1450HOH      O 4536   1.023   1.011   2.603
 1450HOH     H1 4537   1.003   0.950   2.531
 1450HOH     H2 4538   0.937   1.044   2.630
 1451HOH      O 4539   1.070   1.168   3.086
 1451HOH     H1 4540   1.150   1.156   3.035
 1451HOH     H2 4541   1.094   1.141   3.175
 1452HOH      O 4542   0.483   3.606   3.056
 1452HOH     H1 4543   0.568   3.641   3.082
 1452HOH     H2 4544   0.429   3.684   3.042
 1453HOH      O 4545   2.631   3.412   0.794
 1453HOH     H1 4546   2.634   3.504   0.821
 1453HOH     H2 4547   2.712   3.398   0.746
 1454HOH      O 4548   1.686   1.772   2.129
 1454HOH     H1 4549   1.629   1.697   2.108
 1454HOH     H2 4550   1.773   1.734   2.137
 1455HOH      O 4551   2.823   3.503   2.083
 1455HOH     H1 4552   2.773   3.443   2.139
 1455HOH     H2 4553   2.757   3.545   2.029
 1456HOH      O 4554   3.626   2.901   2.941
 1456HOH     H1 4555   3.691   2.944   2.998
 1456HOH     H2 4556   3.542   2.933   2.973
 1457HOH      O 4557   1.282   2.219   0.274
 1457HOH     H1 4558   1.237   2.151   0.223
 1457HOH     H2 4559   1.294   2.291   0.212
 1458HOH      O 4560   3.330   3.094   3.624
 1458HOH     H1 4561   3.421   3.094   3.595
 1458HOH     H2 4562   3.320   3.011   3.672
 1459HOH      O 4563   1.435   2.725   0.454
 1459HOH     H1 4564   1.417   2.645   0.404
 1459HOH     H2 4565   1.356   2.739   0.505
 1460HOH      O 4566   3.876   3.254   2.347
 1460HOH     H1 4567   3.933   3.202   2.291
 1460HOH     H2 4568   3.850   3.194   2.417
 1461HOH      O 4569   1.312   3.739   1.562
 1461HOH     H1 4570   1.339   3.660   1.514
 1461HOH     H2 4571   1.270   3.705   1.641
 1462HOH      O 4572   1.843   3.593   2.329
 1462HOH     H1 4573   1.750   3.579   2.345
 1462HOH     H2 4574   1.856   3.568   2.238
 1463HOH      O 4575   1.712   2.099   0.712
 1463HOH     H1 4576   1.680   2.011   0.731
 1463HOH     H2 4577   1.713   2.103   0.616
 1464HOH      O 4578   1.340   1.590   3.468
 1464HOH     H1 4579   1.335   1.647   3.544
 1464HOH     H2 4580   1.406   1.524   3.491
 1465HOH      O 4581   2.250   0.585   2.241
 1465HOH     H1 4582   2.337   0.618   2.261
 1465HOH     H2 4583   2.205   0.659   2.200
 1466HOH      O 4584   0.007   2.150   3.202
 1466HOH     H1 4585  -0.030   2.118   3.120
 1466HOH     H2 4586   0.048   2.073   3.241
 1467HOH      O 4587   3.004   0.828   2.216
 1467HOH     H1 4588   3.056   0.772   2.274
 1467HOH     H2 4589   3.035   0.917   2.234
 1468HOH      O 4590   1.810   1.185   1.329
 1468HOH     H1 4591   1.756   1.252   1.370
 1468HOH     H2 4592   1.894   1.191   1.374
 1469HOH      O 4593   0.561   2.930   3.216
 1469HOH     H1 4594   0.614   2.867   3.264
 1469HOH     H2 4595   0.621   3.003   3.198
 1470HOH      O 4596   2.350   0.235   2.394
 1470HOH     H1 4597   2.372   0.246   2.302
 1470HOH     H2 4598   2.257   0.258   2.400
 1471HOH      O 4599   1.031   1.074   3.674
 1471HOH     H1 4600   0.969   1.074   3.747
 1471HOH     H2 4601   1.074   1.159   3.679
 1472HOH      O 4602   3.968   2.410   2.168
 1472HOH     H1 4603   3.927   2.496   2.164
 1472HOH     H2 4604   3.905   2.356   2.217
 1473HOH      O 4605   2.824   1.323   2.467
 1473HOH     H1 4606   2.903   1.328   2.413
 1473HOH     H2 4607   2.792   1.413   2.471
 1474HOH      O 4608   3.337   0.636   2.516
 1474HOH     H1 4609   3.294   0.559   2.479
 1474HOH     H2 4610   3.423   0.605   2.544
 1475HOH      O 4611   1.815   0.678   1.978
 1475HOH     H1 4612   1.726   0.685   2.013
 1475HOH     H2 4613   1.826   0.585   1.960
 1476HOH      O 4614   0.702   0.512   0.346
 1476HOH     H1 4615   0.728   0.440   0.403
 1476HOH     H2 4616   0.730   0.485   0.259
 1477HOH      O 4617   0.642   2.804   3.628
 1477HOH     H1 4618   0.633   2.802   3.723
 1477HOH     H2 4619   0.715   2.864   3.612
 1478HOH      O 4620   2.987   3.090   2.675
 1478HOH     H1 4621   2.929   3.038   2.620
 1478HOH     H2 4622   2.933   3.164   2.703
 1479HOH      O 4623   1.155   0.258   3.476
 1479HOH     H1 4624   1.204   0.280   3.397
 1479HOH     H2 4625   1.204   0.301   3.547
 1480HOH      O 4626   3.024   2.369   0.649
 1480HOH     H1 4627   2.983   2.283   0.656
 1480HOH     H2 4628   3.064   2.384   0.734
 1481HOH      O 4629   1.126   1.842   1.252
 1481HOH     H1 4630   1.135   1.751   1.224
 1481HOH     H2 4631   1.207   1.885   1.223
 1482HOH      O 4632   3.534   2.072   1.397
 1482HOH     H1 4633   3.450   2.057   1.354
 1482HOH     H2 4634   3.548   2.167   1.391
 1483HOH      O 4635   1.648   3.649   2.685
 1483HOH     H1 4636   1.662   3.595   2.607
 1483HOH     H2 4637   1.554   3.640   2.703
 1484HOH      O 4638   3.543   0.764   2.837
 1484HOH     H1 4639   3.450   0.742   2.840
 1484HOH     H2 4640   3.580   0.723   2.915
 1485HOH      O 4641   2.694   1.639   2.781
 1485HOH     H1 4642   2.782   1.663   2.751
 1485HOH     H2 4643   2.700   1.640   2.876
 1486HOH      O 4644   3.124   2.466   3.920
 1486HOH     H1 4645   3.187   2.529   3.885
 1486HOH     H2 4646   3.092   2.419   3.843
 1487HOH      O 4647   2.238   3.285   1.590
 1487HOH     H1 4648   2.199   3.262   1.674
 1487HOH     H2 4649   2.173   3.340   1.547
 1488HOH      O 4650   3.467   3.541   3.383
 1488HOH     H1 4651   3.444   3.626   3.421
 1488HOH     H2 4652   3.388   3.488   3.392
 1489HOH      O 4653   1.729   1.260   0.432
 1489HOH     H1 4654   1.701   1.330   0.373
 1489HOH     H2 4655   1.698   1.287   0.518
 1490HOH      O 4656   1.829   2.118   0.952
 1490HOH     H1 4657   1.884   2.196   0.953
 1490HOH     H2 4658   1.767   2.133   0.880
 1491HOH      O 4659   3.803   0.522   3.540
 1491HOH     H1 4660   3.800   0.431   3.568
 1491HOH     H2 4661   3.886   0.530   3.494
 1492HOH      O 4662   2.188   3.028   0.402
 1492HOH     H1 4663   2.161   3.045   0.492
 1492HOH     H2 4664   2.106   3.014   0.355
 1493HOH      O 4665   0.559   0.416   1.041
 1493HOH     H1 4666   0.575   0.508   1.019
 1493HOH     H2 4667   0.476   0.396   0.999
 1494HOH      O 4668   1.528   0.226   3.724
 1494HOH     H1 4669   1.621   0.209   3.708
 1494HOH     H2 4670   1.488   0.139   3.728
 1495HOH      O 4671   3.894   3.496   1.073
 1495HOH     H1 4672   3.853   3.501   0.987
 1495HOH     H2 4673   3.960   3.426   1.064
 1496HOH      O 4674   3.374   2.912   3.076
 1496HOH     H1 4675   3.313   2.917   3.003
 1496HOH     H2 4676   3.328   2.862   3.143
 1497HOH      O 4677   0.016   2.413   3.653
 1497HOH     H1 4678   0.052   2.497   3.627
 1497HOH     H2 4679  -0.037   2.432   3.730
 1498HOH      O 4680   0.030   1.940   2.096
 1498HOH     H1 4681   0.039   2.019   2.043
 1498HOH     H2 4682  -0.053   1.902   2.068
 1499HOH      O 4683   2.754   3.953   1.929
 1499HOH     H1 4684   2.766   3.981   2.019
 1499HOH     H2 4685   2.739   3.859   1.935
 1500HOH      O 4686   0.517   3.911   2.452
 1500HOH     H1 4687   0.505   3.857   2.530
 1500HOH     H2 4688   0.588   3.869   2.403
 1501HOH      O 4689   2.515   3.210   1.799
 1501HOH     H1 4690   2.450   3.141   1.780
 1501HOH     H2 4691   2.528   3.204   1.893
 1502HOH      O 4692   0.470   2.878   0.639
 1502HOH     H1 4693   0.414   2.939   0.688
 1502HOH     H2 4694   0.479   2.919   0.553
 1503HOH      O 4695   2.845   2.676   3.703
 1503HOH     H1 4696   2.754   2.655   3.724
 1503HOH     H2 4697   2.872   2.735   3.773
 1504HOH      O 4698   3.994   1.808   2.620
 1504HOH     H1 4699   3.941   1.731   2.599
 1504HOH     H2 4700   4.048   1.823   2.542
 1505HOH      O 4701   0.349   2.386   1.717
 1505HOH     H1 4702   0.407   2.314   1.744
 1505HOH     H2 4703   0.331   2.368   1.625
 1506HOH      O 4704   2.849   3.512   2.906
 1506HOH     H1 4705   2.808   3.500   2.992
 1506HOH     H2 4706   2.789   3.467   2.846
 1507HOH      O 4707   0.806   1.299   1.203
 1507HOH     H1 4708   0.794   1.393   1.217
 1507HOH     H2 4709   0.717   1.263   1.204
 1508HOH      O 4710   0.617   3.327   3.412
 1508HOH     H1 4711   0.550   3.357   3.351
 1508HOH     H2 4712   0.643   3.405   3.461
 1509HOH      O 4713   2.179   4.017   1.669
 1509HOH     H1 4714   2.223   4.050   1.590
 1509HOH     H2 4715   2.251   3.997   1.729
 1510HOH      O 4716   3.792   0.221   1.433
 1510HOH     H1 4717   3.739   0.300   1.420
 1510HOH     H2 4718   3.872   0.237   1.384
 1511HOH      O 4719   0.213   3.050   2.952
 1511HOH     H1 4720   0.159   3.005   2.888
 1511HOH     H2 4721   0.293   2.997   2.957
 1512HOH      O 4722   3.489   2.945   0.844
 1512HOH     H1 4723   3.423   2.916   0.906
 1512HOH     H2 4724   3.543   3.007   0.892
 1513HOH      O 4725   3.193   2.290   0.428
 1513HOH     H1 4726   3.119   2.231   0.425
 1513HOH     H2 4727   3.171   2.354   0.495
 1514HOH      O 4728   2.395   2.548   0.029
 1514HOH     H1 4729   2.389   2.596   0.112
 1514HOH     H2 4730   2.339   2.598  -0.031
 1515HOH      O 4731   3.068   1.513   3.644
 1515HOH     H1 4732   3.040   1.603   3.664
 1515HOH     H2 4733   3.099   1.517   3.554
 1516HOH      O 4734   3.817   3.036   3.100
 1516HOH     H1 4735   3.888   2.981   3.134
 1516HOH     H2 4736   3.803   3.102   3.168
 1517HOH      O 4737   1.388   1.205   1.710
 1517HOH     H1 4738   1.294   1.222   1.706
 1517HOH     H2 4739   1.429   1.290   1.697
 1518HOH      O 4740   0.265   0.888   3.148
 1518HOH     H1 4741   0.336   0.950   3.132
 1518HOH     H2 4742   0.296   0.805   3.110
 1519HOH      O 4743   0.612   3.628   1.173
 1519HOH     H1 4744   0.651   3.597   1.255
 1519HOH     H2 4745   0.664   3.587   1.104
 1520HOH      O 4746   1.263   2.575   3.362
 1520HOH     H1 4747   1.310   2.612   3.286
 1520HOH     H2 4748   1.173   2.565   3.332
 1521HOH      O 4749   3.700   2.360   3.704
 1521HOH     H1 4750   3.720   2.396   3.618
 1521HOH     H2 4751   3.641   2.287   3.686
 1522HOH      O 4752   1.228   1.294   1.370
 1522HOH     H1 4753   1.320   1.316   1.387
 1522HOH     H2 4754   1.183   1.317   1.452
 1523HOH      O 4755   3.251   3.668   2.683
 1523HOH     H1 4756   3.310   3.635   2.615
 1523HOH     H2 4757   3.193   3.595   2.702
 1524HOH      O 4758   1.443   1.924   2.084
 1524HOH     H1 4759   1.435   1.954   2.174
 1524HOH     H2 4760   1.527   1.878   2.082
 1525HOH      O 4761   2.194   2.399   0.540
 1525HOH     H1 4762   2.287   2.377   0.533
 1525HOH     H2 4763   2.189   2.456   0.617
 1526HOH      O 4764   3.119   3.956   3.083
 1526HOH     H1 4765   3.194   4.015   3.071
 1526HOH     H2 4766   3.144   3.876   3.038
 1527HOH      O 4767   0.336   1.073   3.646
 1527HOH     H1 4768   0.399   1.059   3.575
 1527HOH     H2 4769   0.250   1.062   3.604
 1528HOH      O 4770   2.623   2.204   1.131
 1528HOH     H1 4771   2.635   2.121   1.085
 1528HOH     H2 4772   2.536   2.234   1.104
 1529HOH      O 4773   0.804   3.591   0.011
 1529HOH     H1 4774   0.781   3.678   0.044
 1529HOH     H2 4775   0.823   3.540   0.089
 1530HOH      O 4776   1.041   0.159   1.383
 1530HOH     H1 4777   1.105   0.097   1.420
 1530HOH     H2 4778   0.981   0.177   1.455
 1531HOH      O 4779   0.654   2.536   2.206
 1531HOH     H1 4780   0.632   2.629   2.213
 1531HOH     H2 4781   0.747   2.532   2.225
 1532HOH      O 4782   2.774   1.767   1.357
 1532HOH     H1 4783   2.702   1.705   1.348
 1532HOH     H2 4784   2.836   1.724   1.417
 1533HOH      O 4785   3.064   3.716   1.885
 1533HOH     H1 4786   2.976   3.728   1.849
 1533HOH     H2 4787   3.123   3.731   1.811
 1534HOH      O 4788   3.406   2.549   2.830
 1534HOH     H1 4789   3.394   2.475   2.771
 1534HOH     H2 4790   3.462   2.609   2.782
 1535HOH      O 4791   0.240   0.621   0.903
 1535HOH     H1 4792   0.262   0.528   0.893
 1535HOH     H2 4793   0.304   0.654   0.966
 1536HOH      O 4794   0.232   3.144   1.209
 1536HOH     H1 4795   0.205   3.075   1.270
 1536HOH     H2 4796   0.328   3.143   1.213
 1537HOH      O 4797   0.205   0.871   0.751
 1537HOH     H1 4798   0.223   0.795   0.807
 1537HOH     H2 4799   0.242   0.846   0.666
 1538HOH      O 4800   3.755   3.614   3.579
 1538HOH     H1 4801   3.731   3.696   3.537
 1538HOH     H2 4802   3.674   3.564   3.583
 1539HOH      O 4803   0.768   0.162   1.826
 1539HOH     H1 4804   0.764   0.071   1.855
 1539HOH     H2 4805   0.759   0.213   1.906
 1540HOH      O 4806   2.136   2.971   0.984
 1540HOH     H1 4807   2.080   2.910   1.033
 1540HOH     H2 4808   2.218   2.974   1.035
 1541HOH      O 4809   2.881   2.038   2.729
 1541HOH     H1 4810   2.921   1.960   2.692
 1541HOH     H2 4811   2.892   2.027   2.824
 1542HOH      O 4812   2.245   1.744   2.218
 1542HOH     H1 4813   2.292   1.661   2.212
 1542HOH     H2 4814   2.303   1.807   2.174
 1543HOH      O 4815   3.456   2.756   1.624
 1543HOH     H1 4816   3.444   2.732   1.533
 1543HOH     H2 4817   3.519   2.692   1.658
 1544HOH      O 4818   0.155   0.886   3.825
 1544HOH     H1 4819   0.105   0.808   3.802
 1544HOH     H2 4820   0.183   0.923   3.741
 1545HOH      O 4821   0.379   0.438   1.342
 1545HOH     H1 4822   0.288   0.467   1.331
 1545HOH     H2 4823   0.373   0.343   1.353
 1546HOH      O 4824   0.825   0.982   2.212
 1546HOH     H1 4825   0.808   1.073   2.237
 1546HOH     H2 4826   0.783   0.972   2.126
 1547HOH      O 4827   2.970   1.199   2.184
 1547HOH     H1 4828   2.958   1.155   2.100
 1547HOH     H2 4829   3.032   1.143   2.231
 1548HOH      O 4830   2.503   3.785   3.635
 1548HOH     H1 4831   2.513   3.880   3.633
 1548HOH     H2 4832   2.593   3.752   3.634
 1549HOH      O 4833   2.233   2.652   0.983
 1549HOH     H1 4834   2.149   2.669   1.024
 1549HOH     H2 4835   2.271   2.581   1.035
 1550HOH      O 4836   2.494   0.518   0.081
 1550HOH     H1 4837   2.582   0.541   0.109
 1550HOH     H2 4838   2.504   0.434   0.035
 1551HOH      O 4839   2.824   2.850   3.132
 1551HOH     H1 4840   2.884   2.801   3.075
 1551HOH     H2 4841   2.761   2.890   3.072
 1552HOH      O 4842   0.164   1.968   0.346
 1552HOH     H1 4843   0.126   2.040   0.396
 1552HOH     H2 4844   0.232   1.933   0.403
 1553HOH      O 4845   3.523   1.654   2.864
 1553HOH     H1 4846   3.468   1.661   2.942
 1553HOH     H2 4847   3.479   1.709   2.798
 1554HOH      O 4848   3.235   1.049   0.509
 1554HOH     H1 4849   3.194   0.963   0.510
 1554HOH     H2 4850   3.178   1.103   0.455
 1555HOH      O 4851   2.820   3.697   1.756
 1555HOH     H1 4852   2.729   3.672   1.739
 1555HOH     H2 4853   2.869   3.663   1.681
 1556HOH      O 4854   3.990   1.696   0.246
 1556HOH     H1 4855   4.066   1.718   0.191
 1556HOH     H2 4856   3.916   1.738   0.202
 1557HOH      O 4857   0.197   1.956   0.657
 1557HOH     H1 4858   0.257   1.883   0.642
 1557HOH     H2 4859   0.112   1.923   0.627
 1558HOH      O 4860   0.156   1.821   0.100
 1558HOH     H1 4861   0.153   1.870   0.183
 1558HOH     H2 4862   0.238   1.773   0.103
 1559HOH      O 4863   1.243   1.563   1.938
 1559HOH     H1 4864   1.229   1.640   1.992
 1559HOH     H2 4865   1.202   1.584   1.854
 1560HOH      O 4866   1.100   3.779   3.585
 1560HOH     H1 4867   1.079   3.745   3.498
 1560HOH     H2 4868   1.059   3.866   3.588
 1561HOH      O 4869   3.521   2.136   2.527
 1561HOH     H1 4870   3.593   2.078   2.555
 1561HOH     H2 4871   3.442   2.088   2.551
 1562HOH      O 4872   2.016   3.818   3.501
 1562HOH     H1 4873   2.020   3.722   3.510
 1562HOH     H2 4874   2.105   3.848   3.520
 1563HOH      O 4875   0.378   0.145   1.279
 1563HOH     H1 4876   0.444   0.161   1.212
 1563HOH     H2 4877   0.302   0.113   1.230
 1564HOH      O 4878   2.838   3.931   3.262
 1564HOH     H1 4879   2.893   3.865   3.303
 1564HOH     H2 4880   2.749   3.904   3.283
 1565HOH      O 4881   0.921   0.251   3.295
 1565HOH     H1 4882   0.920   0.157   3.278
 1565HOH     H2 4883   0.993   0.263   3.358
 1566HOH      O 4884   2.544   2.400   3.270
 1566HOH     H1 4885   2.639   2.405   3.262
 1566HOH     H2 4886   2.511   2.438   3.188
 1567HOH      O 4887   3.220   3.378   3.351
 1567HOH     H1 4888   3.127   3.369   3.333
 1567HOH     H2 4889   3.261   3.304   3.306
 1568HOH      O 4890   2.912   2.773   1.969
 1568HOH     H1 4891   2.903   2.752   1.876
 1568HOH     H2 4892   2.840   2.728   2.012
 1569HOH      O 4893   3.187   0.242   0.091
 1569HOH     H1 4894   3.225   0.250   0.003
 1569HOH     H2 4895   3.188   0.148   0.109
 1570HOH      O 4896   0.217   2.653   3.084
 1570HOH     H1 4897   0.251   2.742   3.095
 1570HOH     H2 4898   0.287   2.606   3.039
 1571HOH      O 4899   0.174   1.723   0.989
 1571HOH     H1 4900   0.216   1.754   0.909
 1571HOH     H2 4901   0.232   1.754   1.059
 1572HOH      O 4902   3.735   1.228   0.757
 1572HOH     H1 4903   3.678   1.168   0.709
 1572HOH     H2 4904   3.773   1.174   0.827
 1573HOH      O 4905   0.277   2.702   0.324
 1573HOH     H1 4906   0.226   2.749   0.390
 1573HOH     H2 4907   0.358   2.752   0.316
 1574HOH      O 4908   2.220   0.590   3.412
 1574HOH     H1 4909   2.195   0.671   3.456
 1574HOH     H2 4910   2.310   0.606   3.383
 1575HOH      O 4911   2.652   0.181   2.231
 1575HOH     H1 4912   2.574   0.128   2.212
 1575HOH     H2 4913   2.660   0.177   2.326
 1576HOH      O 4914   2.000   1.700   1.081
 1576HOH     H1 4915   1.989   1.775   1.023
 1576HOH     H2 4916   1.973   1.731   1.167
 1577HOH      O 4917   3.938   1.634   1.292
 1577HOH     H1 4918   3.992   1.574   1.241
 1577HOH     H2 4919   3.968   1.623   1.382
 1578HOH      O 4920   3.475   3.210   1.060
 1578HOH     H1 4921   3.496   3.117   1.075
 1578HOH     H2 4922   3.559   3.249   1.037
 1579HOH      O 4923   1.293   3.609   2.321
 1579HOH     H1 4924   1.388   3.617   2.319
 1579HOH     H2 4925   1.262   3.695   2.291
 1580HOH      O 4926   0.874   0.177   2.307
 1580HOH     H1 4927   0.813   0.113   2.273
 1580HOH     H2 4928   0.837   0.262   2.280
 1581HOH      O 4929   2.767   2.078   3.731
 1581HOH     H1 4930   2.672   2.080   3.740
 1581HOH     H2 4931   2.796   2.021   3.802
 1582HOH      O 4932   3.601   3.759   1.696
 1582HOH     H1 4933   3.653   3.761   1.616
 1582HOH     H2 4934   3.658   3.715   1.760
 1583HOH      O 4935   3.482   3.998   1.746
 1583HOH     H1 4936   3.514   4.051   1.673
 1583HOH     H2 4937   3.526   3.913   1.734
 1584HOH      O 4938   3.526   0.405   0.652
 1584HOH     H1 4939   3.462   0.472   0.629
 1584HOH     H2 4940   3.568   0.437   0.731
 1585HOH      O 4941   0.889   3.026   0.725
 1585HOH     H1 4942   0.865   2.934   0.732
 1585HOH     H2 4943   0.826   3.062   0.663
 1586HOH      O 4944   1.713   0.779   3.671
 1586HOH     H1 4945   1.789   0.831   3.700
 1586HOH     H2 4946   1.734   0.689   3.697
 1587HOH      O 4947   3.946   3.076   1.066
 1587HOH     H1 4948   3.987   3.005   1.116
 1587HOH     H2 4949   4.019   3.128   1.035
 1588HOH      O 4950   2.995   0.469   1.157
 1588HOH     H1 4951   2.921   0.473   1.097
 1588HOH     H2 4952   2.975   0.535   1.223
 1589HOH      O 4953   1.374   2.400   3.815
 1589HOH     H1 4954   1.357   2.375   3.724
 1589HOH     H2 4955   1.437   2.334   3.845
 1590HOH      O 4956   3.910   3.733   0.523
 1590HOH     H1 4957   3.944   3.644   0.523
 1590HOH     H2 4958   3.885   3.750   0.433
 1591HOH      O 4959   0.103   0.186   1.661
 1591HOH     H1 4960   0.177   0.128   1.678
 1591HOH     H2 4961   0.027   0.128   1.658
 1592HOH      O 4962   2.194   0.943   1.251
 1592HOH     H1 4963   2.265   0.887   1.281
 1592HOH     H2 4964   2.235   1.028   1.237
 1593HOH      O 4965   1.325   0.694   1.502
 1593HOH     H1 4966   1.341   0.694   1.597
 1593HOH     H2 4967   1.372   0.771   1.470
 1594HOH      O 4968   3.016   0.468   0.090
 1594HOH     H1 4969   3.080   0.529   0.126
 1594HOH     H2 4970   3.047   0.381   0.117
 1595HOH      O 4971   0.025   0.460   3.441
 1595HOH     H1 4972   0.079   0.539   3.435
 1595HOH     H2 4973   0.077   0.399   3.493
 1596HOH      O 4974   3.342   0.172   0.890
 1596HOH     H1 4975   3.397   0.135   0.821
 1596HOH     H2 4976   3.317   0.096   0.943
 1597HOH      O 4977   0.724   3.747   2.086
 1597HOH     H1 4978   0.633   3.731   2.060
 1597HOH     H2 4979   0.749   3.669   2.136
 1598HOH      O 4980   2.501   3.113   1.462
 1598HOH     H1 4981   2.456   3.174   1.403
 1598HOH     H2 4982   2.522   3.166   1.539
 1599HOH      O 4983   3.155   1.345   0.563
 1599HOH     H1 4984   3.250   1.353   0.554
 1599HOH     H2 4985   3.121   1.430   0.535
 1600HOH      O 4986   3.378   0.161   1.929
 1600HOH     H1 4987   3.409   0.116   1.851
 1600HOH     H2 4988   3.294   0.200   1.903
 1601HOH      O 4989   3.795   2.367   2.997
 1601HOH     H1 4990   3.818   2.306   2.927
 1601HOH     H2 4991   3.795   2.453   2.955
 1602HOH      O 4992   1.559   0.188   2.620
 1602HOH     H1 4993   1.572   0.093   2.624
 1602HOH     H2 4994   1.468   0.199   2.594
 1603HOH      O 4995   2.394   3.796   1.420
 1603HOH     H1 4996   2.408   3.869   1.361
 1603HOH     H2 4997   2.360   3.726   1.364
 1604HOH      O 4998   3.168   4.000   0.109
 1604HOH     H1 4999   3.073   3.989   0.109
 1604HOH     H2 5000   3.202   3.921   0.152
 1605HOH      O 5001   0.492   3.696   1.511
 1605HOH     H1 5002   0.484   3.617   1.458
 1605HOH     H2 5003   0.445   3.763   1.461
 1606HOH      O 5004   3.303   0.888   3.559
 1606HOH     H1 5005   3.235   0.824   3.541
 1606HOH     H2 5006   3.360   0.885   3.482
 1607HOH      O 5007   3.599   1.435   1.373
 1607HOH     H1 5008   3.549   1.505   1.416
 1607HOH     H2 5009   3.576   1.356   1.423
 1608HOH      O 5010   0.306   0.684   0.236
 1608HOH     H1 5011   0.389   0.732   0.233
 1608HOH     H2 5012   0.271   0.692   0.148
 1609HOH      O 5013   3.015   1.291   3.759
 1609HOH     H1 5014   2.920   1.303   3.759
 1609HOH     H2 5015   3.049   1.360   3.702
 1610HOH      O 5016   1.730   0.109   1.701
 1610HOH     H1 5017   1.745   0.042   1.634
 1610HOH     H2 5018   1.773   0.075   1.779
 1611HOH      O 5019   2.019   3.562   3.477
 1611HOH     H1 5020   1.950   3.497   3.478
 1611HOH     H2 5021   2.028   3.586   3.385
 1612HOH      O 5022   2.708   0.301   1.475
 1612HOH     H1 5023   2.619   0.308   1.439
 1612HOH     H2 5024   2.757   0.252   1.408
 1613HOH      O 5025   3.816   1.033   0.930
 1613HOH     H1 5026   3.840   1.072   1.014
 1613HOH     H2 5027   3.767   0.954   0.954
 1614HOH      O 5028   1.459   3.502   1.519
 1614HOH     H1 5029   1.537   3.488   1.466
 1614HOH     H2 5030   1.492   3.505   1.609
 1615HOH      O 5031   1.864   3.785   1.828
 1615HOH     H1 5032   1.941   3.814   1.877
 1615HOH     H2 5033   1.814   3.865   1.811
 1616HOH      O 5034   0.234   2.768   3.642
 1616HOH     H1 5035   0.292   2.714   3.588
 1616HOH     H2 5036   0.278   2.773   3.727
 1617HOH      O 5037   2.002   2.697   0.553
 1617HOH     H1 5038   1.981   2.639   0.627
 1617HOH     H2 5039   2.082   2.742   0.581
 1618HOH      O 5040   1.360   2.410   3.532
 1618HOH     H1 5041   1.336   2.474   3.465
 1618HOH     H2 5042   1.392   2.335   3.483
 1619HOH      O 5043   2.822  -0.006   2.185
 1619HOH     H1 5044   2.780   0.080   2.186
 1619HOH     H2 5045   2.849  -0.021   2.276
 1620HOH      O 5046   3.382   0.390   2.891
 1620HOH     H1 5047   3.359   0.482   2.906
 1620HOH     H2 5048   3.300   0.342   2.909
 1621HOH      O 5049   3.877   0.045   1.642
 1621HOH     H1 5050   3.907  -0.045   1.627
 1621HOH     H2 5051   3.848   0.075   1.556
 1622HOH      O 5052   3.697   1.439   2.873
 1622HOH     H1 5053   3.642   1.518   2.876
 1622HOH     H2 5054   3.669   1.388   2.949
 1623HOH      O 5055   3.848   2.800   0.966
 1623HOH     H1 5056   3.845   2.851   0.885
 1623HOH     H2 5057   3.881   2.862   1.031
 1624HOH      O 5058   2.820   2.800   1.298
 1624HOH     H1 5059   2.823   2.809   1.394
 1624HOH     H2 5060   2.803   2.888   1.266
 1625HOH      O 5061   0.363   1.713   0.775
 1625HOH     H1 5062   0.419   1.646   0.816
 1625HOH     H2 5063   0.320   1.667   0.703
 1626HOH      O 5064   2.490   2.125   3.752
 1626HOH     H1 5065   2.430   2.105   3.824
 1626HOH     H2 5066   2.493   2.221   3.749
 1627HOH      O 5067   3.865   1.665   3.296
 1627HOH     H1 5068   3.893   1.688   3.384
 1627HOH     H2 5069   3.806   1.736   3.270
 1628HOH      O 5070   1.607   2.935   3.164
 1628HOH     H1 5071   1.641   2.972   3.083
 1628HOH     H2 5072   1.553   2.861   3.136
 1629HOH      O 5073   0.344   1.653   4.002
 1629HOH     H1 5074   0.412   1.614   4.057
 1629HOH     H2 5075   0.278   1.584   3.992
 1630HOH      O 5076   1.884   1.132   2.325
 1630HOH     H1 5077   1.826   1.059   2.302
 1630HOH     H2 5078   1.860   1.202   2.264
 1631HOH      O 5079   0.827   3.472   1.087
 1631HOH     H1 5080   0.837   3.384   1.050
 1631HOH     H2 5081   0.848   3.531   1.015
 1632HOH      O 5082   2.269   0.767   0.341
 1632HOH     H1 5083   2.191   0.794   0.389
 1632HOH     H2 5084   2.334   0.834   0.362
 1633HOH      O 5085   0.336   2.963   1.681
 1633HOH     H1 5086   0.295   2.974   1.767
 1633HOH     H2 5087   0.386   2.882   1.688
 1634HOH      O 5088   2.414   1.370   3.231
 1634HOH     H1 5089   2.364   1.452   3.230
 1634HOH     H2 5090   2.401   1.334   3.143
 1635HOH      O 5091   2.614   0.799   3.786
 1635HOH     H1 5092   2.615   0.704   3.771
 1635HOH     H2 5093   2.581   0.835   3.704
 1636HOH      O 5094   3.380   3.957   3.644
 1636HOH     H1 5095   3.386   4.023   3.576
 1636HOH     H2 5096   3.320   3.994   3.708
 1637HOH      O 5097   2.179   1.378   2.420
 1637HOH     H1 5098   2.233   1.416   2.350
 1637HOH     H2 5099   2.201   1.285   2.419
 1638HOH      O 5100   3.060   2.538   0.158
 1638HOH     H1 5101   3.079   2.527   0.065
 1638HOH     H2 5102   3.072   2.631   0.175
 1639HOH      O 5103   3.135   2.824   2.297
 1639HOH     H1 5104   3.079   2.893   2.261
 1639HOH     H2 5105   3.202   2.871   2.347
 1640HOH      O 5106   1.045   3.726   0.168
 1640HOH     H1 5107   0.974   3.662   0.170
 1640HOH     H2 5108   1.122   3.677   0.140
 1641HOH      O 5109   1.856   0.564   3.702
 1641HOH     H1 5110   1.878   0.521   3.620
 1641HOH     H2 5111   1.940   0.578   3.745
 1642HOH      O 5112   2.349   0.562   0.526
 1642HOH     H1 5113   2.314   0.584   0.612
 1642HOH     H2 5114   2.310   0.627   0.467
 1643HOH      O 5115   1.399   3.618   3.113
 1643HOH     H1 5116   1.420   3.531   3.147
 1643HOH     H2 5117   1.310   3.636   3.146
 1644HOH      O 5118   1.268   3.061   2.271
 1644HOH     H1 5119   1.256   3.136   2.213
 1644HOH     H2 5120   1.264   3.098   2.359
 1645HOH      O 5121   2.142   0.413   3.210
 1645HOH     H1 5122   2.053   0.444   3.199
 1645HOH     H2 5123   2.175   0.462   3.286
 1646HOH      O 5124   1.514   3.601   3.487
 1646HOH     H1 5125   1.450   3.631   3.552
 1646HOH     H2 5126   1.598   3.605   3.532
 1647HOH      O 5127   3.949   0.901   0.259
 1647HOH     H1 5128   3.981   0.826   0.309
 1647HOH     H2 5129   3.888   0.946   0.318
 1648HOH      O 5130   0.097   2.876   3.885
 1648HOH     H1 5131   0.160   2.911   3.822
 1648HOH     H2 5132   0.020   2.856   3.831
 1649HOH      O 5133   2.450   2.689   0.535
 1649HOH     H1 5134   2.405   2.661   0.615
 1649HOH     H2 5135   2.543   2.681   0.556
 1650HOH      O 5136   0.964   1.271   2.667
 1650HOH     H1 5137   0.882   1.223   2.677
 1650HOH     H2 5138   1.024   1.207   2.628
 1651HOH      O 5139   1.183   3.274   0.982
 1651HOH     H1 5140   1.165   3.351   1.037
 1651HOH     H2 5141   1.269   3.291   0.944
 1652HOH      O 5142   0.466   3.581   1.872
 1652HOH     H1 5143   0.435   3.585   1.963
 1652HOH     H2 5144   0.403   3.525   1.828
 1653HOH      O 5145   0.682   3.703   0.455
 1653HOH     H1 5146   0.774   3.693   0.478
 1653HOH     H2 5147   0.654   3.782   0.501
 1654HOH      O 5148   1.504   0.879   1.369
 1654HOH     H1 5149   1.439   0.885   1.299
 1654HOH     H2 5150   1.583   0.847   1.326
 1655HOH      O 5151   3.597   2.795   1.969
 1655HOH     H1 5152   3.615   2.817   2.060
 1655HOH     H2 5153   3.674   2.746   1.940
 1656HOH      O 5154   2.980   1.133   3.995
 1656HOH     H1 5155   3.054   1.073   3.990
 1656HOH     H2 5156   3.014   1.216   3.961
 1657HOH      O 5157   2.799   0.424   2.165
 1657HOH     H1 5158   2.857   0.407   2.239
 1657HOH     H2 5159   2.733   0.355   2.170
 1658HOH      O 5160   2.961   1.828   2.573
 1658HOH     H1 5161   3.042   1.855   2.529
 1658HOH     H2 5162   2.892   1.845   2.509
 1659HOH      O 5163   0.437   2.840   2.523
 1659HOH     H1 5164   0.465   2.748   2.528
 1659HOH     H2 5165   0.428   2.858   2.430
 1660HOH      O 5166   1.257   2.228   1.657
 1660HOH     H1 5167   1.213   2.145   1.674
 1660HOH     H2 5168   1.347   2.214   1.685
 1661HOH      O 5169   2.728   2.378   2.155
 1661HOH     H1 5170   2.723   2.290   2.117
 1661HOH     H2 5171   2.669   2.375   2.230
 1662HOH      O 5172   3.213   1.448   2.620
 1662HOH     H1 5173   3.198   1.353   2.619
 1662HOH     H2 5174   3.308   1.457   2.612
 1663HOH      O 5175   1.115   2.441   0.104
 1663HOH     H1 5176   1.103   2.365   0.047
 1663HOH     H2 5177   1.028   2.456   0.141
 1664HOH      O 5178   2.144  -0.025   1.066
 1664HOH     H1 5179   2.218  -0.032   1.007
 1664HOH     H2 5180   2.113   0.065   1.055
 1665HOH      O 5181   4.006   1.335   0.905
 1665HOH     H1 5182   4.065   1.260   0.903
 1665HOH     H2 5183   3.978   1.346   0.814
 1666HOH      O 5184   2.590   0.878   0.612
 1666HOH     H1 5185   2.682   0.855   0.625
 1666HOH     H2 5186   2.541   0.812   0.661
 1667HOH      O 5187   2.449   1.237   0.272
 1667HOH     H1 5188   2.517   1.288   0.315
 1667HOH     H2 5189   2.429   1.287   0.192
 1668HOH      O 5190   2.087   0.335   2.719
 1668HOH     H1 5191   2.046   0.309   2.801
 1668HOH     H2 5192   2.066   0.264   2.658
 1669HOH      O 5193   4.059   3.457   1.666
 1669HOH     H1 5194   3.985   3.425   1.718
 1669HOH     H2 5195   4.038   3.431   1.577
 1670HOH      O 5196   1.124   1.572   1.151
 1670HOH     H1 5197   1.058   1.589   1.084
 1670HOH     H2 5198   1.083   1.508   1.210
 1671HOH      O 5199   0.312   2.144   1.995
 1671HOH     H1 5200   0.322   2.069   2.054
 1671HOH     H2 5201   0.398   2.151   1.952
 1672HOH      O 5202   1.508   1.749   1.794
 1672HOH     H1 5203   1.562   1.730   1.717
 1672HOH     H2 5204   1.540   1.689   1.861
 1673HOH      O 5205   2.755   1.672   3.063
 1673HOH     H1 5206   2.723   1.638   3.146
 1673HOH     H2 5207   2.848   1.647   3.061
 1674HOH      O 5208   1.816   2.785   3.291
 1674HOH     H1 5209   1.730   2.819   3.266
 1674HOH     H2 5210   1.876   2.822   3.226
 1675HOH      O 5211   3.186   0.704   0.215
 1675HOH     H1 5212   3.259   0.723   0.274
 1675HOH     H2 5213   3.228   0.683   0.131
 1676HOH      O 5214   3.209   3.739   0.219
 1676HOH     H1 5215   3.298   3.707   0.207
 1676HOH     H2 5216   3.192   3.730   0.313
 1677HOH      O 5217   0.773   1.603   0.866
 1677HOH     H1 5218   0.763   1.664   0.792
 1677HOH     H2 5219   0.867   1.583   0.867
 1678HOH      O 5220   3.989   0.469   2.526
 1678HOH     H1 5221   3.976   0.562   2.545
 1678HOH     H2 5222   4.027   0.468   2.439
 1679HOH      O 5223   3.857   4.046   3.685
 1679HOH     H1 5224   3.791   3.987   3.721
 1679HOH     H2 5225   3.938   3.996   3.688
 1680HOH      O 5226   3.505   0.904   1.375
 1680HOH     H1 5227   3.447   0.965   1.329
 1680HOH     H2 5228   3.492   0.821   1.331
 1681HOH      O 5229   1.771   1.019   2.698
 1681HOH     H1 5230   1.785   1.114   2.704
 1681HOH     H2 5231   1.678   1.009   2.677
 1682HOH      O 5232   0.992   0.995   1.869
 1682HOH     H1 5233   0.903   1.027   1.852
 1682HOH     H2 5234   1.029   0.981   1.782
 1683HOH      O 5235   2.865   3.341   1.350
 1683HOH     H1 5236   2.814   3.268   1.384
 1683HOH     H2 5237   2.953   3.306   1.340
 1684HOH      O 5238   2.485   1.639   1.239
 1684HOH     H1 5239   2.434   1.698   1.294
 1684HOH     H2 5240   2.501   1.562   1.293
 1685HOH      O 5241   3.751   1.442   0.944
 1685HOH     H1 5242   3.841   1.415   0.927
 1685HOH     H2 5243   3.698   1.388   0.885
 1686HOH      O 5244   0.931   0.560   0.796
 1686HOH     H1 5245   0.884   0.478   0.783
 1686HOH     H2 5246   1.009   0.534   0.846
 1687HOH      O 5247   3.371   3.251   2.815
 1687HOH     H1 5248   3.332   3.171   2.849
 1687HOH     H2 5249   3.296   3.305   2.790
 1688HOH      O 5250   0.615   3.136   2.205
 1688HOH     H1 5251   0.539   3.078   2.217
 1688HOH     H2 5252   0.685   3.094   2.255
 1689HOH      O 5253   0.290   1.594   2.662
 1689HOH     H1 5254   0.221   1.639   2.711
 1689HOH     H2 5255   0.268   1.608   2.570
 1690HOH      O 5256   2.942   3.623   1.499
 1690HOH     H1 5257   2.955   3.539   1.453
 1690HOH     H2 5258   2.849   3.644   1.484
 1691HOH      O 5259   2.172   0.852   3.502
 1691HOH     H1 5260   2.094   0.894   3.539
 1691HOH     H2 5261   2.206   0.916   3.440
 1692HOH      O 5262   3.295   2.342   3.668
 1692HOH     H1 5263   3.204   2.316   3.685
 1692HOH     H2 5264   3.325   2.281   3.601
 1693HOH      O 5265   1.841   0.816   1.708
 1693HOH     H1 5266   1.862   0.772   1.790
 1693HOH     H2 5267   1.868   0.907   1.721
 1694HOH      O 5268   2.890   3.686   1.012
 1694HOH     H1 5269   2.922   3.776   1.004
 1694HOH     H2 5270   2.954   3.644   1.070
 1695HOH      O 5271   0.913   1.327   3.573
 1695HOH     H1 5272   0.891   1.319   3.480
 1695HOH     H2 5273   0.837   1.370   3.612
 1696HOH      O 5274   2.700   2.159   2.580
 1696HOH     H1 5275   2.633   2.093   2.566
 1696HOH     H2 5276   2.769   2.114   2.629
 1697HOH      O 5277   1.978   1.296   3.749
 1697HOH     H1 5278   2.039   1.229   3.780
 1697HOH     H2 5279   2.025   1.378   3.763
 1698HOH      O 5280   3.528   0.322   2.630
 1698HOH     H1 5281   3.502   0.361   2.713
 1698HOH     H2 5282   3.610   0.364   2.608
 1699HOH      O 5283   2.862   1.089   3.466
 1699HOH     H1 5284   2.839   1.095   3.373
 1699HOH     H2 5285   2.953   1.119   3.471
 1700HOH      O 5286   2.963   1.780   3.669
 1700HOH     H1 5287   2.893   1.806   3.728
 1700HOH     H2 5288   3.028   1.850   3.677
 1701HOH      O 5289   2.877   2.120   0.670
 1701HOH     H1 5290   2.868   2.040   0.723
 1701HOH     H2 5291   2.815   2.182   0.709
 1702HOH      O 5292   1.746   3.344   0.258
 1702HOH     H1 5293   1.662   3.369   0.219
 1702HOH     H2 5294   1.745   3.386   0.344
 1703HOH      O 5295   3.053   3.333   1.593
 1703HOH     H1 5296   3.112   3.351   1.666
 1703HOH     H2 5297   2.966   3.330   1.634
 1704HOH      O 5298   2.309   3.755   3.806
 1704HOH     H1 5299   2.291   3.661   3.811
 1704HOH     H2 5300   2.374   3.764   3.738
 1705HOH      O 5301   0.335   1.217   0.132
 1705HOH     H1 5302   0.413   1.256   0.172
 1705HOH     H2 5303   0.262   1.263   0.172
 1706HOH      O 5304   0.884   1.102   1.579
 1706HOH     H1 5305   0.930   1.184   1.559
 1706HOH     H2 5306   0.952   1.035   1.577
 1707HOH      O 5307   1.655   3.105   3.416
 1707HOH     H1 5308   1.651   3.035   3.350
 1707HOH     H2 5309   1.746   3.106   3.443
 1708HOH      O 5310   1.268   3.231   0.374
 1708HOH     H1 5311   1.264   3.235   0.470
 1708HOH     H2 5312   1.188   3.183   0.349
 1709HOH      O 5313   3.940   0.957   0.675
 1709HOH     H1 5314   3.995   0.885   0.708
 1709HOH     H2 5315   3.900   0.994   0.754
 1710HOH      O 5316   0.693   3.166   0.574
 1710HOH     H1 5317   0.637   3.144   0.648
 1710HOH     H2 5318   0.694   3.087   0.520
 1711HOH      O 5319   2.795   2.405   1.098
 1711HOH     H1 5320   2.750   2.326   1.129
 1711HOH     H2 5321   2.880   2.374   1.068
 1712HOH      O 5322   1.178   2.612   0.350
 1712HOH     H1 5323   1.170   2.581   0.440
 1712HOH     H2 5324   1.127   2.549   0.298
 1713HOH      O 5325   0.850   3.027   2.364
 1713HOH     H1 5326   0.876   2.952   2.311
 1713HOH     H2 5327   0.901   3.019   2.444
 1714HOH      O 5328   0.169   3.565   0.809
 1714HOH     H1 5329   0.217   3.520   0.878
 1714HOH     H2 5330   0.164   3.656   0.838
 1715HOH      O 5331   2.797   3.268   2.750
 1715HOH     H1 5332   2.789   3.258   2.845
 1715HOH     H2 5333   2.710   3.244   2.717
 1716HOH      O 5334   2.368   0.984   0.107
 1716HOH     H1 5335   2.432   1.026   0.165
 1716HOH     H2 5336   2.409   0.901   0.083
 1717HOH      O 5337   2.499   2.022   3.452
 1717HOH     H1 5338   2.490   2.048   3.543
 1717HOH     H2 5339   2.432   2.071   3.405
 1718HOH      O 5340   2.425   0.779   1.389
 1718HOH     H1 5341   2.389   0.695   1.361
 1718HOH     H2 5342   2.385   0.794   1.475
 1719HOH      O 5343   1.691   3.794   3.822
 1719HOH     H1 5344   1.690   3.730   3.893
 1719HOH     H2 5345   1.648   3.872   3.859
 1720HOH      O 5346   0.909   3.482   1.367
 1720HOH     H1 5347   0.865   3.408   1.409
 1720HOH     H2 5348   0.887   3.473   1.274
 1721HOH      O 5349   2.942   2.129   1.487
 1721HOH     H1 5350   2.849   2.113   1.476
 1721HOH     H2 5351   2.949   2.222   1.509
 1722HOH      O 5352   0.587   2.695   2.845
 1722HOH     H1 5353   0.669   2.656   2.816
 1722HOH     H2 5354   0.555   2.637   2.913
 1723HOH      O 5355   2.734   3.417   3.145
 1723HOH     H1 5356   2.649   3.433   3.185
 1723HOH     H2 5357   2.736   3.323   3.130
 1724HOH      O 5358   0.299   2.181   0.780
 1724HOH     H1 5359   0.280   2.094   0.744
 1724HOH     H2 5360   0.349   2.163   0.860
 1725HOH      O 5361   1.225   3.928   2.320
 1725HOH     H1 5362   1.187   3.989   2.383
 1725HOH     H2 5363   1.315   3.958   2.308
 1726HOH      O 5364   3.679   0.605   0.780
 1726HOH     H1 5365   3.609   0.669   0.784
 1726HOH     H2 5366   3.707   0.605   0.688
 1727HOH      O 5367   3.249   3.385   2.262
 1727HOH     H1 5368   3.173   3.374   2.205
 1727HOH     H2 5369   3.275   3.476   2.250
 1728HOH      O 5370   1.196   3.547   2.560
 1728HOH     H1 5371   1.210   3.576   2.470
 1728HOH     H2 5372   1.113   3.587   2.585
 1729HOH      O 5373   1.054   2.482   1.063
 1729HOH     H1 5374   1.111   2.447   1.132
 1729HOH     H2 5375   0.997   2.544   1.108
 1730HOH      O 5376   2.055   1.903   3.430
 1730HOH     H1 5377   2.112   1.928   3.503
 1730HOH     H2 5378   2.061   1.976   3.369
 1731HOH      O 5379   2.225   2.336   0.141
 1731HOH     H1 5380   2.266   2.411   0.099
 1731HOH     H2 5381   2.196   2.281   0.067
 1732HOH      O 5382   3.731   2.953   0.308
 1732HOH     H1 5383   3.713   2.876   0.254
 1732HOH     H2 5384   3.755   2.918   0.393
 1733HOH      O 5385   3.372   3.097   1.782
 1733HOH     H1 5386   3.342   3.136   1.864
 1733HOH     H2 5387   3.383   3.171   1.723
 1734HOH      O 5388   0.151   0.288   0.655
 1734HOH     H1 5389   0.107   0.374   0.654
 1734HOH     H2 5390   0.231   0.302   0.605
 1735HOH      O 5391   3.048   0.039   3.587
 1735HOH     H1 5392   3.116   0.026   3.521
 1735HOH     H2 5393   3.091   0.017   3.670
 1736HOH      O 5394   3.295   2.503   1.748
 1736HOH     H1 5395   3.387   2.525   1.734
 1736HOH     H2 5396   3.272   2.547   1.830
 1737HOH      O 5397   2.531   0.921   3.177
 1737HOH     H1 5398   2.494   0.938   3.091
 1737HOH     H2 5399   2.477   0.971   3.237
 1738HOH      O 5400   0.431   0.704   3.409
 1738HOH     H1 5401   0.462   0.668   3.325
 1738HOH     H2 5402   0.476   0.788   3.417
 1739HOH      O 5403   2.096   1.219   3.303
 1739HOH     H1 5404   2.091   1.294   3.362
 1739HOH     H2 5405   2.078   1.255   3.216
 1740HOH      O 5406   1.574   1.355   0.970
 1740HOH     H1 5407   1.620   1.399   0.898
 1740HOH     H2 5408   1.530   1.425   1.017
 1741HOH      O 5409   2.307   3.447   3.920
 1741HOH     H1 5410   2.291   3.391   3.995
 1741HOH     H2 5411   2.403   3.458   3.918
 1742HOH      O 5412   0.516   3.441   2.708
 1742HOH     H1 5413   0.504   3.403   2.620
 1742HOH     H2 5414   0.511   3.366   2.767
 1743HOH      O 5415   1.850   1.501   2.886
 1743HOH     H1 5416   1.807   1.557   2.822
 1743HOH     H2 5417   1.936   1.541   2.899
 1744HOH      O 5418   3.135   2.808   0.192
 1744HOH     H1 5419   3.195   2.815   0.118
 1744HOH     H2 5420   3.182   2.845   0.266
 1745HOH      O 5421   3.595   1.269   3.072
 1745HOH     H1 5422   3.569   1.314   3.152
 1745HOH     H2 5423   3.548   1.186   3.075
 1746HOH      O 5424   3.460   1.531   2.174
 1746HOH     H1 5425   3.402   1.468   2.132
 1746HOH     H2 5426   3.432   1.616   2.140
 1747HOH      O 5427   0.527   2.341   0.693
 1747HOH     H1 5428   0.574   2.264   0.727
 1747HOH     H2 5429   0.439   2.309   0.674
 1748HOH      O 5430   1.201   3.759   0.576
 1748HOH     H1 5431   1.179   3.811   0.499
 1748HOH     H2 5432   1.217   3.671   0.542
 1749HOH      O 5433   3.161   1.051   2.333
 1749HOH     H1 5434   3.238   0.994   2.336
 1749HOH     H2 5435   3.177   1.118   2.399
 1750HOH      O 5436  -0.022   0.533   3.082
 1750HOH     H1 5437   0.046   0.559   3.020
 1750HOH     H2 5438   0.025   0.513   3.163
 1751HOH      O 5439   3.065   2.148   3.378
 1751HOH     H1 5440   3.036   2.131   3.289
 1751HOH     H2 5441   2.993   2.115   3.433
 1752HOH      O 5442   0.463   3.252   2.904
 1752HOH     H1 5443   0.398   3.279   2.969
 1752HOH     H2 5444   0.438   3.162   2.883
 1753HOH      O 5445   1.159   2.056   2.321
 1753HOH     H1 5446   1.095   2.093   2.260
 1753HOH     H2 5447   1.108   1.993   2.372
 1754HOH      O 5448   3.980   2.516   1.099
 1754HOH     H1 5449   3.889   2.542   1.089
 1754HOH     H2 5450   4.010   2.501   1.009
 1755HOH      O 5451   3.018   0.920   1.742
 1755HOH     H1 5452   3.113   0.931   1.733
 1755HOH     H2 5453   2.981   0.996   1.698
 1756HOH      O 5454   1.670   0.969   0.780
 1756HOH     H1 5455   1.700   0.902   0.842
 1756HOH     H2 5456   1.634   0.920   0.707
 1757HOH      O 5457   1.225   3.405   3.239
 1757HOH     H1 5458   1.273   3.396   3.322
 1757HOH     H2 5459   1.190   3.494   3.241
 1758HOH      O 5460   2.349   0.283   2.668
 1758HOH     H1 5461   2.348   0.292   2.573
 1758HOH     H2 5462   2.265   0.318   2.697
 1759HOH      O 5463   0.282   3.738   3.441
 1759HOH     H1 5464   0.276   3.695   3.527
 1759HOH     H2 5465   0.211   3.699   3.390
 1760HOH      O 5466   2.637   0.387   3.155
 1760HOH     H1 5467   2.557   0.426   3.190
 1760HOH     H2 5468   2.614   0.360   3.066
 1761HOH      O 5469   0.883   3.591   3.394
 1761HOH     H1 5470   0.789   3.607   3.408
 1761HOH     H2 5471   0.916   3.672   3.355
 1762HOH      O 5472   3.057   0.485   1.649
 1762HOH     H1 5473   3.007   0.553   1.694
 1762HOH     H2 5474   3.115   0.449   1.716
 1763HOH      O 5475   2.608   0.462   2.636
 1763HOH     H1 5476   2.674   0.527   2.610
 1763HOH     H2 5477   2.526   0.511   2.639
 1764HOH      O 5478   3.769   2.409   0.671
 1764HOH     H1 5479   3.798   2.382   0.583
 1764HOH     H2 5480   3.832   2.475   0.698
 1765HOH      O 5481   1.717   0.215   3.010
 1765HOH     H1 5482   1.739   0.151   2.942
 1765HOH     H2 5483   1.733   0.169   3.093
 1766HOH      O 5484   1.224   2.888   3.211
 1766HOH     H1 5485   1.309   2.873   3.169
 1766HOH     H2 5486   1.237   2.968   3.262
 1767HOH      O 5487   1.630   2.250   2.609
 1767HOH     H1 5488   1.589   2.277   2.692
 1767HOH     H2 5489   1.561   2.264   2.544
 1768HOH      O 5490   3.714   1.204   3.410
 1768HOH     H1 5491   3.680   1.226   3.497
 1768HOH     H2 5492   3.679   1.272   3.353
 1769HOH      O 5493   3.659   0.613   2.086
 1769HOH     H1 5494   3.638   0.562   2.164
 1769HOH     H2 5495   3.647   0.704   2.112
 1770HOH      O 5496   3.983   1.814   3.096
 1770HOH     H1 5497   4.032   1.851   3.169
 1770HOH     H2 5498   3.955   1.728   3.126
 1771HOH      O 5499   0.377   2.895   2.266
 1771HOH     H1 5500   0.431   2.868   2.192
 1771HOH     H2 5501   0.306   2.946   2.226
 1772HOH      O 5502   0.352   0.325   0.861
 1772HOH     H1 5503   0.407   0.335   0.784
 1772HOH     H2 5504   0.262   0.326   0.826
 1773HOH      O 5505   4.004   3.374   2.901
 1773HOH     H1 5506   3.966   3.287   2.895
 1773HOH     H2 5507   3.942   3.424   2.955
 1774HOH      O 5508   2.193   1.775   1.369
 1774HOH     H1 5509   2.218   1.851   1.315
 1774HOH     H2 5510   2.100   1.763   1.350
 1775HOH      O 5511   0.265   2.486   0.923
 1775HOH     H1 5512   0.292   2.528   0.842
 1775HOH     H2 5513   0.178   2.451   0.904
 1776HOH      O 5514   0.468   2.460   0.099
 1776HOH     H1 5515   0.429   2.480   0.014
 1776HOH     H2 5516   0.395   2.426   0.151
 1777HOH      O 5517   1.988   1.105   3.549
 1777HOH     H1 5518   1.980   1.194   3.582
 1777HOH     H2 5519   1.981   1.114   3.454
 1778HOH      O 5520   2.213   2.182   0.762
 1778HOH     H1 5521   2.267   2.205   0.687
 1778HOH     H2 5522   2.124   2.204   0.735
 1779HOH      O 5523   2.713   3.925   3.859
 1779HOH     H1 5524   2.761   3.896   3.781
 1779HOH     H2 5525   2.698   3.844   3.908
 1780HOH      O 5526   3.197   1.966   2.892
 1780HOH     H1 5527   3.266   1.942   2.830
 1780HOH     H2 5528   3.203   2.061   2.899
 1781HOH      O 5529   2.603   1.732   3.750
 1781HOH     H1 5530   2.581   1.671   3.821
 1781HOH     H2 5531   2.527   1.791   3.746
 1782HOH      O 5532   0.198   3.668   2.206
 1782HOH     H1 5533   0.294   3.665   2.201
 1782HOH     H2 5534   0.179   3.678   2.299
 1783HOH      O 5535   1.589   0.624   2.526
 1783HOH     H1 5536   1.523   0.693   2.513
 1783HOH     H2 5537   1.560   0.577   2.604
 1784HOH      O 5538   2.714   2.775   0.998
 1784HOH     H1 5539   2.624   2.805   1.006
 1784HOH     H2 5540   2.765   2.854   0.978
 1785HOH      O 5541   1.241   0.184   2.917
 1785HOH     H1 5542   1.251   0.196   2.823
 1785HOH     H2 5543   1.314   0.128   2.942
 1786HOH      O 5544   0.955   3.825   0.405
 1786HOH     H1 5545   0.966   3.796   0.314
 1786HOH     H2 5546   0.987   3.916   0.405
 1787HOH      O 5547   1.036   1.143   1.241
 1787HOH     H1 5548   0.963   1.200   1.217
 1787HOH     H2 5549   1.105   1.203   1.270
 1788HOH      O 5550   1.409   1.311   3.248
 1788HOH     H1 5551   1.430   1.404   3.239
 1788HOH     H2 5552   1.455   1.270   3.175
 1789HOH      O 5553   3.512   2.110   0.936
 1789HOH     H1 5554   3.551   2.065   1.011
 1789HOH     H2 5555   3.576   2.178   0.914
 1790HOH      O 5556   0.611   1.907   1.212
 1790HOH     H1 5557   0.703   1.894   1.188
 1790HOH     H2 5558   0.603   2.001   1.226
 1791HOH      O 5559   3.360   3.099   1.418
 1791HOH     H1 5560   3.420   3.054   1.478
 1791HOH     H2 5561   3.400   3.185   1.403
 1792HOH      O 5562   2.053   2.897   3.092
 1792HOH     H1 5563   2.148   2.894   3.106
 1792HOH     H2 5564   2.039   2.976   3.040
 1793HOH      O 5565   3.818   1.674   3.997
 1793HOH     H1 5566   3.735   1.717   3.976
 1793HOH     H2 5567   3.797   1.581   4.000
 1794HOH      O 5568   1.438   0.957   3.724
 1794HOH     H1 5569   1.522   1.003   3.715
 1794HOH     H2 5570   1.375   1.027   3.743
 1795HOH      O 5571   0.351   3.399   0.104
 1795HOH     H1 5572   0.443   3.414   0.083
 1795HOH     H2 5573   0.342   3.304   0.103
 1796HOH      O 5574   3.272   2.598   3.051
 1796HOH     H1 5575   3.315   2.576   2.969
 1796HOH     H2 5576   3.344   2.619   3.111
 1797HOH      O 5577   0.472   2.318   2.226
 1797HOH     H1 5578   0.532   2.389   2.202
 1797HOH     H2 5579   0.395   2.332   2.171
 1798HOH      O 5580   1.776   3.017   0.867
 1798HOH     H1 5581   1.738   2.942   0.913
 1798HOH     H2 5582   1.845   2.980   0.813
 1799HOH      O 5583   3.224   1.820   1.712
 1799HOH     H1 5584   3.314   1.820   1.680
 1799HOH     H2 5585   3.230   1.860   1.799
 1800HOH      O 5586   3.831   1.253   0.263
 1800HOH     H1 5587   3.858   1.332   0.310
 1800HOH     H2 5588   3.814   1.188   0.331
 1801HOH      O 5589   1.202   1.384   0.744
 1801HOH     H1 5590   1.220   1.295   0.775
 1801HOH     H2 5591   1.287   1.416   0.714
 1802HOH      O 5592   1.865   3.873   0.813
 1802HOH     H1 5593   1.939   3.890   0.754
 1802HOH     H2 5594   1.844   3.781   0.798
 1803HOH      O 5595   2.784   2.982   2.535
 1803HOH     H1 5596   2.705   3.007   2.584
 1803HOH     H2 5597   2.759   2.902   2.488
 1804HOH      O 5598   3.446   0.692   1.191
 1804HOH     H1 5599   3.397   0.655   1.265
 1804HOH     H2 5600   3.379   0.709   1.124
 1805HOH      O 5601   3.452   0.273   3.628
 1805HOH     H1 5602   3.544   0.264   3.601
 1805HOH     H2 5603   3.418   0.343   3.573
 1806HOH      O 5604   3.644   2.496   0.264
 1806HOH     H1 5605   3.659   2.427   0.199
 1806HOH     H2 5606   3.583   2.456   0.326
 1807HOH      O 5607   0.424   0.511   3.039
 1807HOH     H1 5608   0.409   0.419   3.018
 1807HOH     H2 5609   0.511   0.530   3.004
 1808HOH      O 5610   2.841   3.290   0.054
 1808HOH     H1 5611   2.782   3.348   0.103
 1808HOH     H2 5612   2.848   3.332  -0.032
 1809HOH      O 5613   0.493   3.183   1.227
 1809HOH     H1 5614   0.541   3.224   1.156
 1809HOH     H2 5615   0.494   3.248   1.297
 1810HOH      O 5616   2.199   2.456   3.755
 1810HOH     H1 5617   2.289   2.444   3.786
 1810HOH     H2 5618   2.197   2.544   3.718
 1811HOH      O 5619   0.191   1.241   3.833
 1811HOH     H1 5620   0.249   1.208   3.764
 1811HOH     H2 5621   0.174   1.332   3.809
 1812HOH      O 5622   3.323   0.056   3.017
 1812HOH     H1 5623   3.313   0.041   2.923
 1812HOH     H2 5624   3.400   0.113   3.024
 1813HOH      O 5625   0.136   1.287   1.747
 1813HOH     H1 5626   0.228   1.288   1.775
 1813HOH     H2 5627   0.134   1.222   1.677
 1814HOH      O 5628   3.055   3.852   2.134
 1814HOH     H1 5629   3.069   3.807   2.051
 1814HOH     H2 5630   2.981   3.910   2.117
 1815HOH      O 5631   3.602   3.170   2.688
 1815HOH     H1 5632   3.540   3.227   2.732
 1815HOH     H2 5633   3.631   3.108   2.755
 1816HOH      O 5634   0.071   0.332   1.403
 1816HOH     H1 5635   0.085   0.250   1.450
 1816HOH     H2 5636   0.071   0.399   1.471
 1817HOH      O 5637   0.366   1.754   1.177
 1817HOH     H1 5638   0.431   1.818   1.207
 1817HOH     H2 5639   0.418   1.684   1.137
 1818HOH      O 5640   1.374   3.931   3.510
 1818HOH     H1 5641   1.383   3.846   3.552
 1818HOH     H2 5642   1.359   3.992   3.582
 1819HOH      O 5643   0.176   1.712   1.960
 1819HOH     H1 5644   0.167   1.780   2.028
 1819HOH     H2 5645   0.149   1.757   1.879
 1820HOH      O 5646   3.859   0.428   0.439
 1820HOH     H1 5647   3.912   0.370   0.384
 1820HOH     H2 5648   3.779   0.378   0.456
 1821HOH      O 5649   3.509   3.898   2.676
 1821HOH     H1 5650   3.469   3.849   2.604
 1821HOH     H2 5651   3.556   3.969   2.634
 1822HOH      O 5652   3.594   2.373   1.336
 1822HOH     H1 5653   3.677   2.408   1.368
 1822HOH     H2 5654   3.531   2.395   1.405
 1823HOH      O 5655   0.701   0.386   2.060
 1823HOH     H1 5656   0.636   0.347   2.119
 1823HOH     H2 5657   0.686   0.480   2.069
 1824HOH      O 5658   1.220   0.997   2.021
 1824HOH     H1 5659   1.152   0.948   1.975
 1824HOH     H2 5660   1.172   1.046   2.089
 1825HOH      O 5661   0.076   3.426   1.383
 1825HOH     H1 5662   0.130   3.504   1.373
 1825HOH     H2 5663   0.137   3.353   1.372
 1826HOH      O 5664   2.938   3.705   2.351
 1826HOH     H1 5665   2.964   3.709   2.259
 1826HOH     H2 5666   2.995   3.767   2.396
 1827HOH      O 5667   2.614   2.586   1.285
 1827HOH     H1 5668   2.550   2.516   1.269
 1827HOH     H2 5669   2.568   2.650   1.339
 1828HOH      O 5670   3.872   0.517   1.218
 1828HOH     H1 5671   3.804   0.499   1.283
 1828HOH     H2 5672   3.829   0.500   1.134
 1829HOH      O 5673   0.456   0.080   0.239
 1829HOH     H1 5674   0.473   0.008   0.179
 1829HOH     H2 5675   0.516   0.150   0.212
 1830HOH      O 5676   2.528   3.120   3.439
 1830HOH     H1 5677   2.549   3.120   3.533
 1830HOH     H2 5678   2.564   3.038   3.406
 1831HOH      O 5679   1.987   1.326   3.084
 1831HOH     H1 5680   1.996   1.313   2.990
 1831HOH     H2 5681   1.895   1.347   3.097
 1832HOH      O 5682   0.516   0.804   3.723
 1832HOH     H1 5683   0.546   0.766   3.641
 1832HOH     H2 5684   0.547   0.895   3.720
 1833HOH      O 5685   0.548   0.782   0.232
 1833HOH     H1 5686   0.593   0.703   0.201
 1833HOH     H2 5687   0.616   0.835   0.273
 1834HOH      O 5688   2.085   2.860   0.034
 1834HOH     H1 5689   2.070   2.843   0.127
 1834HOH     H2 5690   1.998   2.852  -0.005
 1835HOH      O 5691   1.385   0.890   0.092
 1835HOH     H1 5692   1.415   0.980   0.082
 1835HOH     H2 5693   1.356   0.884   0.183
 1836HOH      O 5694   2.839   0.614   2.536
 1836HOH     H1 5695   2.921   0.661   2.552
 1836HOH     H2 5696   2.862   0.547   2.472
 1837HOH      O 5697   0.049   0.409   3.820
 1837HOH     H1 5698   0.054   0.348   3.894
 1837HOH     H2 5699   0.096   0.364   3.750
 1838HOH      O 5700   3.390   3.063   0.612
 1838HOH     H1 5701   3.306   3.084   0.653
 1838HOH     H2 5702   3.437   3.013   0.679
 1839HOH      O 5703   1.491   1.358   3.544
 1839HOH     H1 5704   1.551   1.400   3.605
 1839HOH     H2 5705   1.531   1.272   3.527
 1840HOH      O 5706   1.425   3.091   3.571
 1840HOH     H1 5707   1.517   3.103   3.546
 1840HOH     H2 5708   1.429   3.051   3.658
 1841HOH      O 5709   2.074   0.997   0.978
 1841HOH     H1 5710   2.097   0.939   1.051
 1841HOH     H2 5711   1.994   1.041   1.007
 1842HOH      O 5712   0.168   0.684   3.373
 1842HOH     H1 5713   0.255   0.672   3.410
 1842HOH     H2 5714   0.183   0.728   3.290
 1843HOH      O 5715   3.840   1.224   2.477
 1843HOH     H1 5716   3.806   1.136   2.490
 1843HOH     H2 5717   3.815   1.248   2.388
 1844HOH      O 5718   1.149   1.621   0.343
 1844HOH     H1 5719   1.179   1.532   0.322
 1844HOH     H2 5720   1.175   1.635   0.433
 1845HOH      O 5721   1.400   0.075   1.250
 1845HOH     H1 5722   1.490   0.054   1.275
 1845HOH     H2 5723   1.369   0.134   1.318
 1846HOH      O 5724   1.613   1.939   1.171
 1846HOH     H1 5725   1.668   1.894   1.235
 1846HOH     H2 5726   1.671   1.953   1.096
 1847HOH      O 5727   0.756   1.598   1.142
 1847HOH     H1 5728   0.781   1.689   1.162
 1847HOH     H2 5729   0.728   1.600   1.050
 1848HOH      O 5730   1.639   1.777   3.646
 1848HOH     H1 5731   1.727   1.780   3.685
 1848HOH     H2 5732   1.652   1.799   3.554
 1849HOH      O 5733   0.549   3.424   3.716
 1849HOH     H1 5734   0.632   3.467   3.737
 1849HOH     H2 5735   0.551   3.342   3.766
 1850HOH      O 5736   2.081   3.730   2.409
 1850HOH     H1 5737   1.999   3.696   2.374
 1850HOH     H2 5738   2.149   3.679   2.366
 1851HOH      O 5739   3.065   0.258   0.973
 1851HOH     H1 5740   3.129   0.215   1.030
 1851HOH     H2 5741   3.021   0.321   1.031
 1852HOH      O 5742   3.250   1.240   1.805
 1852HOH     H1 5743   3.211   1.156   1.781
 1852HOH     H2 5744   3.327   1.249   1.748
 1853HOH      O 5745   2.580   1.771   3.377
 1853HOH     H1 5746   2.672   1.753   3.400
 1853HOH     H2 5747   2.565   1.860   3.408
 1854HOH      O 5748   2.109   1.518   0.365
 1854HOH     H1 5749   2.105   1.500   0.271
 1854HOH     H2 5750   2.048   1.591   0.378
 1855HOH      O 5751   1.425   3.296   2.729
 1855HOH     H1 5752   1.477   3.350   2.670
 1855HOH     H2 5753   1.487   3.231   2.764
 1856HOH      O 5754   1.209   2.020   0.086
 1856HOH     H1 5755   1.176   1.930   0.091
 1856HOH     H2 5756   1.135   2.071   0.054
 1857HOH      O 5757   3.246   2.186   0.191
 1857HOH     H1 5758   3.173   2.180   0.130
 1857HOH     H2 5759   3.209   2.224   0.271
 1858HOH      O 5760   0.742   2.463   3.371
 1858HOH     H1 5761   0.832   2.436   3.355
 1858HOH     H2 5762   0.718   2.418   3.452
 1859HOH      O 5763   2.672   0.872   0.275
 1859HOH     H1 5764   2.715   0.955   0.258
 1859HOH     H2 5765   2.592   0.895   0.321
 1860HOH      O 5766   2.305   3.331   3.050
 1860HOH     H1 5767   2.350   3.341   3.133
 1860HOH     H2 5768   2.212   3.337   3.071
 1861HOH      O 5769   3.533   3.355   0.784
 1861HOH     H1 5770   3.500   3.378   0.697
 1861HOH     H2 5771   3.565   3.265   0.774
 1862HOH      O 5772   0.823   0.777   0.130
 1862HOH     H1 5773   0.902   0.802   0.178
 1862HOH     H2 5774   0.843   0.798   0.039
 1863HOH      O 5775   2.331   1.025   1.892
 1863HOH     H1 5776   2.395   0.954   1.895
 1863HOH     H2 5777   2.248   0.984   1.917
 1864HOH      O 5778   2.849   2.933   3.520
 1864HOH     H1 5779   2.893   2.859   3.561
 1864HOH     H2 5780   2.820   2.988   3.593
 1865HOH      O 5781   1.972   3.898   1.597
 1865HOH     H1 5782   2.028   3.970   1.626
 1865HOH     H2 5783   1.964   3.841   1.674
 1866HOH      O 5784   3.387   0.398   0.274
 1866HOH     H1 5785   3.472   0.414   0.234
 1866HOH     H2 5786   3.345   0.333   0.217
 1867HOH      O 5787   0.915   2.431   2.452
 1867HOH     H1 5788   0.932   2.525   2.463
 1867HOH     H2 5789   0.948   2.411   2.365
 1868HOH      O 5790   3.455   2.946   3.903
 1868HOH     H1 5791   3.474   3.033   3.939
 1868HOH     H2 5792   3.531   2.893   3.930
 1869HOH      O 5793   3.396   1.023   0.824
 1869HOH     H1 5794   3.384   0.964   0.899
 1869HOH     H2 5795   3.316   1.012   0.772
 1870HOH      O 5796   0.115   2.133   1.720
 1870HOH     H1 5797   0.137   2.042   1.740
 1870HOH     H2 5798   0.095   2.132   1.626
 1871HOH      O 5799   2.937   2.387   2.979
 1871HOH     H1 5800   2.909   2.358   2.892
 1871HOH     H2 5801   2.861   2.369   3.035
 1872HOH      O 5802   2.597   1.821   1.567
 1872HOH     H1 5803   2.645   1.880   1.509
 1872HOH     H2 5804   2.506   1.830   1.539
 1873HOH      O 5805   0.902   2.300   2.820
 1873HOH     H1 5806   0.954   2.305   2.740
 1873HOH     H2 5807   0.927   2.216   2.860
 1874HOH      O 5808   0.045   2.339   0.864
 1874HOH     H1 5809   0.088   2.267   0.818
 1874HOH     H2 5810  -0.026   2.296   0.912
 1875HOH      O 5811   0.230   3.681   1.611
 1875HOH     H1 5812   0.322   3.671   1.636
 1875HOH     H2 5813   0.183   3.617   1.664
 1876HOH      O 5814   1.480   0.097   0.983
 1876HOH     H1 5815   1.516   0.009   0.978
 1876HOH     H2 5816   1.453   0.106   1.074
 1877HOH      O 5817   1.068   1.846   3.804
 1877HOH     H1 5818   1.092   1.797   3.725
 1877HOH     H2 5819   1.151   1.862   3.849
 1878HOH      O 5820   0.548   0.201   3.368
 1878HOH     H1 5821   0.566   0.205   3.274
 1878HOH     H2 5822   0.552   0.292   3.397
 1879HOH      O 5823   2.448   1.922   2.114
 1879HOH     H1 5824   2.530   1.926   2.065
 1879HOH     H2 5825   2.444   2.006   2.160
 1880HOH      O 5826   0.841   3.189   2.742
 1880HOH     H1 5827   0.813   3.098   2.755
 1880HOH     H2 5828   0.816   3.207   2.651
 1881HOH      O 5829   2.339   1.756   0.557
 1881HOH     H1 5830   2.316   1.794   0.472
 1881HOH     H2 5831   2.357   1.664   0.539
 1882HOH      O 5832   2.383   0.638   1.085
 1882HOH     H1 5833   2.382   0.682   1.000
 1882HOH     H2 5834   2.463   0.670   1.128
 1883HOH      O 5835   2.001   3.216   0.913
 1883HOH     H1 5836   2.013   3.150   0.981
 1883HOH     H2 5837   2.049   3.182   0.838
 1884HOH      O 5838   3.725   0.156   0.801
 1884HOH     H1 5839   3.791   0.137   0.735
 1884HOH     H2 5840   3.754   0.239   0.841
 1885HOH      O 5841   2.617   3.865   3.367
 1885HOH     H1 5842   2.549   3.802   3.342
 1885HOH     H2 5843   2.580   3.912   3.441
 1886HOH      O 5844   3.502   1.862   0.765
 1886HOH     H1 5845   3.462   1.917   0.832
 1886HOH     H2 5846   3.592   1.848   0.796
 1887HOH      O 5847   1.999   3.442   1.539
 1887HOH     H1 5848   2.034   3.531   1.542
 1887HOH     H2 5849   1.935   3.444   1.467
 1888HOH      O 5850   2.172   3.467   0.219
 1888HOH     H1 5851   2.240   3.423   0.271
 1888HOH     H2 5852   2.112   3.396   0.194
 1889HOH      O 5853   2.794   2.366   3.239
 1889HOH     H1 5854   2.801   2.301   3.309
 1889HOH     H2 5855   2.870   2.422   3.251
 1890HOH      O 5856   0.513   0.087   1.501
 1890HOH     H1 5857   0.478   0.094   1.412
 1890HOH     H2 5858   0.598   0.130   1.496
 1891HOH      O 5859   2.753   1.069   3.173
 1891HOH     H1 5860   2.681   1.007   3.160
 1891HOH     H2 5861   2.769   1.106   3.086
 1892HOH      O 5862   0.941   3.335   2.466
 1892HOH     H1 5863   1.008   3.269   2.451
 1892HOH     H2 5864   0.984   3.402   2.520
 1893HOH      O 5865   1.871   0.845   2.222
 1893HOH     H1 5866   1.846   0.838   2.315
 1893HOH     H2 5867   1.801   0.800   2.175
 1894HOH      O 5868   3.419   3.697   0.589
 1894HOH     H1 5869   3.402   3.637   0.661
 1894HOH     H2 5870   3.332   3.726   0.561
 1895HOH      O 5871   2.239  -0.001   2.677
 1895HOH     H1 5872   2.173  -0.011   2.745
 1895HOH     H2 5873   2.227   0.087   2.643
 1896HOH      O 5874   0.303   1.626   3.465
 1896HOH     H1 5875   0.304   1.594   3.555
 1896HOH     H2 5876   0.266   1.714   3.472
 1897HOH      O 5877   1.169   0.290   3.996
 1897HOH     H1 5878   1.089   0.240   4.013
 1897HOH     H2 5879   1.144   0.381   4.013
 1898HOH      O 5880   0.668   1.000   0.048
 1898HOH     H1 5881   0.742   1.055   0.073
 1898HOH     H2 5882   0.676   0.923   0.105
 1899HOH      O 5883   1.002   1.564   3.710
 1899HOH     H1 5884   0.980   1.476   3.681
 1899HOH     H2 5885   0.935   1.620   3.669
 1900HOH      O 5886   0.007   3.397   0.719
 1900HOH     H1 5887   0.083   3.446   0.750
 1900HOH     H2 5888  -0.067   3.436   0.766
 1901HOH      O 5889   2.640   3.968   1.277
 1901HOH     H1 5890   2.573   3.955   1.210
 1901HOH     H2 5891   2.689   4.045   1.247
 1902HOH      O 5892   2.994   2.493   1.621
 1902HOH     H1 5893   2.935   2.551   1.670
 1902HOH     H2 5894   3.072   2.485   1.677
 1903HOH      O 5895   1.970   0.382   2.958
 1903HOH     H1 5896   1.994   0.470   2.928
 1903HOH     H2 5897   1.917   0.397   3.037
 1904HOH      O 5898   0.250   3.512   2.802
 1904HOH     H1 5899   0.341   3.487   2.783
 1904HOH     H2 5900   0.242   3.499   2.897
 1905HOH      O 5901   0.605   2.775   1.763
 1905HOH     H1 5902   0.637   2.695   1.804
 1905HOH     H2 5903   0.683   2.818   1.728
 1906HOH      O 5904   3.705   2.883   2.210
 1906HOH     H1 5905   3.652   2.961   2.230
 1906HOH     H2 5906   3.667   2.814   2.264
 1907HOH      O 5907   0.146   0.676   1.463
 1907HOH     H1 5908   0.123   0.611   1.530
 1907HOH     H2 5909   0.138   0.628   1.380
 1908HOH      O 5910   1.274   3.929   0.339
 1908HOH     H1 5911   1.267   3.960   0.249
 1908HOH     H2 5912   1.266   4.008   0.393
 1909HOH      O 5913   2.991   3.849   0.693
 1909HOH     H1 5914   2.954   3.936   0.710
 1909HOH     H2 5915   2.915   3.793   0.677
 1910HOH      O 5916   3.799   2.468   3.458
 1910HOH     H1 5917   3.889   2.455   3.429
 1910HOH     H2 5918   3.768   2.544   3.409
 1911HOH      O 5919   3.329   3.534   0.829
 1911HOH     H1 5920   3.276   3.490   0.762
 1911HOH     H2 5921   3.405   3.476   0.840
 1912HOH      O 5922   1.008   3.673   2.941
 1912HOH     H1 5923   1.029   3.582   2.920
 1912HOH     H2 5924   1.087   3.722   2.917
 1913HOH      O 5925   2.781   1.639   0.317
 1913HOH     H1 5926   2.764   1.556   0.273
 1913HOH     H2 5927   2.734   1.704   0.266
 1914HOH      O 5928   0.124   3.714   1.313
 1914HOH     H1 5929   0.109   3.714   1.408
 1914HOH     H2 5930   0.037   3.722   1.274
 1915HOH      O 5931   3.481   1.394   2.555
 1915HOH     H1 5932   3.559   1.449   2.546
 1915HOH     H2 5933   3.485   1.336   2.479
 1916HOH      O 5934   0.930   0.528   1.282
 1916HOH     H1 5935   0.845   0.487   1.298
 1916HOH     H2 5936   0.957   0.559   1.369
 1917HOH      O 5937   1.395   0.158   0.065
 1917HOH     H1 5938   1.342   0.186  -0.009
 1917HOH     H2 5939   1.377   0.222   0.134
 1918HOH      O 5940   1.647   0.504   2.294
 1918HOH     H1 5941   1.599   0.537   2.370
 1918HOH     H2 5942   1.636   0.572   2.228
 1919HOH      O 5943   2.721   1.398   0.204
 1919HOH     H1 5944   2.681   1.388   0.117
 1919HOH     H2 5945   2.742   1.309   0.230
 1920HOH      O 5946   3.414   3.634   1.305
 1920HOH     H1 5947   3.455   3.660   1.222
 1920HOH     H2 5948   3.341   3.695   1.316
 1921HOH      O 5949   2.411   3.790   2.807
 1921HOH     H1 5950   2.392   3.859   2.870
 1921HOH     H2 5951   2.472   3.732   2.853
 1922HOH      O 5952   1.828   3.714   0.184
 1922HOH     H1 5953   1.735   3.734   0.199
 1922HOH     H2 5954   1.826   3.649   0.113
 1923HOH      O 5955   3.645   1.607   1.121
 1923HOH     H1 5956   3.641   1.546   1.194
 1923HOH     H2 5957   3.683   1.556   1.049
 1924HOH      O 5958   0.394   0.255   3.051
 1924HOH     H1 5959   0.446   0.196   2.997
 1924HOH     H2 5960   0.321   0.201   3.083
 1925HOH      O 5961   3.964   0.808   2.907
 1925HOH     H1 5962   3.987   0.898   2.882
 1925HOH     H2 5963   4.048   0.766   2.925
 1926HOH      O 5964   2.771   0.916   2.700
 1926HOH     H1 5965   2.677   0.901   2.713
 1926HOH     H2 5966   2.775   1.004   2.661
 1927HOH      O 5967   0.188   1.129   0.859
 1927HOH     H1 5968   0.254   1.176   0.911
 1927HOH     H2 5969   0.224   1.041   0.850
 1928HOH      O 5970   0.186   3.073   2.152
 1928HOH     H1 5971   0.196   3.149   2.209
 1928HOH     H2 5972   0.098   3.041   2.171
 1929HOH      O 5973   3.747   1.824   1.375
 1929HOH     H1 5974   3.674   1.762   1.381
 1929HOH     H2 5975   3.815   1.777   1.326
 1930HOH      O 5976   2.888   0.096   0.803
 1930HOH     H1 5977   2.942   0.127   0.875
 1930HOH     H2 5978   2.877   0.174   0.747
 1931HOH      O 5979   0.440   1.122   2.298
 1931HOH     H1 5980   0.500   1.047   2.297
 1931HOH     H2 5981   0.371   1.096   2.359
 1932HOH      O 5982   3.902   1.176   3.037
 1932HOH     H1 5983   3.944   1.261   3.048
 1932HOH     H2 5984   3.809   1.193   3.052
 1933HOH      O 5985   2.242   3.941   3.545
 1933HOH     H1 5986   2.328   3.976   3.566
 1933HOH     H2 5987   2.186   3.970   3.617
 1934HOH      O 5988   3.262   0.253   3.282
 1934HOH     H1 5989   3.301   0.184   3.335
 1934HOH     H2 5990   3.194   0.290   3.338
 1935HOH      O 5991   0.842   2.145   0.440
 1935HOH     H1 5992   0.875   2.086   0.373
 1935HOH     H2 5993   0.782   2.092   0.492
 1936HOH      O 5994   0.986   2.737   3.682
 1936HOH     H1 5995   0.937   2.819   3.689
 1936HOH     H2 5996   1.062   2.760   3.628
 1937HOH      O 5997   0.547   3.076   2.617
 1937HOH     H1 5998   0.500   2.996   2.593
 1937HOH     H2 5999   0.611   3.048   2.683
 1938HOH      O 6000   2.959   0.081   2.548
 1938HOH     H1 6001   2.887   0.144   2.545
 1938HOH     H2 6002   3.027   0.118   2.491
 1939HOH      O 6003   2.962   2.540   1.350
 1939HOH     H1 6004   3.002   2.627   1.361
 1939HOH     H2 6005   2.951   2.507   1.439
 1940HOH      O 6006   3.851   1.343   1.413
 1940HOH     H1 6007   3.909   1.415   1.438
 1940HOH     H2 6008   3.766   1.385   1.401
 1941HOH      O 6009   3.441   3.087   2.222
 1941HOH     H1 6010   3.412   3.033   2.148
 1941HOH     H2 6011   3.380   3.160   2.225
 1942HOH      O 6012   0.512   0.037   3.757
 1942HOH     H1 6013   0.482   0.124   3.731
 1942HOH     H2 6014   0.590   0.054   3.809
 1943HOH      O 6015   1.522   0.514   1.699
 1943HOH     H1 6016   1.568   0.513   1.615
 1943HOH     H2 6017   1.555   0.592   1.744
 1944HOH      O 6018   2.445   3.657   0.324
 1944HOH     H1 6019   2.427   3.580   0.378
 1944HOH     H2 6020   2.393   3.642   0.244
 1945HOH      O 6021   3.093   1.609   1.359
 1945HOH     H1 6022   3.045   1.615   1.441
 1945HOH     H2 6023   3.148   1.687   1.357
 1946HOH      O 6024   2.229   2.110   0.328
 1946HOH     H1 6025   2.205   2.186   0.276
 1946HOH     H2 6026   2.276   2.146   0.404
 1947HOH      O 6027   2.770   3.101   1.444
 1947HOH     H1 6028   2.804   3.024   1.490
 1947HOH     H2 6029   2.675   3.091   1.449
 1948HOH      O 6030   1.707   3.879   1.556
 1948HOH     H1 6031   1.672   3.812   1.497
 1948HOH     H2 6032   1.801   3.878   1.540
 1949HOH      O 6033   2.269   0.108   0.590
 1949HOH     H1 6034   2.277   0.200   0.562
 1949HOH     H2 6035   2.329   0.061   0.533
 1950HOH      O 6036   2.904   1.920   3.928
 1950HOH     H1 6037   2.932   1.956   4.012
 1950HOH     H2 6038   2.927   1.827   3.934
 1951HOH      O 6039   2.752   1.357   3.804
 1951HOH     H1 6040   2.678   1.378   3.862
 1951HOH     H2 6041   2.753   1.261   3.801
 1952HOH      O 6042   3.080   0.706   2.460
 1952HOH     H1 6043   3.088   0.792   2.500
 1952HOH     H2 6044   3.159   0.659   2.486
 1953HOH      O 6045   1.663   3.995   1.280
 1953HOH     H1 6046   1.625   3.912   1.310
 1953HOH     H2 6047   1.709   3.973   1.199
 1954HOH      O 6048   0.794   1.153   3.073
 1954HOH     H1 6049   0.787   1.085   3.006
 1954HOH     H2 6050   0.888   1.174   3.076
 1955HOH      O 6051   0.972   3.050   3.352
 1955HOH     H1 6052   0.954   3.067   3.259
 1955HOH     H2 6053   1.068   3.043   3.356
 1956HOH      O 6054   3.596   0.025   1.248
 1956HOH     H1 6055   3.558   0.113   1.244
 1956HOH     H2 6056   3.638   0.013   1.162
 1957HOH      O 6057   1.955   2.531   0.757
 1957HOH     H1 6058   1.882   2.470   0.768
 1957HOH     H2 6059   2.033   2.478   0.774
 1958HOH      O 6060   0.032   2.269   2.494
 1958HOH     H1 6061   0.004   2.356   2.525
 1958HOH     H2 6062   0.012   2.210   2.567
 1959HOH      O 6063   2.832   3.165   1.972
 1959HOH     H1 6064   2.836   3.249   1.926
 1959HOH     H2 6065   2.741   3.159   2.002
 1960HOH      O 6066   1.302   4.020   3.774
 1960HOH     H1 6067   1.206   4.017   3.773
 1960HOH     H2 6068   1.328   3.943   3.824
 1961HOH      O 6069   0.459   1.269   0.681
 1961HOH     H1 6070   0.389   1.294   0.741
 1961HOH     H2 6071   0.491   1.352   0.645
 1962HOH      O 6072   2.742   1.005   1.088
 1962HOH     H1 6073   2.797   1.060   1.032
 1962HOH     H2 6074   2.737   1.053   1.170
 1963HOH      O 6075   2.648   1.285   3.324
 1963HOH     H1 6076   2.567   1.317   3.285
 1963HOH     H2 6077   2.672   1.208   3.273
 1964HOH      O 6078   0.941   1.406   2.932
 1964HOH     H1 6079   0.961   1.382   2.841
 1964HOH     H2 6080   0.982   1.337   2.984
 1965HOH      O 6081   3.566   0.907   1.639
 1965HOH     H1 6082   3.634   0.967   1.670
 1965HOH     H2 6083   3.572   0.911   1.544
 1966HOH      O 6084   0.291  -0.013   1.048
 1966HOH     H1 6085   0.380  -0.042   1.028
 1966HOH     H2 6086   0.283   0.072   1.004
 1967HOH      O 6087   0.436   1.892   0.468
 1967HOH     H1 6088   0.451   1.954   0.397
 1967HOH     H2 6089   0.507   1.908   0.530
 1968HOH      O 6090   0.365   3.838   1.323
 1968HOH     H1 6091   0.284   3.787   1.326
 1968HOH     H2 6092   0.346   3.910   1.263
 1969HOH      O 6093   3.098   3.022   1.418
 1969HOH     H1 6094   3.187   3.034   1.385
 1969HOH     H2 6095   3.043   3.025   1.339
 1970HOH      O 6096   3.578   0.634   2.609
 1970HOH     H1 6097   3.657   0.594   2.645
 1970HOH     H2 6098   3.558   0.705   2.670
 1971HOH      O 6099   1.267   1.035   2.706
 1971HOH     H1 6100   1.177   1.062   2.686
 1971HOH     H2 6101   1.307   1.022   2.620
 1972HOH      O 6102   2.082   1.505   0.085
 1972HOH     H1 6103   2.147   1.440   0.058
 1972HOH     H2 6104   1.999   1.459   0.081
 1973HOH      O 6105   0.951   2.015   2.533
 1973HOH     H1 6106   0.907   1.984   2.611
 1973HOH     H2 6107   0.983   2.103   2.556
 1974HOH      O 6108   0.626   2.293   3.885
 1974HOH     H1 6109   0.646   2.383   3.910
 1974HOH     H2 6110   0.674   2.239   3.948
 1975HOH      O 6111   2.857   1.418   1.224
 1975HOH     H1 6112   2.805   1.436   1.146
 1975HOH     H2 6113   2.891   1.503   1.251
 1976HOH      O 6114   2.935   3.154   2.333
 1976HOH     H1 6115   2.957   3.098   2.259
 1976HOH     H2 6116   2.855   3.117   2.369
 1977HOH      O 6117   2.973   3.995   1.305
 1977HOH     H1 6118   2.879   4.013   1.305
 1977HOH     H2 6119   3.004   4.031   1.222
 1978HOH      O 6120   0.681   3.073   1.936
 1978HOH     H1 6121   0.753   3.015   1.959
 1978HOH     H2 6122   0.654   3.112   2.019
 1979HOH      O 6123   0.814   2.597   2.709
 1979HOH     H1 6124   0.855   2.605   2.623
 1979HOH     H2 6125   0.886   2.595   2.771
 1980HOH      O 6126   2.301   3.568   1.297
 1980HOH     H1 6127   2.329   3.573   1.206
 1980HOH     H2 6128   2.206   3.558   1.294
 1981HOH      O 6129   0.807   2.545   1.176
 1981HOH     H1 6130   0.781   2.499   1.096
 1981HOH     H2 6131   0.756   2.503   1.245
 1982HOH      O 6132   2.838   0.797   3.457
 1982HOH     H1 6133   2.891   0.782   3.536
 1982HOH     H2 6134   2.808   0.887   3.465
 1983HOH      O 6135   3.041   1.192   1.313
 1983HOH     H1 6136   2.983   1.117   1.327
 1983HOH     H2 6137   2.983   1.268   1.311
 1984HOH      O 6138   3.582   0.155   3.003
 1984HOH     H1 6139   3.598   0.247   3.023
 1984HOH     H2 6140   3.631   0.139   2.923
 1985HOH      O 6141   2.238   3.221   0.049
 1985HOH     H1 6142   2.145   3.239   0.061
 1985HOH     H2 6143   2.251   3.136   0.092
 1986HOH      O 6144   2.358   3.706   2.065
 1986HOH     H1 6145   2.307   3.678   2.141
 1986HOH     H2 6146   2.307   3.676   1.989
 1987HOH      O 6147   2.623   0.540   3.741
 1987HOH     H1 6148   2.695   0.509   3.796
 1987HOH     H2 6149   2.658   0.538   3.652
 1988HOH      O 6150   3.131   2.025   0.951
 1988HOH     H1 6151   3.063   1.987   0.896
 1988HOH     H2 6152   3.186   2.075   0.890
 1989HOH      O 6153   0.457   1.631   0.429
 1989HOH     H1 6154   0.372   1.594   0.453
 1989HOH     H2 6155   0.451   1.723   0.455
 1990HOH      O 6156   2.728   0.526   3.510
 1990HOH     H1 6157   2.805   0.570   3.548
 1990HOH     H2 6158   2.764   0.453   3.460
 1991HOH      O 6159   2.963   3.081   1.187
 1991HOH     H1 6160   2.872   3.083   1.158
 1991HOH     H2 6161   3.011   3.049   1.111
 1992HOH      O 6162   3.482   3.020   3.299
 1992HOH     H1 6163   3.520   2.948   3.348
 1992HOH     H2 6164   3.467   2.984   3.212
 1993HOH      O 6165   3.288   1.782   3.696
 1993HOH     H1 6166   3.222   1.839   3.736
 1993HOH     H2 6167   3.371   1.819   3.723
 1994HOH      O 6168   3.274   3.469   3.884
 1994HOH     H1 6169   3.307   3.440   3.800
 1994HOH     H2 6170   3.221   3.396   3.916
 1995HOH      O 6171   0.264   1.532   2.162
 1995HOH     H1 6172   0.237   1.573   2.080
 1995HOH     H2 6173   0.196   1.467   2.180
 1996HOH      O 6174   1.188   3.279   2.560
 1996HOH     H1 6175   1.258   3.252   2.620
 1996HOH     H2 6176   1.200   3.374   2.551
 1997HOH      O 6177   0.857   0.475   3.436
 1997HOH     H1 6178   0.857   0.405   3.370
 1997HOH     H2 6179   0.899   0.436   3.512
 1998HOH      O 6180   3.604   0.207   2.050
 1998HOH     H1 6181   3.520   0.190   2.008
 1998HOH     H2 6182   3.668   0.161   1.995
 1999HOH      O 6183   3.499   0.141   0.617
 1999HOH     H1 6184   3.516   0.235   0.614
 1999HOH     H2 6185   3.551   0.110   0.691
 2000HOH      O 6186   1.480   2.004   0.109
 2000HOH     H1 6187   1.384   1.997   0.102
 2000HOH     H2 6188   1.495   2.082   0.162
 2001HOH      O 6189   3.804   1.794   2.027
 2001HOH     H1 6190   3.786   1.816   2.119
 2001HOH     H2 6191   3.726   1.748   1.997
 2002HOH      O 6192   2.753   2.306   0.831
 2002HOH     H1 6193   2.727   2.322   0.922
 2002HOH     H2 6194   2.766   2.393   0.794
 2003HOH      O 6195   3.750   1.907   3.246
 2003HOH     H1 6196   3.680   1.873   3.190
 2003HOH     H2 6197   3.763   1.997   3.216
 2004HOH      O 6198   2.830   0.697   0.411
 2004HOH     H1 6199   2.774   0.626   0.443
 2004HOH     H2 6200   2.769   0.761   0.373
 2005HOH      O 6201   2.795   3.480   2.470
 2005HOH     H1 6202   2.853   3.406   2.490
 2005HOH     H2 6203   2.852   3.544   2.427
 2006HOH      O 6204   0.236   2.091   1.395
 2006HOH     H1 6205   0.225   2.068   1.303
 2006HOH     H2 6206   0.259   2.008   1.438
 2007HOH      O 6207   1.006   3.193   0.437
 2007HOH     H1 6208   0.921   3.209   0.477
 2007HOH     H2 6209   1.044   3.124   0.492
 2008HOH      O 6210   0.143   1.375   0.248
 2008HOH     H1 6211   0.167   1.355   0.338
 2008HOH     H2 6212   0.128   1.469   0.247
 2009HOH      O 6213   1.134   2.977   0.919
 2009HOH     H1 6214   1.046   2.950   0.891
 2009HOH     H2 6215   1.130   3.072   0.920
 2010HOH      O 6216   3.353   0.604   4.021
 2010HOH     H1 6217   3.405   0.653   3.957
 2010HOH     H2 6218   3.354   0.514   3.989
 2011HOH      O 6219   1.081   2.086   3.047
 2011HOH     H1 6220   1.023   2.042   3.110
 2011HOH     H2 6221   1.127   2.016   3.003
 2012HOH      O 6222   3.828   2.232   2.330
 2012HOH     H1 6223   3.780   2.150   2.340
 2012HOH     H2 6224   3.891   2.231   2.402
 2013HOH      O 6225   3.341   1.973   0.334
 2013HOH     H1 6226   3.401   1.998   0.404
 2013HOH     H2 6227   3.335   2.051   0.278
 2014HOH      O 6228   0.939   2.136   1.332
 2014HOH     H1 6229   0.976   2.049   1.349
 2014HOH     H2 6230   0.846   2.126   1.350
 2015HOH      O 6231   2.094   0.120   1.962
 2015HOH     H1 6232   2.176   0.094   1.920
 2015HOH     H2 6233   2.114   0.117   2.056
 2016HOH      O 6234   3.036   1.590   3.090
 2016HOH     H1 6235   3.069   1.677   3.067
 2016HOH     H2 6236   3.017   1.595   3.184
 2017HOH      O 6237   2.757   1.463   0.965
 2017HOH     H1 6238   2.718   1.550   0.976
 2017HOH     H2 6239   2.836   1.478   0.913
 2018HOH      O 6240   3.843   3.094   2.549
 2018HOH     H1 6241   3.853   2.999   2.554
 2018HOH     H2 6242   3.769   3.114   2.606
 2019HOH      O 6243   2.674   0.222   0.959
 2019HOH     H1 6244   2.581   0.210   0.975
 2019HOH     H2 6245   2.693   0.168   0.882
 2020HOH      O 6246   2.979   1.743   3.401
 2020HOH     H1 6247   2.974   1.765   3.494
 2020HOH     H2 6248   3.073   1.745   3.381
 2021HOH      O 6249   0.227   2.381   0.261
 2021HOH     H1 6250   0.219   2.380   0.357
 2021HOH     H2 6251   0.182   2.462   0.235
 2022HOH      O 6252   0.789   2.996   1.662
 2022HOH     H1 6253   0.883   2.995   1.680
 2022HOH     H2 6254   0.750   3.037   1.739
 2023HOH      O 6255   3.939   1.809   1.073
 2023HOH     H1 6256   3.928   1.760   1.155
 2023HOH     H2 6257   4.027   1.784   1.043
 2024HOH      O 6258   3.780   0.485   2.722
 2024HOH     H1 6259   3.868   0.491   2.682
 2024HOH     H2 6260   3.791   0.421   2.793
 2025HOH      O 6261   0.608   1.303   3.971
 2025HOH     H1 6262   0.561   1.220   3.982
 2025HOH     H2 6263   0.611   1.340   4.060
 2026HOH      O 6264   2.609   3.689   2.011
 2026HOH     H1 6265   2.518   3.709   2.030
 2026HOH     H2 6266   2.611   3.679   1.915
 2027HOH      O 6267   1.468   1.717   0.830
 2027HOH     H1 6268   1.378   1.742   0.849
 2027HOH     H2 6269   1.507   1.701   0.916
 2028HOH      O 6270   1.054   2.266   2.610
 2028HOH     H1 6271   1.008   2.338   2.567
 2028HOH     H2 6272   1.144   2.273   2.578
 2029HOH      O 6273   0.561   1.929   2.412
 2029HOH     H1 6274   0.569   1.969   2.499
 2029HOH     H2 6275   0.559   1.835   2.429
 2030HOH      O 6276   0.665   2.006   0.627
 2030HOH     H1 6277   0.735   1.942   0.639
 2030HOH     H2 6278   0.658   2.051   0.711
 2031HOH      O 6279   2.670   3.437   0.195
 2031HOH     H1 6280   2.602   3.382   0.158
 2031HOH     H2 6281   2.624   3.498   0.252
 2032HOH      O 6282   2.725   2.603   3.445
 2032HOH     H1 6283   2.642   2.621   3.401
 2032HOH     H2 6284   2.751   2.688   3.482
 2033HOH      O 6285   1.796   1.390   0.099
 2033HOH     H1 6286   1.756   1.338   0.030
 2033HOH     H2 6287   1.757   1.477   0.089
 2034HOH      O 6288   2.373   3.990   0.823
 2034HOH     H1 6289   2.457   4.033   0.839
 2034HOH     H2 6290   2.343   4.027   0.740
 2035HOH      O 6291   3.755   3.190   3.302
 2035HOH     H1 6292   3.824   3.162   3.362
 2035HOH     H2 6293   3.674   3.155   3.340
 2036HOH      O 6294   3.839   2.625   2.901
 2036HOH     H1 6295   3.799   2.710   2.885
 2036HOH     H2 6296   3.924   2.630   2.859
 2037HOH      O 6297   3.269   4.011   1.095
 2037HOH     H1 6298   3.240   3.922   1.075
 2037HOH     H2 6299   3.316   4.003   1.178
 2038HOH      O 6300   0.424   2.649   1.420
 2038HOH     H1 6301   0.383   2.592   1.355
 2038HOH     H2 6302   0.443   2.730   1.373
 2039HOH      O 6303   0.057   2.976   0.290
 2039HOH     H1 6304   0.106   3.024   0.223
 2039HOH     H2 6305  -0.030   2.963   0.251
 2040HOH      O 6306   1.703   2.420   0.780
 2040HOH     H1 6307   1.696   2.416   0.684
 2040HOH     H2 6308   1.622   2.382   0.812
 2041HOH      O 6309   2.012   2.048   2.972
 2041HOH     H1 6310   2.103   2.025   2.953
 2041HOH     H2 6311   1.967   2.042   2.888
 2042HOH      O 6312   0.301   3.733   0.065
 2042HOH     H1 6313   0.213   3.755   0.097
 2042HOH     H2 6314   0.287   3.658   0.007
 2043HOH      O 6315   1.385   2.004   1.836
 2043HOH     H1 6316   1.424   2.006   1.924
 2043HOH     H2 6317   1.422   1.925   1.796
 2044HOH      O 6318   0.228   3.287   2.332
 2044HOH     H1 6319   0.181   3.310   2.412
 2044HOH     H2 6320   0.320   3.293   2.355
 2045HOH      O 6321   0.693   2.427   0.499
 2045HOH     H1 6322   0.665   2.366   0.431
 2045HOH     H2 6323   0.632   2.411   0.571
 2046HOH      O 6324   2.701   0.400   1.762
 2046HOH     H1 6325   2.705   0.370   1.671
 2046HOH     H2 6326   2.724   0.323   1.813
 2047HOH      O 6327   3.504   3.502   1.710
 2047HOH     H1 6328   3.521   3.595   1.722
 2047HOH     H2 6329   3.590   3.463   1.697
 2048HOH      O 6330   3.167   2.686   1.932
 2048HOH     H1 6331   3.195   2.728   1.851
 2048HOH     H2 6332   3.085   2.730   1.955
 2049HOH      O 6333   1.440   3.389   1.153
 2049HOH     H1 6334   1.362   3.422   1.197
 2049HOH     H2 6335   1.512   3.413   1.211
 2050HOH      O 6336   3.922   0.987   1.361
 2050HOH     H1 6337   3.902   0.910   1.308
 2050HOH     H2 6338   3.996   1.028   1.318
 2051HOH      O 6339   3.467   2.447   1.111
 2051HOH     H1 6340   3.534   2.438   1.179
 2051HOH     H2 6341   3.457   2.360   1.074
 2052HOH      O 6342   2.144   1.254   1.144
 2052HOH     H1 6343   2.167   1.331   1.195
 2052HOH     H2 6344   2.061   1.276   1.102
 2053HOH      O 6345   0.000   2.598   0.414
 2053HOH     H1 6346   0.062   2.670   0.420
 2053HOH     H2 6347  -0.034   2.603   0.324
 2054HOH      O 6348   2.567   2.089   2.940
 2054HOH     H1 6349   2.525   2.174   2.929
 2054HOH     H2 6350   2.494   2.027   2.949
 2055HOH      O 6351   1.402   2.935   0.282
 2055HOH     H1 6352   1.312   2.906   0.267
 2055HOH     H2 6353   1.434   2.878   0.352
 2056HOH      O 6354   0.026   0.210   2.765
 2056HOH     H1 6355   0.042   0.211   2.671
 2056HOH     H2 6356   0.099   0.161   2.802
 2057HOH      O 6357   2.870   3.658   0.365
 2057HOH     H1 6358   2.794   3.689   0.316
 2057HOH     H2 6359   2.944   3.704   0.325
 2058HOH      O 6360   0.838   1.774   0.541
 2058HOH     H1 6361   0.829   1.830   0.464
 2058HOH     H2 6362   0.824   1.685   0.509
 2059HOH      O 6363   3.315   0.932   3.157
 2059HOH     H1 6364   3.249   0.983   3.111
 2059HOH     H2 6365   3.320   0.971   3.244
 2060HOH      O 6366   3.024   1.195   1.642
 2060HOH     H1 6367   3.066   1.275   1.673
 2060HOH     H2 6368   2.950   1.226   1.588
 2061HOH      O 6369   0.755   4.031   2.131
 2061HOH     H1 6370   0.807   3.952   2.137
 2061HOH     H2 6371   0.665   4.002   2.142
 2062HOH      O 6372   1.484   0.219   1.642
 2062HOH     H1 6373   1.523   0.303   1.667
 2062HOH     H2 6374   1.549   0.154   1.668
 2063HOH      O 6375   0.130   2.152   0.136
 2063HOH     H1 6376   0.159   2.241   0.157
 2063HOH     H2 6377   0.175   2.096   0.199
 2064HOH      O 6378   0.549   2.050   3.503
 2064HOH     H1 6379   0.610   2.118   3.533
 2064HOH     H2 6380   0.462   2.088   3.517
 2065HOH      O 6381   2.163   0.268   3.778
 2065HOH     H1 6382   2.090   0.293   3.834
 2065HOH     H2 6383   2.179   0.176   3.799
 2066HOH      O 6384   3.975   1.515   1.814
 2066HOH     H1 6385   4.050   1.455   1.821
 2066HOH     H2 6386   3.983   1.571   1.891
 2067HOH      O 6387   1.404   2.355   0.861
 2067HOH     H1 6388   1.364   2.284   0.911
 2067HOH     H2 6389   1.329   2.401   0.822
 2068HOH      O 6390   3.659   3.896   3.415
 2068HOH     H1 6391   3.665   3.900   3.320
 2068HOH     H2 6392   3.739   3.938   3.446
 2069HOH      O 6393   0.079   0.279   3.221
 2069HOH     H1 6394   0.145   0.224   3.263
 2069HOH     H2 6395   0.038   0.326   3.293
 2070HOH      O 6396   2.896   1.610   3.954
 2070HOH     H1 6397   2.965   1.543   3.960
 2070HOH     H2 6398   2.815   1.562   3.970
 2071HOH      O 6399   0.782   0.061   0.261
 2071HOH     H1 6400   0.837   0.080   0.336
 2071HOH     H2 6401   0.734   0.142   0.244
 2072HOH      O 6402   0.706   1.075   1.943
 2072HOH     H1 6403   0.639   1.023   1.900
 2072HOH     H2 6404   0.672   1.165   1.940
 2073HOH      O 6405   0.596   1.254   2.473
 2073HOH     H1 6406   0.548   1.310   2.534
 2073HOH     H2 6407   0.527   1.207   2.425
 2074HOH      O 6408   3.398   2.668   1.370
 2074HOH     H1 6409   3.377   2.575   1.374
 2074HOH     H2 6410   3.487   2.671   1.334
 2075HOH      O 6411   0.603   2.635   0.784
 2075HOH     H1 6412   0.541   2.691   0.737
 2075HOH     H2 6413   0.575   2.546   0.763
 2076HOH      O 6414   4.029   0.430   0.936
 2076HOH     H1 6415   3.933   0.434   0.943
 2076HOH     H2 6416   4.055   0.363   0.999
 2077HOH      O 6417   1.763   0.852   0.375
 2077HOH     H1 6418   1.856   0.847   0.394
 2077HOH     H2 6419   1.720   0.846   0.460
 2078HOH      O 6420   2.614   0.216   0.158
 2078HOH     H1 6421   2.688   0.276   0.164
 2078HOH     H2 6422   2.604   0.199   0.065
 2079HOH      O 6423   0.964   2.156   2.131
 2079HOH     H1 6424   0.993   2.236   2.175
 2079HOH     H2 6425   0.870   2.150   2.151
 2080HOH      O 6426   1.453   3.776   1.960
 2080HOH     H1 6427   1.524   3.768   2.023
 2080HOH     H2 6428   1.478   3.852   1.906
 2081HOH      O 6429   0.755   1.458   2.022
 2081HOH     H1 6430   0.832   1.408   2.049
 2081HOH     H2 6431   0.710   1.478   2.105
 2082HOH      O 6432   1.191   3.941   0.060
 2082HOH     H1 6433   1.246   3.890   0.001
 2082HOH     H2 6434   1.133   3.877   0.100
 2083HOH      O 6435   2.331   2.031   3.954
 2083HOH     H1 6436   2.252   2.082   3.974
 2083HOH     H2 6437   2.380   2.028   4.036
 2084HOH      O 6438   0.208   3.317   3.041
 2084HOH     H1 6439   0.139   3.371   3.001
 2084HOH     H2 6440   0.186   3.227   3.016
 2085HOH      O 6441   2.301   3.463   3.503
 2085HOH     H1 6442   2.240   3.534   3.482
 2085HOH     H2 6443   2.247   3.398   3.550
 2086HOH      O 6444   0.294   1.678   2.392
 2086HOH     H1 6445   0.241   1.753   2.364
 2086HOH     H2 6446   0.294   1.620   2.316
 2087HOH      O 6447   0.534   3.789   3.635
 2087HOH     H1 6448   0.516   3.862   3.695
 2087HOH     H2 6449   0.469   3.723   3.659
 2088HOH      O 6450   3.258   3.435   1.750
 2088HOH     H1 6451   3.345   3.455   1.717
 2088HOH     H2 6452   3.272   3.405   1.840
 2089HOH      O 6453   1.351   0.070   1.884
 2089HOH     H1 6454   1.265   0.058   1.844
 2089HOH     H2 6455   1.409   0.014   1.831
 2090HOH      O 6456   2.596   3.428   3.862
 2090HOH     H1 6457   2.564   3.344   3.831
 2090HOH     H2 6458   2.691   3.425   3.846
 2091HOH      O 6459   3.815   1.974   2.463
 2091HOH     H1 6460   3.747   1.990   2.530
 2091HOH     H2 6461   3.874   1.910   2.503
 2092HOH      O 6462   2.478   1.316   3.552
 2092HOH     H1 6463   2.474   1.412   3.545
 2092HOH     H2 6464   2.549   1.291   3.493
 2093HOH      O 6465   1.850   2.391   2.708
 2093HOH     H1 6466   1.770   2.349   2.678
 2093HOH     H2 6467   1.920   2.328   2.690
 2094HOH      O 6468   0.143   1.052   1.233
 2094HOH     H1 6469   0.203   1.013   1.296
 2094HOH     H2 6470   0.147   0.994   1.156
 2095HOH      O 6471   3.917   2.682   2.203
 2095HOH     H1 6472   4.002   2.719   2.181
 2095HOH     H2 6473   3.855   2.751   2.178
 2096HOH      O 6474   2.799   1.517   3.298
 2096HOH     H1 6475   2.800   1.568   3.380
 2096HOH     H2 6476   2.743   1.442   3.318
 2097HOH      O 6477   1.956   3.527   1.805
 2097HOH     H1 6478   1.925   3.612   1.774
 2097HOH     H2 6479   1.962   3.474   1.726
 2098HOH      O 6480   2.564   0.158   3.910
 2098HOH     H1 6481   2.593   0.068   3.897
 2098HOH     H2 6482   2.597   0.205   3.833
 2099HOH      O 6483   0.570   0.111   0.809
 2099HOH     H1 6484   0.553   0.123   0.902
 2099HOH     H2 6485   0.497   0.058   0.777
 2100HOH      O 6486   1.738   0.608   2.793
 2100HOH     H1 6487   1.726   0.668   2.719
 2100HOH     H2 6488   1.832   0.615   2.813
 2101HOH      O 6489   1.386   1.512   1.093
 2101HOH     H1 6490   1.292   1.526   1.099
 2101HOH     H2 6491   1.422   1.558   1.170
 2102HOH      O 6492   1.824   2.762   2.977
 2102HOH     H1 6493   1.909   2.796   3.006
 2102HOH     H2 6494   1.780   2.838   2.939
 2103HOH      O 6495   3.967   2.953   1.562
 2103HOH     H1 6496   3.923   3.018   1.507
 2103HOH     H2 6497   3.913   2.874   1.553
 2104HOH      O 6498   1.853   3.926   1.063
 2104HOH     H1 6499   1.839   3.897   0.973
 2104HOH     H2 6500   1.948   3.933   1.072
 2105HOH      O 6501   2.318   2.986   0.129
 2105HOH     H1 6502   2.259   2.930   0.079
 2105HOH     H2 6503   2.286   2.980   0.219
 2106HOH      O 6504   3.422   2.143   3.493
 2106HOH     H1 6505   3.396   2.062   3.448
 2106HOH     H2 6506   3.518   2.145   3.485
 2107HOH      O 6507   2.701   2.657   0.595
 2107HOH     H1 6508   2.769   2.643   0.529
 2107HOH     H2 6509   2.733   2.730   0.648
 2108HOH      O 6510   1.392   1.464   3.832
 2108HOH     H1 6511   1.314   1.416   3.806
 2108HOH     H2 6512   1.446   1.399   3.877
 2109HOH      O 6513   3.058   2.484   3.230
 2109HOH     H1 6514   3.146   2.516   3.248
 2109HOH     H2 6515   3.058   2.465   3.136
 2110HOH      O 6516   3.312   1.944   3.340
 2110HOH     H1 6517   3.255   1.989   3.278
 2110HOH     H2 6518   3.280   1.854   3.341
 2111HOH      O 6519   1.545   0.153   2.059
 2111HOH     H1 6520   1.595   0.074   2.040
 2111HOH     H2 6521   1.477   0.155   1.991
   4.02727   4.02727   4.02727   0.00000   0.00000   0.00000   0.00000   0.00000   0.00000
