Generated with MDTraj, t= 1883.0
 6521
    1MOL     O1    1   2.446   0.946   2.903
    1MOL     O2    2   2.500   1.136   2.986
    1MOL     N1    3   2.528   1.031   2.927
    1MOL     C1    4   2.665   1.029   2.854
    1MOL     C2    5   2.728   0.908   2.833
    1MOL     C3    6   2.736   1.150   2.832
    1MOL     C4    7   2.849   0.906   2.759
    1MOL     C5    8   2.859   1.153   2.771
    1MOL     C6    9   2.914   1.031   2.735
    1MOL     C7   10   2.913   0.778   2.717
    1MOL     O3   11   2.859   0.676   2.746
    1MOL     O4   12   3.020   0.776   2.658
    1MOL     H1   13   2.672   0.821   2.865
    1MOL     H2   14   2.689   1.240   2.871
    1MOL     H3   15   2.911   1.243   2.742
    1MOL     H4   16   3.006   1.028   2.677
    2OCB     C1   17   2.953   2.728   2.941
    2OCB     C2   18   2.827   2.678   2.697
    2OCB     C3   19   2.829   2.794   2.905
    2OCB     C4   20   3.004   2.636   2.851
    2OCB     C5   21   2.944   2.615   2.727
    2OCB     C6   22   2.761   2.766   2.784
    2OCB     O1   23   2.762   2.629   2.586
    2OCB     C7   24   2.633   2.836   2.741
    2OCB     C8   25   2.654   2.536   2.613
    2OCB     O2   26   2.539   2.608   2.598
    2OCB     C9   27   2.475   2.651   2.712
    2OCB    C10   28   2.515   2.755   2.794
    2OCB    C11   29   2.449   2.783   2.914
    2OCB    C12   30   2.374   2.566   2.759
    2OCB    C13   31   2.347   2.697   2.960
    2OCB    C14   32   2.314   2.590   2.882
    2OCB     O3   33   2.217   2.493   2.919
    2OCB    C15   34   2.285   2.718   3.100
    2OCB    C16   35   2.357   2.637   3.201
    2OCB    C17   36   2.313   2.507   3.221
    2OCB    C18   37   2.245   2.397   3.019
    2OCB     O4   38   2.213   2.456   3.149
    2OCB     O5   39   3.098   2.548   2.884
    2OCB    C19   40   3.024   2.748   3.077
    2OCB    C20   41   2.965   2.654   3.185
    2OCB     O6   42   3.107   2.474   3.100
    2OCB    C21   43   3.017   2.523   3.193
    2OCB    C22   44   2.372   2.435   3.322
    2OCB    C23   45   2.488   2.477   3.383
    2OCB    C24   46   2.953   2.440   3.282
    2OCB    C25   47   2.842   2.483   3.363
    2OCB     O7   48   2.549   2.378   3.458
    2OCB     O8   49   2.780   2.387   3.442
    2OCB    C26   50   2.665   2.314   3.399
    2OCB    C27   51   2.857   2.696   3.266
    2OCB    C28   52   2.798   2.614   3.359
    2OCB    C29   53   2.468   2.689   3.273
    2OCB    C30   54   2.673   2.658   3.427
    2OCB    C31   55   2.541   2.609   3.359
    2OCB    C32   56   3.070   2.438   2.965
    2OCB    C33   57   2.261   2.870   3.151
    2OCB    C34   58   2.188   2.883   3.285
    2OCB    C35   59   2.128   3.022   3.300
    2OCB     O9   60   2.189   3.121   3.289
    2OCB    C36   61   2.621   2.989   2.774
    2OCB    C37   62   2.508   3.065   2.701
    2OCB    C38   63   2.512   3.210   2.714
    2OCB    O10   64   2.553   3.271   2.614
    2OCB    C39   65   3.020   2.900   3.127
    2OCB    C40   66   3.093   3.002   3.040
    2OCB    C41   67   3.109   3.139   3.113
    2OCB    O11   68   3.013   3.180   3.176
    2OCB    C42   69   2.669   2.806   3.466
    2OCB    C43   70   2.559   2.842   3.576
    2OCB    C44   71   2.593   2.777   3.708
    2OCB    O12   72   2.499   2.728   3.769
    2OCB    C45   73   2.666   2.412   2.527
    2OCB    C46   74   2.682   2.185   2.367
    2OCB    C47   75   2.554   2.327   2.501
    2OCB    C48   76   2.787   2.380   2.463
    2OCB    C49   77   2.792   2.265   2.384
    2OCB    C50   78   2.559   2.215   2.429
    2OCB    C51   79   3.140   2.307   2.921
    2OCB    C52   80   3.266   2.074   2.848
    2OCB    C53   81   3.162   2.213   3.015
    2OCB    C54   82   3.181   2.289   2.788
    2OCB    C55   83   3.252   2.171   2.750
    2OCB    C56   84   3.221   2.091   2.981
    2OCB    C57   85   2.674   2.171   3.435
    2OCB    C58   86   2.704   1.895   3.458
    2OCB    C59   87   2.561   2.099   3.436
    2OCB    C60   88   2.796   2.114   3.433
    2OCB    C61   89   2.816   1.978   3.441
    2OCB    C62   90   2.576   1.957   3.457
    2OCB    C63   91   2.172   2.268   2.992
    2OCB    C64   92   2.068   2.009   2.929
    2OCB    C65   93   2.151   2.177   3.096
    2OCB    C66   94   2.152   2.225   2.860
    2OCB    C67   95   2.101   2.095   2.829
    2OCB    C68   96   2.093   2.052   3.063
    2OCB    O13   97   3.272   2.134   2.621
    2OCB    O14   98   2.941   1.915   3.440
    2OCB    O15   99   2.463   1.877   3.455
    2OCB    O16  100   2.910   2.238   2.313
    2OCB    O17  101   2.459   2.128   2.410
    2OCB    O18  102   2.085   1.948   3.153
    2OCB    O19  103   2.076   2.054   2.704
    2OCB    C69  104   3.057   1.960   3.384
    2OCB    C70  105   3.299   2.061   3.289
    2OCB    C71  106   3.082   1.942   3.249
    2OCB    C72  107   3.137   2.035   3.469
    2OCB    C73  108   3.257   2.091   3.420
    2OCB    C74  109   3.208   1.995   3.202
    2OCB    O20  110   3.244   1.986   3.070
    2OCB    C75  111   3.042   2.250   2.363
    2OCB    C76  112   3.290   2.318   2.468
    2OCB    C77  113   3.117   2.350   2.309
    2OCB    C78  114   3.091   2.173   2.471
    2OCB    C79  115   3.214   2.211   2.522
    2OCB    C80  116   3.243   2.389   2.359
    2OCB    C81  117   2.336   1.920   3.421
    2OCB    C82  118   2.075   2.001   3.389
    2OCB    C83  119   2.261   1.961   3.529
    2OCB    C84  120   2.287   1.924   3.290
    2OCB    C85  121   2.151   1.956   3.276
    2OCB    C86  122   2.136   2.014   3.513
    2OCB    C87  123   2.052   2.055   3.633
    2OCB    O21  124   2.089   2.042   3.750
    2OCB    C88  125   2.044   2.352   2.306
    2OCB    O22  126   2.099   2.410   2.213
    2OCB    C89  127   3.318   2.503   2.296
    2OCB    O23  128   3.292   2.541   2.182
    2OCB    O24  129   2.013   3.030   3.334
    2OCB    O25  130   2.705   2.771   3.750
    2OCB    O26  131   3.208   3.207   3.092
    2OCB    C90  132   3.347   2.172   3.515
    2OCB    O27  133   3.434   2.242   3.467
    2OCB    O28  134   1.927   2.378   2.338
    2OCB    O29  135   1.941   2.100   3.615
    2OCB    O30  136   3.341   2.150   3.635
    2OCB    O31  137   3.400   2.572   2.358
    2OCB    O32  138   2.459   3.269   2.809
    2OCB    C91  139   2.332   2.153   2.451
    2OCB    C92  140   2.069   2.199   2.507
    2OCB    C93  141   2.283   2.093   2.567
    2OCB    C94  142   2.254   2.229   2.371
    2OCB    C95  143   2.122   2.261   2.394
    2OCB    C96  144   2.143   2.111   2.590
    2OCB    C97  145   2.371   1.996   2.643
    2OCB    C98  146   3.025   2.046   2.524
    2OCB    C99  147   2.985   1.866   3.156
    2OCB      C  148   2.376   1.885   3.172
    2OCB     H1  149   2.775   2.855   2.976
    2OCB     H2  150   2.991   2.547   2.657
    2OCB     H3  151   2.640   2.841   2.632
    2OCB     H4  152   2.673   2.496   2.713
    2OCB     H5  153   2.482   2.867   2.974
    2OCB     H6  154   2.340   2.484   2.696
    2OCB     H7  155   2.180   2.693   3.089
    2OCB     H8  156   2.351   2.367   3.014
    2OCB     H9  157   3.127   2.723   3.054
    2OCB    H10  158   2.338   2.333   3.338
    2OCB    H11  159   2.980   2.334   3.279
    2OCB    H12  160   2.650   2.308   3.290
    2OCB    H13  161   2.813   2.793   3.246
    2OCB    H14  162   2.500   2.789   3.246
    2OCB    H15  163   2.665   2.619   3.529
    2OCB    H16  164   2.965   2.407   2.970
    2OCB    H17  165   2.358   2.918   3.162
    2OCB    H18  166   2.203   2.915   3.070
    2OCB    H19  167   2.110   2.807   3.292
    2OCB    H20  168   2.261   2.883   3.366
    2OCB    H21  169   2.709   3.040   2.735
    2OCB    H22  170   2.616   3.002   2.882
    2OCB    H23  171   2.526   3.028   2.600
    2OCB    H24  172   2.416   3.021   2.740
    2OCB    H25  173   2.915   2.924   3.145
    2OCB    H26  174   3.079   2.898   3.219
    2OCB    H27  175   3.194   2.970   3.014
    2OCB    H28  176   3.037   3.020   2.948
    2OCB    H29  177   2.765   2.843   3.501
    2OCB    H30  178   2.632   2.855   3.376
    2OCB    H31  179   2.568   2.950   3.587
    2OCB    H32  180   2.457   2.814   3.551
    2OCB    H33  181   2.683   2.097   2.304
    2OCB    H34  182   2.460   2.356   2.548
    2OCB    H35  183   2.874   2.444   2.473
    2OCB    H36  184   3.310   1.979   2.819
    2OCB    H37  185   3.121   2.233   3.114
    2OCB    H38  186   3.156   2.361   2.710
    2OCB    H39  187   2.710   1.787   3.470
    2OCB    H40  188   2.459   2.137   3.433
    2OCB    H41  189   2.880   2.181   3.416
    2OCB    H42  190   2.028   1.910   2.907
    2OCB    H43  191   2.179   2.209   3.196
    2OCB    H44  192   2.176   2.301   2.786
    2OCB    H45  193   3.392   2.102   3.250
    2OCB    H46  194   3.106   2.049   3.573
    2OCB    H47  195   3.383   2.348   2.515
    2OCB    H48  196   3.067   2.413   2.235
    2OCB    H49  197   1.969   2.019   3.380
    2OCB    H50  198   2.301   1.957   3.630
    2OCB    H51  199   1.965   2.220   2.532
    2OCB    H52  200   2.308   2.273   2.287
    2OCB    H53  201   2.454   2.051   2.688
    2OCB    H54  202   2.315   1.945   2.721
    2OCB    H55  203   2.407   1.921   2.573
    2OCB    H56  204   2.988   2.065   2.625
    2OCB    H57  205   2.940   2.010   2.465
    2OCB    H58  206   3.097   1.965   2.530
    2OCB    H59  207   2.879   1.892   3.153
    2OCB    H60  208   3.007   1.863   3.049
    2OCB    H61  209   2.983   1.764   3.192
    2OCB    H62  210   2.379   1.776   3.159
    2OCB    H63  211   2.355   1.940   3.081
    2OCB    H64  212   2.481   1.910   3.186
    3Na+    Na+  213   1.453   1.702   0.551
    4Na+    Na+  214   3.678   2.485   2.043
    5Na+    Na+  215   0.245   2.950   1.724
    6Na+    Na+  216   1.494   0.370   3.807
    7Na+    Na+  217   0.563   2.185   3.182
    8Na+    Na+  218   3.197   1.260   3.667
    9Na+    Na+  219   3.066   3.385   3.269
   10Na+    Na+  220   2.632   2.756   3.987
   11Na+    Na+  221   1.675   3.278   2.793
   12HOH      O  222   3.882   2.238   0.535
   12HOH     H1  223   3.901   2.309   0.473
   12HOH     H2  224   3.967   2.217   0.574
   13HOH      O  225   1.944   2.351   0.513
   13HOH     H1  226   1.956   2.413   0.441
   13HOH     H2  227   1.927   2.405   0.590
   14HOH      O  228   2.566   3.006   0.017
   14HOH     H1  229   2.626   2.998   0.091
   14HOH     H2  230   2.505   3.075   0.044
   15HOH      O  231   2.420   1.202   1.809
   15HOH     H1  232   2.499   1.256   1.814
   15HOH     H2  233   2.438   1.142   1.737
   16HOH      O  234   1.512   1.401   0.909
   16HOH     H1  235   1.444   1.396   0.842
   16HOH     H2  236   1.567   1.324   0.895
   17HOH      O  237   0.361   2.255   3.688
   17HOH     H1  238   0.337   2.321   3.753
   17HOH     H2  239   0.379   2.305   3.608
   18HOH      O  240   3.409   1.681   2.106
   18HOH     H1  241   3.350   1.607   2.117
   18HOH     H2  242   3.413   1.695   2.012
   19HOH      O  243   1.431   1.603   2.817
   19HOH     H1  244   1.422   1.570   2.727
   19HOH     H2  245   1.342   1.630   2.841
   20HOH      O  246   2.828   1.673   1.658
   20HOH     H1  247   2.784   1.630   1.585
   20HOH     H2  248   2.797   1.763   1.656
   21HOH      O  249   2.181   0.900   2.807
   21HOH     H1  250   2.159   0.830   2.869
   21HOH     H2  251   2.200   0.975   2.863
   22HOH      O  252   1.874   3.048   3.125
   22HOH     H1  253   1.860   2.957   3.103
   22HOH     H2  254   1.921   3.045   3.209
   23HOH      O  255   3.131   1.790   1.150
   23HOH     H1  256   3.050   1.827   1.113
   23HOH     H2  257   3.192   1.789   1.077
   24HOH      O  258   1.404   3.448   1.169
   24HOH     H1  259   1.337   3.504   1.129
   24HOH     H2  260   1.374   3.436   1.259
   25HOH      O  261   1.683   1.084   2.138
   25HOH     H1  262   1.599   1.087   2.183
   25HOH     H2  263   1.694   0.993   2.113
   26HOH      O  264   0.174   2.229   1.428
   26HOH     H1  265   0.079   2.243   1.436
   26HOH     H2  266   0.202   2.205   1.516
   27HOH      O  267   1.273   2.261   0.025
   27HOH     H1  268   1.248   2.341   0.071
   27HOH     H2  269   1.317   2.207   0.091
   28HOH      O  270   0.745   2.040   3.258
   28HOH     H1  271   0.834   2.009   3.274
   28HOH     H2  272   0.690   1.964   3.273
   29HOH      O  273   1.525   2.895   2.341
   29HOH     H1  274   1.523   2.983   2.378
   29HOH     H2  275   1.506   2.907   2.248
   30HOH      O  276   1.220   2.880   2.569
   30HOH     H1  277   1.273   2.905   2.644
   30HOH     H2  278   1.216   2.959   2.515
   31HOH      O  279   1.831   0.374   2.846
   31HOH     H1  280   1.819   0.286   2.811
   31HOH     H2  281   1.780   0.430   2.788
   32HOH      O  282   0.830   1.254   3.981
   32HOH     H1  283   0.784   1.282   4.060
   32HOH     H2  284   0.856   1.164   3.998
   33HOH      O  285   2.454   3.969   0.858
   33HOH     H1  286   2.383   4.032   0.863
   33HOH     H2  287   2.530   4.020   0.831
   34HOH      O  288   3.331   3.316   2.878
   34HOH     H1  289   3.283   3.254   2.933
   34HOH     H2  290   3.262   3.366   2.834
   35HOH      O  291   3.859   0.127   2.163
   35HOH     H1  292   3.853   0.221   2.179
   35HOH     H2  293   3.807   0.087   2.233
   36HOH      O  294   1.390   1.378   0.189
   36HOH     H1  295   1.301   1.377   0.155
   36HOH     H2  296   1.445   1.356   0.114
   37HOH      O  297   2.544   1.436   2.753
   37HOH     H1  298   2.515   1.503   2.815
   37HOH     H2  299   2.475   1.369   2.755
   38HOH      O  300   1.522   0.592   0.677
   38HOH     H1  301   1.484   0.679   0.689
   38HOH     H2  302   1.598   0.592   0.736
   39HOH      O  303   1.887   1.134   1.286
   39HOH     H1  304   1.961   1.169   1.336
   39HOH     H2  305   1.927   1.071   1.226
   40HOH      O  306   3.614   2.321   1.379
   40HOH     H1  307   3.555   2.356   1.446
   40HOH     H2  308   3.578   2.235   1.358
   41HOH      O  309   1.216   1.268   1.666
   41HOH     H1  310   1.157   1.200   1.700
   41HOH     H2  311   1.247   1.233   1.583
   42HOH      O  312   4.015   2.456   3.035
   42HOH     H1  313   3.938   2.498   2.995
   42HOH     H2  314   4.008   2.364   3.010
   43HOH      O  315   2.700   0.486   2.816
   43HOH     H1  316   2.763   0.553   2.787
   43HOH     H2  317   2.615   0.521   2.791
   44HOH      O  318   3.747   2.518   0.624
   44HOH     H1  319   3.802   2.485   0.553
   44HOH     H2  320   3.765   2.612   0.627
   45HOH      O  321   2.105   0.669   0.977
   45HOH     H1  322   2.081   0.577   0.973
   45HOH     H2  323   2.200   0.669   0.992
   46HOH      O  324   0.323   3.249   0.022
   46HOH     H1  325   0.375   3.319  -0.017
   46HOH     H2  326   0.234   3.285   0.024
   47HOH      O  327   2.855   3.356   0.814
   47HOH     H1  328   2.941   3.366   0.773
   47HOH     H2  329   2.874   3.336   0.905
   48HOH      O  330   3.273   0.553   3.830
   48HOH     H1  331   3.315   0.559   3.744
   48HOH     H2  332   3.344   0.570   3.892
   49HOH      O  333   3.914   2.053   1.609
   49HOH     H1  334   3.823   2.026   1.601
   49HOH     H2  335   3.964   1.972   1.605
   50HOH      O  336   3.294   1.221   3.202
   50HOH     H1  337   3.245   1.174   3.135
   50HOH     H2  338   3.386   1.205   3.180
   51HOH      O  339   3.475   3.415   3.651
   51HOH     H1  340   3.468   3.364   3.571
   51HOH     H2  341   3.533   3.488   3.628
   52HOH      O  342   0.181   0.262   1.638
   52HOH     H1  343   0.141   0.260   1.725
   52HOH     H2  344   0.255   0.322   1.647
   53HOH      O  345   1.906   1.713   0.706
   53HOH     H1  346   1.895   1.734   0.799
   53HOH     H2  347   1.950   1.790   0.670
   54HOH      O  348   1.698   1.881   0.234
   54HOH     H1  349   1.731   1.956   0.185
   54HOH     H2  350   1.749   1.881   0.315
   55HOH      O  351   1.974   2.159   1.415
   55HOH     H1  352   1.974   2.249   1.447
   55HOH     H2  353   2.031   2.112   1.476
   56HOH      O  354   1.264   0.643   0.339
   56HOH     H1  355   1.345   0.594   0.354
   56HOH     H2  356   1.244   0.629   0.247
   57HOH      O  357   3.988   3.270   0.400
   57HOH     H1  358   3.947   3.195   0.356
   57HOH     H2  359   4.022   3.324   0.328
   58HOH      O  360   0.569   3.170   3.190
   58HOH     H1  361   0.619   3.156   3.110
   58HOH     H2  362   0.630   3.214   3.249
   59HOH      O  363   2.764   1.298   0.067
   59HOH     H1  364   2.836   1.341   0.112
   59HOH     H2  365   2.740   1.357  -0.004
   60HOH      O  366   0.279   3.792   0.950
   60HOH     H1  367   0.211   3.747   0.899
   60HOH     H2  368   0.361   3.761   0.912
   61HOH      O  369   0.847   3.634   2.388
   61HOH     H1  370   0.909   3.613   2.458
   61HOH     H2  371   0.792   3.703   2.425
   62HOH      O  372   2.204   1.379   1.892
   62HOH     H1  373   2.219   1.447   1.826
   62HOH     H2  374   2.227   1.298   1.848
   63HOH      O  375   1.388   2.400   0.343
   63HOH     H1  376   1.437   2.365   0.268
   63HOH     H2  377   1.441   2.378   0.419
   64HOH      O  378   3.845   0.461   0.879
   64HOH     H1  379   3.832   0.543   0.926
   64HOH     H2  380   3.801   0.395   0.933
   65HOH      O  381   3.821   0.306   1.751
   65HOH     H1  382   3.905   0.322   1.707
   65HOH     H2  383   3.836   0.226   1.801
   66HOH      O  384   3.729   1.684   3.986
   66HOH     H1  385   3.747   1.639   4.068
   66HOH     H2  386   3.756   1.775   4.001
   67HOH      O  387   1.474   2.276   3.252
   67HOH     H1  388   1.402   2.298   3.311
   67HOH     H2  389   1.525   2.357   3.246
   68HOH      O  390   0.773   3.134   1.786
   68HOH     H1  391   0.860   3.173   1.790
   68HOH     H2  392   0.718   3.190   1.840
   69HOH      O  393   2.220   1.134   0.788
   69HOH     H1  394   2.295   1.112   0.843
   69HOH     H2  395   2.171   1.197   0.840
   70HOH      O  396   2.382   2.220   3.712
   70HOH     H1  397   2.427   2.282   3.770
   70HOH     H2  398   2.365   2.143   3.767
   71HOH      O  399   2.689   2.250   1.290
   71HOH     H1  400   2.704   2.161   1.322
   71HOH     H2  401   2.623   2.240   1.222
   72HOH      O  402   2.427   3.570   2.329
   72HOH     H1  403   2.418   3.477   2.349
   72HOH     H2  404   2.352   3.612   2.372
   73HOH      O  405   0.822   1.257   1.907
   73HOH     H1  406   0.839   1.163   1.915
   73HOH     H2  407   0.907   1.297   1.927
   74HOH      O  408   2.225   1.628   2.630
   74HOH     H1  409   2.314   1.663   2.629
   74HOH     H2  410   2.172   1.695   2.587
   75HOH      O  411   1.688   2.869   0.679
   75HOH     H1  412   1.610   2.832   0.722
   75HOH     H2  413   1.657   2.894   0.592
   76HOH      O  414   1.954   1.730   1.610
   76HOH     H1  415   1.878   1.764   1.657
   76HOH     H2  416   1.962   1.639   1.640
   77HOH      O  417   1.576   1.133   0.916
   77HOH     H1  418   1.590   1.047   0.875
   77HOH     H2  419   1.556   1.113   1.007
   78HOH      O  420   4.023   0.655   2.895
   78HOH     H1  421   3.980   0.692   2.973
   78HOH     H2  422   3.960   0.671   2.824
   79HOH      O  423   1.462   1.822   0.338
   79HOH     H1  424   1.390   1.868   0.294
   79HOH     H2  425   1.537   1.834   0.281
   80HOH      O  426   1.648   0.939   1.880
   80HOH     H1  427   1.588   0.868   1.860
   80HOH     H2  428   1.729   0.916   1.835
   81HOH      O  429   3.745   4.053   0.934
   81HOH     H1  430   3.778   4.043   0.845
   81HOH     H2  431   3.784   3.980   0.982
   82HOH      O  432   0.480   1.054   1.268
   82HOH     H1  433   0.498   0.974   1.218
   82HOH     H2  434   0.385   1.062   1.267
   83HOH      O  435   2.675   2.282   0.544
   83HOH     H1  436   2.609   2.351   0.553
   83HOH     H2  437   2.700   2.284   0.452
   84HOH      O  438   3.848   2.920   2.405
   84HOH     H1  439   3.942   2.937   2.398
   84HOH     H2  440   3.818   2.914   2.314
   85HOH      O  441   2.185   0.961   3.542
   85HOH     H1  442   2.179   0.868   3.561
   85HOH     H2  443   2.131   1.003   3.608
   86HOH      O  444   2.816   0.123   3.103
   86HOH     H1  445   2.746   0.063   3.127
   86HOH     H2  446   2.802   0.141   3.010
   87HOH      O  447   3.424   1.394   3.750
   87HOH     H1  448   3.492   1.360   3.693
   87HOH     H2  449   3.471   1.424   3.828
   88HOH      O  450   3.517   2.683   3.613
   88HOH     H1  451   3.509   2.618   3.544
   88HOH     H2  452   3.471   2.760   3.579
   89HOH      O  453   3.628   2.122   2.515
   89HOH     H1  454   3.685   2.144   2.589
   89HOH     H2  455   3.630   2.199   2.459
   90HOH      O  456   2.170   3.606   1.912
   90HOH     H1  457   2.258   3.570   1.898
   90HOH     H2  458   2.131   3.548   1.977
   91HOH      O  459   2.581   2.155   0.805
   91HOH     H1  460   2.610   2.198   0.724
   91HOH     H2  461   2.552   2.068   0.777
   92HOH      O  462   2.855   0.751   1.221
   92HOH     H1  463   2.925   0.735   1.158
   92HOH     H2  464   2.899   0.789   1.297
   93HOH      O  465   1.941   0.136   3.878
   93HOH     H1  466   1.955   0.066   3.942
   93HOH     H2  467   2.016   0.129   3.819
   94HOH      O  468   3.056   3.861   3.487
   94HOH     H1  469   2.992   3.932   3.488
   94HOH     H2  470   3.009   3.785   3.523
   95HOH      O  471   2.199   3.686   2.440
   95HOH     H1  472   2.163   3.623   2.502
   95HOH     H2  473   2.254   3.744   2.492
   96HOH      O  474   0.640   2.347   1.406
   96HOH     H1  475   0.645   2.255   1.378
   96HOH     H2  476   0.690   2.395   1.340
   97HOH      O  477   3.602   3.180   3.493
   97HOH     H1  478   3.652   3.108   3.454
   97HOH     H2  479   3.596   3.246   3.424
   98HOH      O  480   3.590   0.758   1.201
   98HOH     H1  481   3.597   0.816   1.276
   98HOH     H2  482   3.510   0.708   1.216
   99HOH      O  483   3.498   0.621   2.577
   99HOH     H1  484   3.560   0.686   2.609
   99HOH     H2  485   3.413   0.650   2.609
  100HOH      O  486   3.942   3.232   1.744
  100HOH     H1  487   3.889   3.281   1.682
  100HOH     H2  488   3.879   3.207   1.813
  101HOH      O  489   0.608   2.582   3.377
  101HOH     H1  490   0.561   2.657   3.414
  101HOH     H2  491   0.700   2.603   3.388
  102HOH      O  492   0.028   1.579   1.954
  102HOH     H1  493   0.100   1.634   1.922
  102HOH     H2  494  -0.007   1.537   1.875
  103HOH      O  495   1.002   3.271   1.822
  103HOH     H1  496   1.034   3.360   1.841
  103HOH     H2  497   1.078   3.215   1.836
  104HOH      O  498   3.157   0.437   1.070
  104HOH     H1  499   3.181   0.392   1.151
  104HOH     H2  500   3.188   0.377   1.001
  105HOH      O  501   1.765   3.594   0.415
  105HOH     H1  502   1.779   3.516   0.468
  105HOH     H2  503   1.853   3.625   0.392
  106HOH      O  504   1.553   2.612   1.220
  106HOH     H1  505   1.486   2.569   1.274
  106HOH     H2  506   1.504   2.671   1.164
  107HOH      O  507   1.905   1.176   0.663
  107HOH     H1  508   1.864   1.263   0.669
  107HOH     H2  509   1.977   1.180   0.726
  108HOH      O  510   3.458   1.107   1.570
  108HOH     H1  511   3.493   1.195   1.557
  108HOH     H2  512   3.466   1.092   1.664
  109HOH      O  513   3.202   0.608   0.406
  109HOH     H1  514   3.276   0.654   0.447
  109HOH     H2  515   3.179   0.539   0.468
  110HOH      O  516   0.345   2.946   2.307
  110HOH     H1  517   0.378   2.905   2.387
  110HOH     H2  518   0.309   2.874   2.256
  111HOH      O  519   3.903   2.857   1.078
  111HOH     H1  520   3.825   2.802   1.080
  111HOH     H2  521   3.957   2.824   1.150
  112HOH      O  522   1.411   3.296   2.242
  112HOH     H1  523   1.439   3.385   2.262
  112HOH     H2  524   1.326   3.306   2.199
  113HOH      O  525   1.145   3.167   0.707
  113HOH     H1  526   1.152   3.130   0.619
  113HOH     H2  527   1.053   3.155   0.730
  114HOH      O  528   0.504   2.529   1.076
  114HOH     H1  529   0.497   2.528   0.981
  114HOH     H2  530   0.413   2.523   1.107
  115HOH      O  531   0.693   2.376   3.224
  115HOH     H1  532   0.703   2.388   3.130
  115HOH     H2  533   0.669   2.463   3.257
  116HOH      O  534   2.542   2.478   1.348
  116HOH     H1  535   2.532   2.494   1.442
  116HOH     H2  536   2.623   2.427   1.341
  117HOH      O  537   3.002   0.147   3.854
  117HOH     H1  538   2.960   0.062   3.865
  117HOH     H2  539   3.033   0.147   3.764
  118HOH      O  540   3.347   1.438   2.477
  118HOH     H1  541   3.365   1.531   2.462
  118HOH     H2  542   3.277   1.437   2.542
  119HOH      O  543   1.342   3.740   2.913
  119HOH     H1  544   1.435   3.718   2.915
  119HOH     H2  545   1.297   3.658   2.931
  120HOH      O  546   1.986   2.473   0.763
  120HOH     H1  547   1.964   2.406   0.827
  120HOH     H2  548   2.081   2.486   0.774
  121HOH      O  549   1.642   2.250   1.830
  121HOH     H1  550   1.559   2.225   1.872
  121HOH     H2  551   1.661   2.337   1.865
  122HOH      O  552   3.837   2.648   2.874
  122HOH     H1  553   3.807   2.667   2.963
  122HOH     H2  554   3.760   2.611   2.830
  123HOH      O  555   1.923   2.354   3.688
  123HOH     H1  556   2.002   2.379   3.640
  123HOH     H2  557   1.931   2.259   3.698
  124HOH      O  558   0.063   1.895   1.186
  124HOH     H1  559   0.050   1.884   1.280
  124HOH     H2  560   0.110   1.978   1.177
  125HOH      O  561   3.529   3.667   2.818
  125HOH     H1  562   3.496   3.756   2.803
  125HOH     H2  563   3.617   3.679   2.853
  126HOH      O  564   1.579   3.158   2.404
  126HOH     H1  565   1.669   3.168   2.371
  126HOH     H2  566   1.524   3.188   2.333
  127HOH      O  567   1.324   0.866   2.864
  127HOH     H1  568   1.323   0.956   2.832
  127HOH     H2  569   1.377   0.818   2.799
  128HOH      O  570   2.281   0.819   1.455
  128HOH     H1  571   2.265   0.748   1.393
  128HOH     H2  572   2.364   0.797   1.496
  129HOH      O  573   3.540   2.114   1.202
  129HOH     H1  574   3.500   2.155   1.125
  129HOH     H2  575   3.473   2.053   1.234
  130HOH      O  576   1.114   1.369   0.505
  130HOH     H1  577   1.119   1.274   0.513
  130HOH     H2  578   1.021   1.389   0.516
  131HOH      O  579   2.982   3.482   0.255
  131HOH     H1  580   3.019   3.562   0.291
  131HOH     H2  581   2.928   3.447   0.327
  132HOH      O  582   0.328   0.245   0.484
  132HOH     H1  583   0.413   0.255   0.441
  132HOH     H2  584   0.289   0.333   0.482
  133HOH      O  585   1.221   0.608   0.074
  133HOH     H1  586   1.298   0.589   0.022
  133HOH     H2  587   1.148   0.570   0.024
  134HOH      O  588   0.368   1.626   1.470
  134HOH     H1  589   0.405   1.578   1.396
  134HOH     H2  590   0.307   1.564   1.511
  135HOH      O  591   2.773   3.822   0.266
  135HOH     H1  592   2.844   3.885   0.268
  135HOH     H2  593   2.739   3.821   0.356
  136HOH      O  594   2.512   3.556   3.919
  136HOH     H1  595   2.598   3.546   3.878
  136HOH     H2  596   2.475   3.468   3.921
  137HOH      O  597   3.610   1.251   3.215
  137HOH     H1  598   3.668   1.244   3.140
  137HOH     H2  599   3.562   1.333   3.201
  138HOH      O  600   1.619   3.682   1.081
  138HOH     H1  601   1.638   3.595   1.115
  138HOH     H2  602   1.705   3.717   1.056
  139HOH      O  603   0.158   0.207   3.646
  139HOH     H1  604   0.184   0.281   3.592
  139HOH     H2  605   0.120   0.247   3.725
  140HOH      O  606   3.380   4.047   0.741
  140HOH     H1  607   3.427   3.971   0.706
  140HOH     H2  608   3.306   4.058   0.682
  141HOH      O  609   3.283   2.811   1.346
  141HOH     H1  610   3.301   2.720   1.371
  141HOH     H2  611   3.202   2.834   1.391
  142HOH      O  612   3.064   3.739   1.901
  142HOH     H1  613   3.025   3.696   1.825
  142HOH     H2  614   3.082   3.668   1.962
  143HOH      O  615   1.312   3.781   0.471
  143HOH     H1  616   1.369   3.716   0.512
  143HOH     H2  617   1.307   3.852   0.534
  144HOH      O  618   3.549   0.220   0.607
  144HOH     H1  619   3.474   0.265   0.567
  144HOH     H2  620   3.510   0.163   0.673
  145HOH      O  621   2.195   1.999   0.634
  145HOH     H1  622   2.215   1.945   0.558
  145HOH     H2  623   2.280   2.010   0.679
  146HOH      O  624   3.541   2.308   3.233
  146HOH     H1  625   3.617   2.365   3.244
  146HOH     H2  626   3.504   2.300   3.321
  147HOH      O  627   2.577   4.031   3.150
  147HOH     H1  628   2.519   3.974   3.101
  147HOH     H2  629   2.524   4.062   3.224
  148HOH      O  630   1.676   0.451   1.378
  148HOH     H1  631   1.606   0.516   1.371
  148HOH     H2  632   1.757   0.502   1.374
  149HOH      O  633   3.138   3.562   2.224
  149HOH     H1  634   3.113   3.515   2.145
  149HOH     H2  635   3.086   3.523   2.294
  150HOH      O  636   3.325   1.194   2.308
  150HOH     H1  637   3.412   1.156   2.324
  150HOH     H2  638   3.330   1.282   2.345
  151HOH      O  639   1.751   0.731   2.225
  151HOH     H1  640   1.675   0.777   2.190
  151HOH     H2  641   1.768   0.662   2.161
  152HOH      O  642   0.035   0.655   3.257
  152HOH     H1  643   0.048   0.694   3.344
  152HOH     H2  644  -0.055   0.680   3.233
  153HOH      O  645   1.101   1.674   2.065
  153HOH     H1  646   1.082   1.580   2.057
  153HOH     H2  647   1.195   1.681   2.045
  154HOH      O  648   3.501   1.099   0.343
  154HOH     H1  649   3.591   1.072   0.364
  154HOH     H2  650   3.478   1.159   0.414
  155HOH      O  651   0.743   3.232   1.378
  155HOH     H1  652   0.739   3.306   1.317
  155HOH     H2  653   0.810   3.258   1.442
  156HOH      O  654   2.388   0.450   0.436
  156HOH     H1  655   2.328   0.499   0.380
  156HOH     H2  656   2.342   0.442   0.519
  157HOH      O  657   2.568   3.629   1.294
  157HOH     H1  658   2.476   3.619   1.267
  157HOH     H2  659   2.612   3.664   1.216
  158HOH      O  660   2.236   2.596   0.209
  158HOH     H1  661   2.154   2.595   0.258
  158HOH     H2  662   2.294   2.536   0.256
  159HOH      O  663   0.970   0.179   0.776
  159HOH     H1  664   1.042   0.141   0.727
  159HOH     H2  665   0.992   0.161   0.868
  160HOH      O  666   2.415   1.187   3.246
  160HOH     H1  667   2.383   1.277   3.244
  160HOH     H2  668   2.432   1.166   3.154
  161HOH      O  669   0.863   2.605   2.521
  161HOH     H1  670   0.917   2.680   2.498
  161HOH     H2  671   0.856   2.555   2.439
  162HOH      O  672   2.019   4.011   0.952
  162HOH     H1  673   1.953   3.953   0.915
  162HOH     H2  674   2.056   3.962   1.025
  163HOH      O  675   2.854   2.147   1.762
  163HOH     H1  676   2.829   2.239   1.755
  163HOH     H2  677   2.862   2.131   1.856
  164HOH      O  678   2.134   1.820   0.437
  164HOH     H1  679   2.149   1.820   0.342
  164HOH     H2  680   2.137   1.728   0.461
  165HOH      O  681   2.544   1.025   2.123
  165HOH     H1  682   2.497   1.107   2.106
  165HOH     H2  683   2.485   0.957   2.090
  166HOH      O  684   0.287   3.255   3.533
  166HOH     H1  685   0.312   3.174   3.488
  166HOH     H2  686   0.239   3.225   3.610
  167HOH      O  687   1.300   0.807   2.331
  167HOH     H1  688   1.337   0.890   2.300
  167HOH     H2  689   1.374   0.762   2.373
  168HOH      O  690   0.800   0.250   2.637
  168HOH     H1  691   0.851   0.330   2.647
  168HOH     H2  692   0.711   0.280   2.618
  169HOH      O  693   1.629   3.296   1.048
  169HOH     H1  694   1.565   3.349   1.094
  169HOH     H2  695   1.587   3.211   1.038
  170HOH      O  696   2.015   3.611   4.017
  170HOH     H1  697   2.055   3.548   3.957
  170HOH     H2  698   2.073   3.612   4.093
  171HOH      O  699   1.509   1.657   3.899
  171HOH     H1  700   1.575   1.681   3.834
  171HOH     H2  701   1.520   1.722   3.968
  172HOH      O  702   0.948   1.471   2.239
  172HOH     H1  703   0.911   1.559   2.244
  172HOH     H2  704   1.006   1.465   2.315
  173HOH      O  705   1.847   3.247   0.393
  173HOH     H1  706   1.878   3.238   0.483
  173HOH     H2  707   1.922   3.283   0.346
  174HOH      O  708  -0.012   1.493   0.646
  174HOH     H1  709  -0.016   1.411   0.697
  174HOH     H2  710   0.030   1.467   0.564
  175HOH      O  711   0.799   1.427   1.480
  175HOH     H1  712   0.867   1.365   1.507
  175HOH     H2  713   0.723   1.405   1.534
  176HOH      O  714   1.234   2.706   3.361
  176HOH     H1  715   1.149   2.744   3.384
  176HOH     H2  716   1.286   2.714   3.440
  177HOH      O  717   2.635   0.289   0.086
  177HOH     H1  718   2.579   0.223   0.045
  177HOH     H2  719   2.696   0.315   0.017
  178HOH      O  720   0.659   2.845   0.638
  178HOH     H1  721   0.599   2.850   0.712
  178HOH     H2  722   0.669   2.751   0.621
  179HOH      O  723   1.168   3.088   2.382
  179HOH     H1  724   1.137   3.177   2.372
  179HOH     H2  725   1.228   3.075   2.308
  180HOH      O  726   2.652   2.507   0.014
  180HOH     H1  727   2.581   2.448   0.037
  180HOH     H2  728   2.711   2.455  -0.040
  181HOH      O  729   1.458   0.136   1.661
  181HOH     H1  730   1.461   0.160   1.753
  181HOH     H2  731   1.525   0.192   1.620
  182HOH      O  732   0.084   2.613   3.970
  182HOH     H1  733   0.028   2.683   3.936
  182HOH     H2  734   0.167   2.657   3.991
  183HOH      O  735   2.724   1.045   1.894
  183HOH     H1  736   2.671   1.046   1.973
  183HOH     H2  737   2.773   1.127   1.897
  184HOH      O  738   2.587   1.565   0.565
  184HOH     H1  739   2.623   1.479   0.541
  184HOH     H2  740   2.544   1.596   0.485
  185HOH      O  741   0.211   3.597   1.804
  185HOH     H1  742   0.225   3.650   1.725
  185HOH     H2  743   0.245   3.650   1.875
  186HOH      O  744   3.890   1.027   0.666
  186HOH     H1  745   3.870   0.944   0.709
  186HOH     H2  746   3.810   1.049   0.618
  187HOH      O  747   0.295   0.532   3.832
  187HOH     H1  748   0.307   0.440   3.857
  187HOH     H2  749   0.219   0.561   3.883
  188HOH      O  750   0.508   3.035   0.497
  188HOH     H1  751   0.433   2.983   0.526
  188HOH     H2  752   0.584   2.994   0.537
  189HOH      O  753   3.115   0.913   0.770
  189HOH     H1  754   3.170   0.962   0.709
  189HOH     H2  755   3.053   0.866   0.714
  190HOH      O  756   3.729   0.946   0.134
  190HOH     H1  757   3.694   1.028   0.099
  190HOH     H2  758   3.719   0.884   0.062
  191HOH      O  759   2.231   3.193   3.539
  191HOH     H1  760   2.205   3.156   3.455
  191HOH     H2  761   2.320   3.161   3.553
  192HOH      O  762   1.770   1.308   2.957
  192HOH     H1  763   1.863   1.316   2.979
  192HOH     H2  764   1.742   1.397   2.938
  193HOH      O  765   2.036   3.187   3.723
  193HOH     H1  766   1.975   3.127   3.681
  193HOH     H2  767   2.114   3.183   3.667
  194HOH      O  768   0.175   2.411   2.185
  194HOH     H1  769   0.215   2.400   2.099
  194HOH     H2  770   0.241   2.379   2.247
  195HOH      O  771   3.081   3.602   3.367
  195HOH     H1  772   3.115   3.690   3.379
  195HOH     H2  773   3.000   3.600   3.417
  196HOH      O  774   2.460   1.596   0.814
  196HOH     H1  775   2.489   1.514   0.855
  196HOH     H2  776   2.510   1.600   0.733
  197HOH      O  777   2.890   0.878   0.329
  197HOH     H1  778   2.964   0.914   0.281
  197HOH     H2  779   2.818   0.877   0.265
  198HOH      O  780   1.420   0.333   0.718
  198HOH     H1  781   1.466   0.415   0.698
  198HOH     H2  782   1.374   0.351   0.801
  199HOH      O  783   1.263   1.691   1.478
  199HOH     H1  784   1.222   1.607   1.457
  199HOH     H2  785   1.357   1.670   1.483
  200HOH      O  786   2.056   2.561   1.972
  200HOH     H1  787   2.028   2.473   1.949
  200HOH     H2  788   2.084   2.555   2.063
  201HOH      O  789   0.260   2.561   3.020
  201HOH     H1  790   0.165   2.553   3.030
  201HOH     H2  791   0.275   2.655   3.012
  202HOH      O  792   3.310   0.802   1.515
  202HOH     H1  793   3.326   0.879   1.460
  202HOH     H2  794   3.228   0.821   1.560
  203HOH      O  795   0.788   3.954   0.948
  203HOH     H1  796   0.792   3.996   0.862
  203HOH     H2  797   0.696   3.957   0.972
  204HOH      O  798   3.164   3.367   1.506
  204HOH     H1  799   3.220   3.289   1.507
  204HOH     H2  800   3.141   3.378   1.413
  205HOH      O  801   1.677   2.852   3.889
  205HOH     H1  802   1.647   2.827   3.802
  205HOH     H2  803   1.654   2.945   3.897
  206HOH      O  804   1.853   0.757   3.138
  206HOH     H1  805   1.920   0.824   3.123
  206HOH     H2  806   1.829   0.768   3.230
  207HOH      O  807   2.958   3.838   2.677
  207HOH     H1  808   3.030   3.797   2.629
  207HOH     H2  809   2.884   3.837   2.616
  208HOH      O  810   3.706   1.409   1.416
  208HOH     H1  811   3.799   1.421   1.433
  208HOH     H2  812   3.664   1.424   1.500
  209HOH      O  813   2.452   3.773   0.651
  209HOH     H1  814   2.453   3.813   0.738
  209HOH     H2  815   2.422   3.683   0.666
  210HOH      O  816   3.196   0.793   3.335
  210HOH     H1  817   3.119   0.825   3.289
  210HOH     H2  818   3.173   0.800   3.428
  211HOH      O  819   2.029   3.076   1.770
  211HOH     H1  820   2.021   2.987   1.806
  211HOH     H2  821   2.122   3.085   1.748
  212HOH      O  822   3.354   0.379   1.701
  212HOH     H1  823   3.411   0.341   1.768
  212HOH     H2  824   3.266   0.350   1.723
  213HOH      O  825   1.181   1.863   3.831
  213HOH     H1  826   1.266   1.824   3.848
  213HOH     H2  827   1.137   1.863   3.916
  214HOH      O  828   2.189   3.537   0.177
  214HOH     H1  829   2.210   3.599   0.247
  214HOH     H2  830   2.274   3.510   0.142
  215HOH      O  831   0.855   0.980   0.266
  215HOH     H1  832   0.781   0.931   0.301
  215HOH     H2  833   0.930   0.953   0.319
  216HOH      O  834   3.992  -0.025   2.997
  216HOH     H1  835   4.039   0.057   3.012
  216HOH     H2  836   3.971  -0.024   2.903
  217HOH      O  837   1.209   1.776   1.734
  217HOH     H1  838   1.240   1.777   1.644
  217HOH     H2  839   1.183   1.685   1.749
  218HOH      O  840   2.920   2.628   3.736
  218HOH     H1  841   2.918   2.564   3.806
  218HOH     H2  842   2.849   2.689   3.758
  219HOH      O  843   1.879   1.957   1.229
  219HOH     H1  844   1.787   1.972   1.211
  219HOH     H2  845   1.902   2.023   1.294
  220HOH      O  846   3.548   1.082   1.841
  220HOH     H1  847   3.575   1.138   1.914
  220HOH     H2  848   3.493   1.015   1.881
  221HOH      O  849   0.885   3.278   0.154
  221HOH     H1  850   0.922   3.366   0.146
  221HOH     H2  851   0.825   3.270   0.080
  222HOH      O  852   2.127   1.307   0.467
  222HOH     H1  853   2.152   1.300   0.375
  222HOH     H2  854   2.177   1.239   0.512
  223HOH      O  855   2.632   0.735   3.915
  223HOH     H1  856   2.597   0.662   3.966
  223HOH     H2  857   2.559   0.797   3.907
  224HOH      O  858   0.275   1.343   0.128
  224HOH     H1  859   0.253   1.261   0.084
  224HOH     H2  860   0.297   1.317   0.217
  225HOH      O  861   0.068   1.384   0.390
  225HOH     H1  862   0.033   1.295   0.385
  225HOH     H2  863   0.029   1.429   0.315
  226HOH      O  864   2.181   2.803   0.654
  226HOH     H1  865   2.086   2.798   0.652
  226HOH     H2  866   2.204   2.795   0.746
  227HOH      O  867   3.061   2.392   0.728
  227HOH     H1  868   3.120   2.467   0.738
  227HOH     H2  869   2.994   2.405   0.795
  228HOH      O  870   3.704   0.655   0.299
  228HOH     H1  871   3.624   0.603   0.313
  228HOH     H2  872   3.748   0.611   0.226
  229HOH      O  873   1.004   0.197   0.081
  229HOH     H1  874   1.082   0.244   0.109
  229HOH     H2  875   0.950   0.192   0.160
  230HOH      O  876   1.000   0.552   3.680
  230HOH     H1  877   1.052   0.628   3.655
  230HOH     H2  878   0.995   0.499   3.601
  231HOH      O  879   0.506   2.621   3.825
  231HOH     H1  880   0.539   2.549   3.772
  231HOH     H2  881   0.578   2.643   3.884
  232HOH      O  882   0.353   0.118   2.040
  232HOH     H1  883   0.311   0.063   1.974
  232HOH     H2  884   0.283   0.136   2.103
  233HOH      O  885   1.457   0.712   1.853
  233HOH     H1  886   1.475   0.625   1.889
  233HOH     H2  887   1.362   0.714   1.843
  234HOH      O  888   0.849   3.980   0.134
  234HOH     H1  889   0.853   3.924   0.057
  234HOH     H2  890   0.894   4.061   0.108
  235HOH      O  891   2.908   3.144   0.330
  235HOH     H1  892   2.898   3.218   0.391
  235HOH     H2  893   2.980   3.093   0.366
  236HOH      O  894   0.779   3.940   1.379
  236HOH     H1  895   0.718   3.875   1.343
  236HOH     H2  896   0.749   3.955   1.468
  237HOH      O  897   3.376   3.637   3.069
  237HOH     H1  898   3.419   3.599   2.992
  237HOH     H2  899   3.374   3.731   3.051
  238HOH      O  900   0.099   0.532   0.914
  238HOH     H1  901   0.092   0.567   0.825
  238HOH     H2  902   0.014   0.550   0.954
  239HOH      O  903   0.802   3.660   2.916
  239HOH     H1  904   0.761   3.627   2.836
  239HOH     H2  905   0.791   3.755   2.912
  240HOH      O  906   3.425   1.615   0.845
  240HOH     H1  907   3.508   1.596   0.889
  240HOH     H2  908   3.366   1.546   0.875
  241HOH      O  909   0.808   2.471   2.298
  241HOH     H1  910   0.868   2.415   2.250
  241HOH     H2  911   0.783   2.539   2.235
  242HOH      O  912   1.210   1.109   0.253
  242HOH     H1  913   1.262   1.073   0.325
  242HOH     H2  914   1.146   1.166   0.296
  243HOH      O  915   1.379   1.000   0.439
  243HOH     H1  916   1.408   1.091   0.436
  243HOH     H2  917   1.364   0.982   0.531
  244HOH      O  918   3.691   0.780   3.918
  244HOH     H1  919   3.627   0.773   3.847
  244HOH     H2  920   3.776   0.780   3.873
  245HOH      O  921   0.186   2.078   3.402
  245HOH     H1  922   0.117   2.045   3.459
  245HOH     H2  923   0.170   2.173   3.398
  246HOH      O  924   0.526   3.862   2.685
  246HOH     H1  925   0.494   3.907   2.607
  246HOH     H2  926   0.465   3.886   2.754
  247HOH      O  927   2.266   3.998   1.392
  247HOH     H1  928   2.217   3.968   1.469
  247HOH     H2  929   2.357   3.998   1.420
  248HOH      O  930   3.935   2.916   3.179
  248HOH     H1  931   3.885   2.939   3.100
  248HOH     H2  932   3.968   2.828   3.161
  249HOH      O  933   0.933   2.332   2.891
  249HOH     H1  934   0.870   2.385   2.842
  249HOH     H2  935   1.013   2.384   2.892
  250HOH      O  936   2.284   2.588   2.288
  250HOH     H1  937   2.224   2.515   2.274
  250HOH     H2  938   2.345   2.584   2.215
  251HOH      O  939   1.481   3.120   1.877
  251HOH     H1  940   1.479   3.179   1.802
  251HOH     H2  941   1.531   3.044   1.845
  252HOH      O  942   1.429   0.596   1.337
  252HOH     H1  943   1.351   0.555   1.298
  252HOH     H2  944   1.436   0.681   1.293
  253HOH      O  945   2.452   1.038   0.919
  253HOH     H1  946   2.528   1.011   0.867
  253HOH     H2  947   2.488   1.091   0.989
  254HOH      O  948   2.394   3.037   2.085
  254HOH     H1  949   2.384   2.982   2.007
  254HOH     H2  950   2.351   2.988   2.155
  255HOH      O  951   0.158   0.695  -0.005
  255HOH     H1  952   0.239   0.734   0.025
  255HOH     H2  953   0.121   0.652   0.072
  256HOH      O  954   2.226   0.770   3.962
  256HOH     H1  955   2.144   0.740   3.923
  256HOH     H2  956   2.260   0.835   3.900
  257HOH      O  957   0.579   0.941   3.915
  257HOH     H1  958   0.577   0.876   3.845
  257HOH     H2  959   0.671   0.949   3.939
  258HOH      O  960   4.007   0.013   1.635
  258HOH     H1  961   3.983   0.061   1.556
  258HOH     H2  962   4.050   0.078   1.691
  259HOH      O  963   2.612   0.841   0.581
  259HOH     H1  964   2.644   0.905   0.517
  259HOH     H2  965   2.521   0.867   0.597
  260HOH      O  966   0.468   2.606   1.455
  260HOH     H1  967   0.410   2.574   1.385
  260HOH     H2  968   0.500   2.526   1.497
  261HOH      O  969   2.926   1.196   1.715
  261HOH     H1  970   2.990   1.268   1.717
  261HOH     H2  971   2.978   1.118   1.735
  262HOH      O  972   1.559   3.860   0.678
  262HOH     H1  973   1.507   3.860   0.758
  262HOH     H2  974   1.549   3.772   0.642
  263HOH      O  975   0.440   1.079   0.370
  263HOH     H1  976   0.355   1.035   0.364
  263HOH     H2  977   0.469   1.088   0.279
  264HOH      O  978   0.288   1.847   0.748
  264HOH     H1  979   0.218   1.839   0.813
  264HOH     H2  980   0.275   1.934   0.710
  265HOH      O  981   0.854   0.611   0.709
  265HOH     H1  982   0.838   0.671   0.781
  265HOH     H2  983   0.947   0.620   0.690
  266HOH      O  984   3.649   2.621   2.260
  266HOH     H1  985   3.712   2.606   2.330
  266HOH     H2  986   3.563   2.614   2.303
  267HOH      O  987   1.917   2.723   3.899
  267HOH     H1  988   1.966   2.739   3.818
  267HOH     H2  989   1.854   2.795   3.903
  268HOH      O  990   2.110   2.118   1.167
  268HOH     H1  991   2.192   2.077   1.194
  268HOH     H2  992   2.055   2.117   1.246
  269HOH      O  993   1.486   3.873   2.484
  269HOH     H1  994   1.521   3.823   2.411
  269HOH     H2  995   1.461   3.957   2.446
  270HOH      O  996   1.734   0.704   0.211
  270HOH     H1  997   1.763   0.753   0.134
  270HOH     H2  998   1.654   0.748   0.239
  271HOH      O  999   0.893   1.062   1.088
  271HOH     H1 1000   0.852   1.129   1.033
  271HOH     H2 1001   0.846   1.068   1.172
  272HOH      O 1002   3.126   1.600   2.992
  272HOH     H1 1003   3.109   1.555   3.075
  272HOH     H2 1004   3.077   1.682   2.999
  273HOH      O 1005   3.400   0.880   2.423
  273HOH     H1 1006   3.454   0.829   2.484
  273HOH     H2 1007   3.452   0.958   2.404
  274HOH      O 1008   1.827   1.649   1.336
  274HOH     H1 1009   1.867   1.655   1.423
  274HOH     H2 1010   1.756   1.712   1.338
  275HOH      O 1011   2.876   1.678   0.318
  275HOH     H1 1012   2.930   1.715   0.388
  275HOH     H2 1013   2.791   1.663   0.359
  276HOH      O 1014   0.064   2.478   3.715
  276HOH     H1 1015   0.133   2.540   3.687
  276HOH     H2 1016   0.071   2.476   3.810
  277HOH      O 1017   0.248   2.457   1.663
  277HOH     H1 1018   0.248   2.406   1.744
  277HOH     H2 1019   0.238   2.393   1.593
  278HOH      O 1020   0.077   2.203   0.701
  278HOH     H1 1021   0.127   2.284   0.707
  278HOH     H2 1022   0.020   2.204   0.777
  279HOH      O 1023   3.340   0.829   0.946
  279HOH     H1 1024   3.281   0.858   0.877
  279HOH     H2 1025   3.288   0.834   1.026
  280HOH      O 1026   3.431   1.213   0.106
  280HOH     H1 1027   3.503   1.182   0.051
  280HOH     H2 1028   3.452   1.180   0.193
  281HOH      O 1029   3.562   2.318   0.627
  281HOH     H1 1030   3.644   2.367   0.626
  281HOH     H2 1031   3.526   2.332   0.714
  282HOH      O 1032   1.447   0.455   1.952
  282HOH     H1 1033   1.520   0.438   2.011
  282HOH     H2 1034   1.370   0.459   2.010
  283HOH      O 1035   3.930   3.496   2.712
  283HOH     H1 1036   3.841   3.531   2.701
  283HOH     H2 1037   3.925   3.442   2.791
  284HOH      O 1038   0.056   0.388   3.228
  284HOH     H1 1039   0.066   0.482   3.216
  284HOH     H2 1040  -0.034   0.377   3.260
  285HOH      O 1041   2.512   0.968   2.503
  285HOH     H1 1042   2.559   0.911   2.442
  285HOH     H2 1043   2.551   1.054   2.491
  286HOH      O 1044   3.104   2.446   3.577
  286HOH     H1 1045   3.050   2.521   3.604
  286HOH     H2 1046   3.089   2.380   3.643
  287HOH      O 1047   3.256   1.731   2.616
  287HOH     H1 1048   3.281   1.732   2.523
  287HOH     H2 1049   3.335   1.704   2.662
  288HOH      O 1050   3.670   2.065   0.629
  288HOH     H1 1051   3.603   2.133   0.633
  288HOH     H2 1052   3.751   2.114   0.612
  289HOH      O 1053   0.338   2.023   0.207
  289HOH     H1 1054   0.354   2.006   0.114
  289HOH     H2 1055   0.361   1.941   0.250
  290HOH      O 1056   2.368   3.308   3.927
  290HOH     H1 1057   2.342   3.259   4.004
  290HOH     H2 1058   2.443   3.259   3.892
  291HOH      O 1059   2.926   1.797   3.907
  291HOH     H1 1060   3.015   1.768   3.928
  291HOH     H2 1061   2.890   1.727   3.852
  292HOH      O 1062   2.057   1.996   1.621
  292HOH     H1 1063   2.011   1.912   1.626
  292HOH     H2 1064   2.012   2.052   1.685
  293HOH      O 1065   2.182   1.670   2.930
  293HOH     H1 1066   2.230   1.692   2.850
  293HOH     H2 1067   2.244   1.691   3.001
  294HOH      O 1068   3.655   2.045   1.777
  294HOH     H1 1069   3.597   1.992   1.722
  294HOH     H2 1070   3.623   2.031   1.866
  295HOH      O 1071   1.625   2.110   0.454
  295HOH     H1 1072   1.707   2.061   0.443
  295HOH     H2 1073   1.566   2.048   0.496
  296HOH      O 1074   1.758   2.670   0.252
  296HOH     H1 1075   1.825   2.723   0.210
  296HOH     H2 1076   1.722   2.616   0.181
  297HOH      O 1077   2.653   0.918   1.406
  297HOH     H1 1078   2.676   0.981   1.337
  297HOH     H2 1079   2.650   0.834   1.362
  298HOH      O 1080   3.298   3.386   3.246
  298HOH     H1 1081   3.318   3.459   3.187
  298HOH     H2 1082   3.257   3.321   3.189
  299HOH      O 1083   3.774   0.668   3.107
  299HOH     H1 1084   3.699   0.717   3.072
  299HOH     H2 1085   3.738   0.583   3.132
  300HOH      O 1086   1.164   0.531   0.598
  300HOH     H1 1087   1.189   0.602   0.540
  300HOH     H2 1088   1.139   0.460   0.539
  301HOH      O 1089   1.874   0.295   2.241
  301HOH     H1 1090   1.870   0.199   2.244
  301HOH     H2 1091   1.967   0.315   2.250
  302HOH      O 1092   2.099   1.441   2.476
  302HOH     H1 1093   2.149   1.359   2.475
  302HOH     H2 1094   2.151   1.500   2.529
  303HOH      O 1095   3.835   0.298   2.736
  303HOH     H1 1096   3.793   0.225   2.782
  303HOH     H2 1097   3.763   0.341   2.689
  304HOH      O 1098   0.303   2.386   0.760
  304HOH     H1 1099   0.284   2.396   0.666
  304HOH     H2 1100   0.360   2.460   0.780
  305HOH      O 1101   2.575   2.960   1.732
  305HOH     H1 1102   2.604   3.046   1.762
  305HOH     H2 1103   2.589   2.962   1.637
  306HOH      O 1104   1.922   2.765   3.045
  306HOH     H1 1105   1.937   2.719   2.962
  306HOH     H2 1106   1.906   2.696   3.109
  307HOH      O 1107   3.606   3.052   2.363
  307HOH     H1 1108   3.678   3.003   2.402
  307HOH     H2 1109   3.527   3.012   2.401
  308HOH      O 1110   3.175   3.396   0.993
  308HOH     H1 1111   3.258   3.442   0.981
  308HOH     H2 1112   3.128   3.410   0.911
  309HOH      O 1113   2.401   0.095   0.149
  309HOH     H1 1114   2.348   0.087   0.069
  309HOH     H2 1115   2.337   0.108   0.218
  310HOH      O 1116   0.839   1.688   1.827
  310HOH     H1 1117   0.878   1.605   1.855
  310HOH     H2 1118   0.747   1.680   1.851
  311HOH      O 1119   0.475   2.945   2.028
  311HOH     H1 1120   0.513   3.032   2.034
  311HOH     H2 1121   0.398   2.957   1.971
  312HOH      O 1122   3.221   1.169   1.087
  312HOH     H1 1123   3.198   1.262   1.094
  312HOH     H2 1124   3.302   1.168   1.036
  313HOH      O 1125   1.350   0.185   1.243
  313HOH     H1 1126   1.445   0.191   1.250
  313HOH     H2 1127   1.335   0.141   1.159
  314HOH      O 1128   0.366   3.797   4.011
  314HOH     H1 1129   0.308   3.860   4.054
  314HOH     H2 1130   0.396   3.842   3.932
  315HOH      O 1131   1.517   0.862   0.780
  315HOH     H1 1132   1.593   0.892   0.730
  315HOH     H2 1133   1.548   0.857   0.871
  316HOH      O 1134   3.712   1.674   1.762
  316HOH     H1 1135   3.650   1.671   1.690
  316HOH     H2 1136   3.787   1.623   1.731
  317HOH      O 1137   3.297   2.755   2.783
  317HOH     H1 1138   3.247   2.702   2.846
  317HOH     H2 1139   3.342   2.820   2.837
  318HOH      O 1140   0.067   3.299   3.986
  318HOH     H1 1141  -0.000   3.244   3.946
  318HOH     H2 1142   0.087   3.365   3.921
  319HOH      O 1143   2.535   3.690   0.330
  319HOH     H1 1144   2.523   3.749   0.256
  319HOH     H2 1145   2.612   3.724   0.376
  320HOH      O 1146   1.030   3.808   3.054
  320HOH     H1 1147   0.974   3.812   3.132
  320HOH     H2 1148   0.972   3.830   2.982
  321HOH      O 1149   1.526   3.607   0.569
  321HOH     H1 1150   1.562   3.545   0.633
  321HOH     H2 1151   1.585   3.599   0.494
  322HOH      O 1152   1.300   3.328   2.863
  322HOH     H1 1153   1.395   3.326   2.856
  322HOH     H2 1154   1.282   3.396   2.928
  323HOH      O 1155   0.699   1.247   3.728
  323HOH     H1 1156   0.742   1.232   3.813
  323HOH     H2 1157   0.686   1.342   3.725
  324HOH      O 1158   2.454   3.343   0.916
  324HOH     H1 1159   2.543   3.326   0.945
  324HOH     H2 1160   2.399   3.307   0.986
  325HOH      O 1161   2.257   0.608   1.280
  325HOH     H1 1162   2.333   0.604   1.221
  325HOH     H2 1163   2.216   0.522   1.272
  326HOH      O 1164   0.270   0.936   1.536
  326HOH     H1 1165   0.300   0.847   1.518
  326HOH     H2 1166   0.238   0.967   1.451
  327HOH      O 1167   3.945   2.339   1.698
  327HOH     H1 1168   3.991   2.257   1.686
  327HOH     H2 1169   3.926   2.369   1.609
  328HOH      O 1170   1.051   2.198   2.591
  328HOH     H1 1171   1.079   2.112   2.560
  328HOH     H2 1172   1.014   2.182   2.678
  329HOH      O 1173   0.109   0.186   2.214
  329HOH     H1 1174   0.120   0.118   2.281
  329HOH     H2 1175   0.019   0.174   2.183
  330HOH      O 1176   2.837   0.638   2.157
  330HOH     H1 1177   2.772   0.667   2.221
  330HOH     H2 1178   2.896   0.713   2.147
  331HOH      O 1179   2.625   0.782   3.120
  331HOH     H1 1180   2.549   0.749   3.168
  331HOH     H2 1181   2.627   0.875   3.140
  332HOH      O 1182   2.477   1.931   0.691
  332HOH     H1 1183   2.486   1.946   0.597
  332HOH     H2 1184   2.455   1.838   0.698
  333HOH      O 1185   2.214   2.886   2.623
  333HOH     H1 1186   2.276   2.820   2.655
  333HOH     H2 1187   2.132   2.838   2.614
  334HOH      O 1188   2.259   3.679   0.410
  334HOH     H1 1189   2.342   3.710   0.374
  334HOH     H2 1190   2.263   3.700   0.503
  335HOH      O 1191   2.361   2.382   1.156
  335HOH     H1 1192   2.427   2.398   1.224
  335HOH     H2 1193   2.283   2.429   1.187
  336HOH      O 1194   2.817   0.703   0.114
  336HOH     H1 1195   2.783   0.776   0.062
  336HOH     H2 1196   2.910   0.699   0.091
  337HOH      O 1197   1.325   0.036   1.020
  337HOH     H1 1198   1.326  -0.060   1.025
  337HOH     H2 1199   1.399   0.058   0.964
  338HOH      O 1200   1.701   2.553   3.660
  338HOH     H1 1201   1.765   2.487   3.686
  338HOH     H2 1202   1.622   2.504   3.642
  339HOH      O 1203   3.589   1.114   1.272
  339HOH     H1 1204   3.518   1.054   1.251
  339HOH     H2 1205   3.548   1.201   1.270
  340HOH      O 1206   3.081   1.512   0.569
  340HOH     H1 1207   3.070   1.471   0.484
  340HOH     H2 1208   3.091   1.605   0.550
  341HOH      O 1209   2.327   2.945   3.797
  341HOH     H1 1210   2.375   3.028   3.798
  341HOH     H2 1211   2.386   2.884   3.752
  342HOH      O 1212   1.476   0.909   1.355
  342HOH     H1 1213   1.457   0.976   1.289
  342HOH     H2 1214   1.570   0.895   1.348
  343HOH      O 1215   0.894   3.333   0.696
  343HOH     H1 1216   0.867   3.354   0.607
  343HOH     H2 1217   0.833   3.381   0.752
  344HOH      O 1218   1.310   3.457   2.613
  344HOH     H1 1219   1.244   3.493   2.553
  344HOH     H2 1220   1.260   3.416   2.683
  345HOH      O 1221   1.498   1.801   2.451
  345HOH     H1 1222   1.562   1.861   2.489
  345HOH     H2 1223   1.531   1.784   2.363
  346HOH      O 1224   1.270   3.922   3.113
  346HOH     H1 1225   1.313   3.876   3.040
  346HOH     H2 1226   1.178   3.896   3.106
  347HOH      O 1227   1.543   1.034   2.756
  347HOH     H1 1228   1.603   1.005   2.825
  347HOH     H2 1229   1.563   0.977   2.682
  348HOH      O 1230   0.908   3.083   1.165
  348HOH     H1 1231   0.936   2.991   1.168
  348HOH     H2 1232   0.818   3.082   1.197
  349HOH      O 1233   2.784   1.573   0.758
  349HOH     H1 1234   2.734   1.601   0.681
  349HOH     H2 1235   2.809   1.483   0.739
  350HOH      O 1236   0.201   3.870   1.209
  350HOH     H1 1237   0.195   3.964   1.188
  350HOH     H2 1238   0.205   3.827   1.123
  351HOH      O 1239   3.440   3.801   1.469
  351HOH     H1 1240   3.375   3.870   1.483
  351HOH     H2 1241   3.454   3.799   1.375
  352HOH      O 1242   3.066   1.987   0.255
  352HOH     H1 1243   3.068   2.082   0.261
  352HOH     H2 1244   2.975   1.966   0.231
  353HOH      O 1245   2.655   3.518   2.655
  353HOH     H1 1246   2.706   3.514   2.736
  353HOH     H2 1247   2.615   3.431   2.648
  354HOH      O 1248   0.681   1.641  -0.003
  354HOH     H1 1249   0.772   1.614   0.011
  354HOH     H2 1250   0.643   1.640   0.085
  355HOH      O 1251   0.077   2.777   2.838
  355HOH     H1 1252   0.103   2.708   2.776
  355HOH     H2 1253  -0.014   2.755   2.860
  356HOH      O 1254   3.453   2.580   2.632
  356HOH     H1 1255   3.433   2.601   2.541
  356HOH     H2 1256   3.399   2.640   2.683
  357HOH      O 1257   1.830   3.731   1.600
  357HOH     H1 1258   1.800   3.801   1.659
  357HOH     H2 1259   1.820   3.651   1.651
  358HOH      O 1260   2.191   1.154   2.930
  358HOH     H1 1261   2.279   1.188   2.920
  358HOH     H2 1262   2.136   1.231   2.942
  359HOH      O 1263   2.403   0.400   1.750
  359HOH     H1 1264   2.496   0.410   1.768
  359HOH     H2 1265   2.361   0.413   1.835
  360HOH      O 1266   0.215   2.119   1.194
  360HOH     H1 1267   0.309   2.107   1.183
  360HOH     H2 1268   0.206   2.164   1.278
  361HOH      O 1269   1.382   3.678   0.160
  361HOH     H1 1270   1.417   3.723   0.083
  361HOH     H2 1271   1.330   3.744   0.205
  362HOH      O 1272   3.619   1.060   2.349
  362HOH     H1 1273   3.714   1.055   2.356
  362HOH     H2 1274   3.593   0.976   2.313
  363HOH      O 1275   1.502   1.917   3.973
  363HOH     H1 1276   1.469   1.979   4.038
  363HOH     H2 1277   1.534   1.972   3.901
  364HOH      O 1278   3.373   2.003   2.349
  364HOH     H1 1279   3.467   2.008   2.361
  364HOH     H2 1280   3.336   2.049   2.425
  365HOH      O 1281   1.650   3.696   2.936
  365HOH     H1 1282   1.666   3.689   3.030
  365HOH     H2 1283   1.726   3.743   2.902
  366HOH      O 1284   3.848   3.857   1.090
  366HOH     H1 1285   3.869   3.889   1.177
  366HOH     H2 1286   3.758   3.825   1.097
  367HOH      O 1287   1.975   3.171   3.998
  367HOH     H1 1288   2.028   3.101   4.035
  367HOH     H2 1289   2.007   3.182   3.909
  368HOH      O 1290   3.243   3.226   0.210
  368HOH     H1 1291   3.304   3.164   0.172
  368HOH     H2 1292   3.183   3.172   0.262
  369HOH      O 1293   1.431   2.719   3.141
  369HOH     H1 1294   1.478   2.643   3.174
  369HOH     H2 1295   1.342   2.708   3.172
  370HOH      O 1296   2.291   0.457   0.698
  370HOH     H1 1297   2.325   0.450   0.787
  370HOH     H2 1298   2.202   0.422   0.703
  371HOH      O 1299   0.963   1.677   1.548
  371HOH     H1 1300   0.992   1.587   1.533
  371HOH     H2 1301   0.956   1.683   1.644
  372HOH      O 1302   1.106   1.105   0.584
  372HOH     H1 1303   1.082   1.019   0.550
  372HOH     H2 1304   1.189   1.090   0.630
  373HOH      O 1305   0.777   2.599   2.059
  373HOH     H1 1306   0.824   2.569   1.981
  373HOH     H2 1307   0.795   2.693   2.063
  374HOH      O 1308   1.067   1.958   2.081
  374HOH     H1 1309   1.127   1.972   2.154
  374HOH     H2 1310   1.051   1.864   2.082
  375HOH      O 1311   3.407   0.475   2.349
  375HOH     H1 1312   3.397   0.381   2.358
  375HOH     H2 1313   3.463   0.501   2.421
  376HOH      O 1314   2.849   0.434   1.251
  376HOH     H1 1315   2.839   0.439   1.156
  376HOH     H2 1316   2.923   0.491   1.271
  377HOH      O 1317   3.351   0.589   3.249
  377HOH     H1 1318   3.335   0.594   3.155
  377HOH     H2 1319   3.284   0.645   3.288
  378HOH      O 1320   1.872   0.754   3.490
  378HOH     H1 1321   1.961   0.726   3.466
  378HOH     H2 1322   1.852   0.825   3.430
  379HOH      O 1323   0.455   2.097   3.367
  379HOH     H1 1324   0.362   2.076   3.373
  379HOH     H2 1325   0.492   2.067   3.450
  380HOH      O 1326   3.274   2.487   1.833
  380HOH     H1 1327   3.218   2.424   1.879
  380HOH     H2 1328   3.248   2.572   1.869
  381HOH      O 1329   1.503   0.247   2.781
  381HOH     H1 1330   1.514   0.240   2.875
  381HOH     H2 1331   1.575   0.196   2.744
  382HOH      O 1332   1.035   0.153   2.822
  382HOH     H1 1333   1.020   0.067   2.781
  382HOH     H2 1334   1.050   0.212   2.748
  383HOH      O 1335   2.184   0.143   0.588
  383HOH     H1 1336   2.259   0.137   0.529
  383HOH     H2 1337   2.113   0.099   0.541
  384HOH      O 1338   1.101   3.788   0.017
  384HOH     H1 1339   1.163   3.847   0.059
  384HOH     H2 1340   1.045   3.846  -0.035
  385HOH      O 1341   0.513   0.010   3.467
  385HOH     H1 1342   0.518  -0.060   3.401
  385HOH     H2 1343   0.483   0.087   3.418
  386HOH      O 1344   0.348   1.592   1.075
  386HOH     H1 1345   0.271   1.573   1.021
  386HOH     H2 1346   0.380   1.676   1.042
  387HOH      O 1347   2.175   1.544   1.310
  387HOH     H1 1348   2.105   1.494   1.351
  387HOH     H2 1349   2.137   1.631   1.296
  388HOH      O 1350   2.886   1.865   1.065
  388HOH     H1 1351   2.848   1.789   1.110
  388HOH     H2 1352   2.869   1.849   0.972
  389HOH      O 1353   1.379   3.906   1.554
  389HOH     H1 1354   1.413   3.989   1.588
  389HOH     H2 1355   1.438   3.883   1.483
  390HOH      O 1356   3.770   1.670   3.120
  390HOH     H1 1357   3.822   1.595   3.090
  390HOH     H2 1358   3.785   1.737   3.054
  391HOH      O 1359   0.851   2.382   0.653
  391HOH     H1 1360   0.834   2.293   0.682
  391HOH     H2 1361   0.881   2.428   0.732
  392HOH      O 1362   1.966   2.774   0.984
  392HOH     H1 1363   1.886   2.746   0.939
  392HOH     H2 1364   1.981   2.706   1.049
  393HOH      O 1365   1.896   1.641   3.138
  393HOH     H1 1366   1.864   1.647   3.048
  393HOH     H2 1367   1.973   1.697   3.140
  394HOH      O 1368   1.964   3.647   0.661
  394HOH     H1 1369   2.020   3.712   0.618
  394HOH     H2 1370   2.003   3.563   0.638
  395HOH      O 1371   1.364   1.634   1.147
  395HOH     H1 1372   1.460   1.629   1.139
  395HOH     H2 1373   1.338   1.545   1.172
  396HOH      O 1374   0.559   3.232   2.014
  396HOH     H1 1375   0.598   3.310   2.053
  396HOH     H2 1376   0.487   3.266   1.961
  397HOH      O 1377   0.348   1.739   2.021
  397HOH     H1 1378   0.345   1.702   2.109
  397HOH     H2 1379   0.423   1.798   2.023
  398HOH      O 1380   1.648   0.338   1.637
  398HOH     H1 1381   1.683   0.375   1.556
  398HOH     H2 1382   1.683   0.394   1.706
  399HOH      O 1383   3.985   2.306   1.132
  399HOH     H1 1384   4.064   2.257   1.155
  399HOH     H2 1385   3.973   2.290   1.038
  400HOH      O 1386   0.617   0.497   2.537
  400HOH     H1 1387   0.641   0.537   2.454
  400HOH     H2 1388   0.536   0.449   2.519
  401HOH      O 1389   0.340   1.329   1.447
  401HOH     H1 1390   0.247   1.317   1.427
  401HOH     H2 1391   0.380   1.347   1.362
  402HOH      O 1392   3.683   1.437   0.345
  402HOH     H1 1393   3.740   1.450   0.270
  402HOH     H2 1394   3.597   1.422   0.308
  403HOH      O 1395   0.056   1.978   2.838
  403HOH     H1 1396   0.088   1.893   2.869
  403HOH     H2 1397  -0.038   1.976   2.854
  404HOH      O 1398   3.258   1.472   0.092
  404HOH     H1 1399   3.328   1.408   0.102
  404HOH     H2 1400   3.213   1.472   0.176
  405HOH      O 1401   1.053   0.483   3.947
  405HOH     H1 1402   1.023   0.518   3.863
  405HOH     H2 1403   1.000   0.405   3.960
  406HOH      O 1404   0.779   1.983   1.760
  406HOH     H1 1405   0.840   2.035   1.708
  406HOH     H2 1406   0.830   1.908   1.788
  407HOH      O 1407   2.519   1.748   3.969
  407HOH     H1 1408   2.540   1.689   4.042
  407HOH     H2 1409   2.588   1.732   3.905
  408HOH      O 1410   0.513   1.087   0.624
  408HOH     H1 1411   0.559   1.170   0.634
  408HOH     H2 1412   0.484   1.085   0.533
  409HOH      O 1413   3.274   2.984   3.818
  409HOH     H1 1414   3.205   3.020   3.873
  409HOH     H2 1415   3.307   2.908   3.867
  410HOH      O 1416   1.571   3.733   1.961
  410HOH     H1 1417   1.604   3.811   1.916
  410HOH     H2 1418   1.529   3.767   2.040
  411HOH      O 1419   3.604   3.435   0.988
  411HOH     H1 1420   3.614   3.363   1.051
  411HOH     H2 1421   3.658   3.505   1.023
  412HOH      O 1422   2.775   0.269   3.571
  412HOH     H1 1423   2.721   0.341   3.539
  412HOH     H2 1424   2.840   0.311   3.627
  413HOH      O 1425   2.519   1.282   0.251
  413HOH     H1 1426   2.587   1.262   0.316
  413HOH     H2 1427   2.526   1.211   0.187
  414HOH      O 1428   3.266   2.435   4.008
  414HOH     H1 1429   3.304   2.445   3.920
  414HOH     H2 1430   3.190   2.378   3.995
  415HOH      O 1431   0.159   1.439   2.186
  415HOH     H1 1432   0.120   1.480   2.109
  415HOH     H2 1433   0.140   1.500   2.257
  416HOH      O 1434   0.738   0.719   0.925
  416HOH     H1 1435   0.726   0.809   0.895
  416HOH     H2 1436   0.674   0.669   0.874
  417HOH      O 1437   3.102   2.935   2.277
  417HOH     H1 1438   3.048   2.965   2.203
  417HOH     H2 1439   3.148   2.859   2.242
  418HOH      O 1440   2.915   2.402   0.507
  418HOH     H1 1441   2.856   2.334   0.541
  418HOH     H2 1442   2.991   2.398   0.565
  419HOH      O 1443   1.882   0.808   2.761
  419HOH     H1 1444   1.894   0.876   2.828
  419HOH     H2 1445   1.833   0.852   2.692
  420HOH      O 1446   1.104   0.823   1.352
  420HOH     H1 1447   1.044   0.871   1.408
  420HOH     H2 1448   1.048   0.778   1.289
  421HOH      O 1449   3.492   2.045   0.350
  421HOH     H1 1450   3.436   1.995   0.290
  421HOH     H2 1451   3.452   2.132   0.353
  422HOH      O 1452   0.736   1.920   3.637
  422HOH     H1 1453   0.723   1.909   3.731
  422HOH     H2 1454   0.657   1.966   3.607
  423HOH      O 1455   1.590   0.193   3.112
  423HOH     H1 1456   1.632   0.114   3.144
  423HOH     H2 1457   1.634   0.264   3.158
  424HOH      O 1458   3.755   1.987   3.711
  424HOH     H1 1459   3.734   1.894   3.703
  424HOH     H2 1460   3.672   2.032   3.696
  425HOH      O 1461   0.285   2.342   1.923
  425HOH     H1 1462   0.291   2.250   1.950
  425HOH     H2 1463   0.370   2.361   1.885
  426HOH      O 1464   0.879   2.165   1.510
  426HOH     H1 1465   0.847   2.242   1.462
  426HOH     H2 1466   0.920   2.200   1.588
  427HOH      O 1467   3.113   0.026   2.185
  427HOH     H1 1468   3.042   0.089   2.169
  427HOH     H2 1469   3.119   0.020   2.280
  428HOH      O 1470   1.901   0.393   3.949
  428HOH     H1 1471   1.911   0.300   3.932
  428HOH     H2 1472   1.944   0.406   4.034
  429HOH      O 1473   0.212   2.095   3.125
  429HOH     H1 1474   0.198   2.066   3.214
  429HOH     H2 1475   0.125   2.118   3.092
  430HOH      O 1476   2.797   1.851   0.114
  430HOH     H1 1477   2.861   1.842   0.044
  430HOH     H2 1478   2.821   1.784   0.178
  431HOH      O 1479   0.445   0.834   1.839
  431HOH     H1 1480   0.351   0.820   1.834
  431HOH     H2 1481   0.465   0.890   1.764
  432HOH      O 1482   3.791   2.437   0.352
  432HOH     H1 1483   3.840   2.506   0.307
  432HOH     H2 1484   3.704   2.475   0.366
  433HOH      O 1485   3.466   3.091   0.918
  433HOH     H1 1486   3.541   3.101   0.858
  433HOH     H2 1487   3.438   3.000   0.906
  434HOH      O 1488   1.924   1.392   2.707
  434HOH     H1 1489   1.978   1.428   2.636
  434HOH     H2 1490   1.862   1.462   2.727
  435HOH      O 1491   0.697   0.765   1.638
  435HOH     H1 1492   0.638   0.824   1.591
  435HOH     H2 1493   0.647   0.738   1.715
  436HOH      O 1494   3.589   0.662   1.688
  436HOH     H1 1495   3.510   0.692   1.642
  436HOH     H2 1496   3.622   0.590   1.635
  437HOH      O 1497   3.588   1.958   2.734
  437HOH     H1 1498   3.586   1.994   2.646
  437HOH     H2 1499   3.517   2.003   2.780
  438HOH      O 1500   0.428   3.535   3.990
  438HOH     H1 1501   0.516   3.505   4.013
  438HOH     H2 1502   0.437   3.630   3.984
  439HOH      O 1503   3.721   2.714   3.121
  439HOH     H1 1504   3.675   2.665   3.053
  439HOH     H2 1505   3.652   2.761   3.167
  440HOH      O 1506   2.777   0.160   2.560
  440HOH     H1 1507   2.796   0.222   2.491
  440HOH     H2 1508   2.698   0.115   2.531
  441HOH      O 1509   3.080   3.242   2.160
  441HOH     H1 1510   3.063   3.299   2.086
  441HOH     H2 1511   3.029   3.163   2.142
  442HOH      O 1512   3.311   1.907   0.222
  442HOH     H1 1513   3.218   1.929   0.234
  442HOH     H2 1514   3.318   1.885   0.129
  443HOH      O 1515   3.340   2.724   0.450
  443HOH     H1 1516   3.271   2.731   0.383
  443HOH     H2 1517   3.319   2.792   0.513
  444HOH      O 1518   2.805   3.037   0.778
  444HOH     H1 1519   2.835   3.124   0.804
  444HOH     H2 1520   2.884   2.994   0.744
  445HOH      O 1521   3.279   2.901   0.663
  445HOH     H1 1522   3.185   2.888   0.650
  445HOH     H2 1523   3.296   2.863   0.749
  446HOH      O 1524   1.218   3.990   3.367
  446HOH     H1 1525   1.252   3.982   3.278
  446HOH     H2 1526   1.272   4.057   3.408
  447HOH      O 1527   0.595   3.165   2.717
  447HOH     H1 1528   0.654   3.116   2.660
  447HOH     H2 1529   0.530   3.203   2.658
  448HOH      O 1530   3.268   1.849   0.931
  448HOH     H1 1531   3.347   1.863   0.878
  448HOH     H2 1532   3.204   1.910   0.896
  449HOH      O 1533   1.825   3.751   3.482
  449HOH     H1 1534   1.905   3.719   3.522
  449HOH     H2 1535   1.795   3.821   3.540
  450HOH      O 1536   0.544   2.259   1.844
  450HOH     H1 1537   0.620   2.274   1.900
  450HOH     H2 1538   0.549   2.327   1.777
  451HOH      O 1539   2.498   2.788   0.171
  451HOH     H1 1540   2.560   2.839   0.223
  451HOH     H2 1541   2.473   2.716   0.228
  452HOH      O 1542   3.502   0.663   0.806
  452HOH     H1 1543   3.455   0.715   0.872
  452HOH     H2 1544   3.522   0.581   0.851
  453HOH      O 1545   0.336   3.494   0.986
  453HOH     H1 1546   0.406   3.558   0.975
  453HOH     H2 1547   0.336   3.474   1.080
  454HOH      O 1548   3.307   1.184   2.794
  454HOH     H1 1549   3.257   1.265   2.803
  454HOH     H2 1550   3.281   1.149   2.709
  455HOH      O 1551   1.180   2.196   0.422
  455HOH     H1 1552   1.220   2.255   0.357
  455HOH     H2 1553   1.090   2.225   0.428
  456HOH      O 1554   3.113   0.692   1.142
  456HOH     H1 1555   3.158   0.623   1.093
  456HOH     H2 1556   3.089   0.652   1.225
  457HOH      O 1557   0.983   3.402   1.002
  457HOH     H1 1558   0.995   3.361   1.088
  457HOH     H2 1559   1.057   3.461   0.992
  458HOH      O 1560   3.921   3.826   3.570
  458HOH     H1 1561   3.997   3.883   3.577
  458HOH     H2 1562   3.869   3.845   3.648
  459HOH      O 1563   0.899   0.219   0.323
  459HOH     H1 1564   0.804   0.226   0.315
  459HOH     H2 1565   0.919   0.257   0.409
  460HOH      O 1566   3.905   0.574   3.702
  460HOH     H1 1567   3.924   0.652   3.755
  460HOH     H2 1568   3.907   0.502   3.766
  461HOH      O 1569   3.573   3.034   2.082
  461HOH     H1 1570   3.585   3.044   2.176
  461HOH     H2 1571   3.498   2.974   2.075
  462HOH      O 1572   0.584   1.354   1.834
  462HOH     H1 1573   0.592   1.435   1.886
  462HOH     H2 1574   0.662   1.304   1.857
  463HOH      O 1575   3.866   2.625   2.435
  463HOH     H1 1576   3.961   2.622   2.434
  463HOH     H2 1577   3.844   2.718   2.436
  464HOH      O 1578   2.745   2.284   0.283
  464HOH     H1 1579   2.703   2.265   0.199
  464HOH     H2 1580   2.839   2.288   0.263
  465HOH      O 1581   2.082   1.802   2.510
  465HOH     H1 1582   2.004   1.775   2.461
  465HOH     H2 1583   2.051   1.870   2.570
  466HOH      O 1584   2.455   2.453   0.593
  466HOH     H1 1585   2.425   2.430   0.681
  466HOH     H2 1586   2.399   2.525   0.566
  467HOH      O 1587   3.264   1.628   3.754
  467HOH     H1 1588   3.323   1.701   3.732
  467HOH     H2 1589   3.319   1.550   3.746
  468HOH      O 1590   1.073   3.086   0.082
  468HOH     H1 1591   1.007   3.145   0.118
  468HOH     H2 1592   1.141   3.144   0.047
  469HOH      O 1593   1.751   3.371   2.225
  469HOH     H1 1594   1.758   3.276   2.225
  469HOH     H2 1595   1.827   3.402   2.274
  470HOH      O 1596   0.149   0.922   2.988
  470HOH     H1 1597   0.063   0.931   3.029
  470HOH     H2 1598   0.189   0.846   3.032
  471HOH      O 1599   3.450   0.567   3.557
  471HOH     H1 1600   3.446   0.619   3.477
  471HOH     H2 1601   3.510   0.495   3.535
  472HOH      O 1602   2.395   3.519   0.725
  472HOH     H1 1603   2.320   3.549   0.776
  472HOH     H2 1604   2.434   3.450   0.779
  473HOH      O 1605   0.937   1.008   1.889
  473HOH     H1 1606   0.947   0.945   1.961
  473HOH     H2 1607   1.016   0.996   1.836
  474HOH      O 1608   3.238   3.209   0.777
  474HOH     H1 1609   3.317   3.203   0.831
  474HOH     H2 1610   3.214   3.302   0.781
  475HOH      O 1611   3.398   0.952   0.645
  475HOH     H1 1612   3.407   0.877   0.587
  475HOH     H2 1613   3.465   0.937   0.713
  476HOH      O 1614   0.263   2.253   2.613
  476HOH     H1 1615   0.200   2.218   2.551
  476HOH     H2 1616   0.253   2.198   2.691
  477HOH      O 1617   3.109   2.822   3.534
  477HOH     H1 1618   3.194   2.829   3.577
  477HOH     H2 1619   3.055   2.774   3.597
  478HOH      O 1620   2.211   1.149   2.370
  478HOH     H1 1621   2.307   1.147   2.372
  478HOH     H2 1622   2.184   1.099   2.446
  479HOH      O 1623   1.320   1.291   3.441
  479HOH     H1 1624   1.353   1.265   3.355
  479HOH     H2 1625   1.227   1.311   3.426
  480HOH      O 1626   2.357   2.428   0.864
  480HOH     H1 1627   2.374   2.389   0.950
  480HOH     H2 1628   2.326   2.516   0.884
  481HOH      O 1629   2.208   3.720   0.853
  481HOH     H1 1630   2.192   3.788   0.918
  481HOH     H2 1631   2.174   3.756   0.771
  482HOH      O 1632   3.930   3.400   2.971
  482HOH     H1 1633   3.941   3.306   2.958
  482HOH     H2 1634   3.888   3.407   3.057
  483HOH      O 1635   0.812   2.320   3.744
  483HOH     H1 1636   0.831   2.251   3.680
  483HOH     H2 1637   0.748   2.280   3.803
  484HOH      O 1638   1.663   0.432   2.114
  484HOH     H1 1639   1.602   0.454   2.185
  484HOH     H2 1640   1.716   0.361   2.150
  485HOH      O 1641   2.587   2.567   0.308
  485HOH     H1 1642   2.533   2.544   0.383
  485HOH     H2 1643   2.636   2.487   0.288
  486HOH      O 1644   3.927   0.940   3.070
  486HOH     H1 1645   3.880   0.942   2.987
  486HOH     H2 1646   3.865   0.902   3.132
  487HOH      O 1647   3.912   2.819   3.993
  487HOH     H1 1648   3.991   2.836   4.043
  487HOH     H2 1649   3.855   2.893   4.012
  488HOH      O 1650   3.331   3.655   1.991
  488HOH     H1 1651   3.356   3.571   1.953
  488HOH     H2 1652   3.308   3.709   1.916
  489HOH      O 1653   2.065   2.275   1.755
  489HOH     H1 1654   2.118   2.250   1.830
  489HOH     H2 1655   1.977   2.244   1.775
  490HOH      O 1656   3.343   0.239   1.183
  490HOH     H1 1657   3.394   0.319   1.171
  490HOH     H2 1658   3.375   0.180   1.115
  491HOH      O 1659   1.887   1.129   2.749
  491HOH     H1 1660   1.828   1.113   2.823
  491HOH     H2 1661   1.890   1.225   2.741
  492HOH      O 1662   1.049   3.881   1.012
  492HOH     H1 1663   1.064   3.902   1.104
  492HOH     H2 1664   0.968   3.927   0.990
  493HOH      O 1665   1.290   2.715   1.542
  493HOH     H1 1666   1.297   2.637   1.486
  493HOH     H2 1667   1.204   2.751   1.523
  494HOH      O 1668   0.317   0.839   0.901
  494HOH     H1 1669   0.398   0.857   0.949
  494HOH     H2 1670   0.255   0.809   0.968
  495HOH      O 1671   3.080   3.288   3.499
  495HOH     H1 1672   3.127   3.309   3.580
  495HOH     H2 1673   3.063   3.194   3.505
  496HOH      O 1674   1.838   2.032   3.855
  496HOH     H1 1675   1.774   2.000   3.791
  496HOH     H2 1676   1.914   2.056   3.803
  497HOH      O 1677   0.594   3.472   0.292
  497HOH     H1 1678   0.583   3.379   0.272
  497HOH     H2 1679   0.642   3.473   0.375
  498HOH      O 1680   0.193   2.886   3.366
  498HOH     H1 1681   0.280   2.919   3.389
  498HOH     H2 1682   0.157   2.953   3.307
  499HOH      O 1683   3.800   1.852   0.457
  499HOH     H1 1684   3.745   1.883   0.528
  499HOH     H2 1685   3.877   1.816   0.500
  500HOH      O 1686   3.716   2.171   0.271
  500HOH     H1 1687   3.633   2.134   0.302
  500HOH     H2 1688   3.732   2.246   0.329
  501HOH      O 1689   1.066   0.194   1.034
  501HOH     H1 1690   1.143   0.139   1.049
  501HOH     H2 1691   1.073   0.263   1.100
  502HOH      O 1692   2.843   1.589   2.076
  502HOH     H1 1693   2.870   1.590   2.168
  502HOH     H2 1694   2.757   1.632   2.077
  503HOH      O 1695   0.435   2.252   0.336
  503HOH     H1 1696   0.525   2.234   0.360
  503HOH     H2 1697   0.414   2.187   0.269
  504HOH      O 1698   0.331   0.044   3.046
  504HOH     H1 1699   0.325  -0.013   2.969
  504HOH     H2 1700   0.241   0.051   3.077
  505HOH      O 1701   0.171   2.962   1.121
  505HOH     H1 1702   0.200   3.047   1.089
  505HOH     H2 1703   0.252   2.916   1.143
  506HOH      O 1704   1.575   0.441   3.603
  506HOH     H1 1705   1.590   0.535   3.612
  506HOH     H2 1706   1.522   0.432   3.524
  507HOH      O 1707   2.089   2.526   1.678
  507HOH     H1 1708   2.006   2.564   1.707
  507HOH     H2 1709   2.083   2.433   1.702
  508HOH      O 1710   2.516   3.404   3.402
  508HOH     H1 1711   2.588   3.359   3.447
  508HOH     H2 1712   2.457   3.333   3.375
  509HOH      O 1713   1.742   2.154   2.306
  509HOH     H1 1714   1.810   2.221   2.304
  509HOH     H2 1715   1.667   2.194   2.262
  510HOH      O 1716   3.177   0.003   0.590
  510HOH     H1 1717   3.140  -0.073   0.545
  510HOH     H2 1718   3.126   0.077   0.557
  511HOH      O 1719   3.242   2.004   0.540
  511HOH     H1 1720   3.325   1.987   0.585
  511HOH     H2 1721   3.266   2.054   0.462
  512HOH      O 1722   2.037   1.005   0.177
  512HOH     H1 1723   1.983   1.018   0.255
  512HOH     H2 1724   2.094   0.932   0.199
  513HOH      O 1725   3.756   3.437   1.312
  513HOH     H1 1726   3.793   3.354   1.280
  513HOH     H2 1727   3.764   3.497   1.238
  514HOH      O 1728   2.206   3.526   3.209
  514HOH     H1 1729   2.200   3.510   3.303
  514HOH     H2 1730   2.194   3.620   3.200
  515HOH      O 1731   3.732   2.960   1.282
  515HOH     H1 1732   3.788   2.950   1.205
  515HOH     H2 1733   3.789   2.997   1.348
  516HOH      O 1734   2.126   0.055   1.889
  516HOH     H1 1735   2.192   0.085   1.951
  516HOH     H2 1736   2.079   0.134   1.864
  517HOH      O 1737   3.146   2.672   1.999
  517HOH     H1 1738   3.059   2.668   2.039
  517HOH     H2 1739   3.204   2.633   2.064
  518HOH      O 1740   2.450   3.061   1.184
  518HOH     H1 1741   2.373   3.104   1.222
  518HOH     H2 1742   2.510   3.132   1.163
  519HOH      O 1743   0.182   0.958   0.288
  519HOH     H1 1744   0.214   0.961   0.198
  519HOH     H2 1745   0.114   0.891   0.287
  520HOH      O 1746   0.487   1.615   2.866
  520HOH     H1 1747   0.485   1.627   2.961
  520HOH     H2 1748   0.428   1.541   2.850
  521HOH      O 1749   3.150   0.053   1.711
  521HOH     H1 1750   3.109   0.022   1.791
  521HOH     H2 1751   3.214   0.118   1.741
  522HOH      O 1752   3.465   3.528   1.249
  522HOH     H1 1753   3.425   3.441   1.244
  522HOH     H2 1754   3.540   3.517   1.307
  523HOH      O 1755   3.150   1.437   3.532
  523HOH     H1 1756   3.086   1.501   3.501
  523HOH     H2 1757   3.233   1.466   3.494
  524HOH      O 1758   0.649   1.565   1.999
  524HOH     H1 1759   0.623   1.657   2.009
  524HOH     H2 1760   0.603   1.520   2.070
  525HOH      O 1761   2.922   3.023   2.043
  525HOH     H1 1762   2.837   3.067   2.035
  525HOH     H2 1763   2.934   2.979   1.958
  526HOH      O 1764   2.626   0.031   1.197
  526HOH     H1 1765   2.627   0.096   1.127
  526HOH     H2 1766   2.599  -0.050   1.154
  527HOH      O 1767   1.138   1.652   3.631
  527HOH     H1 1768   1.061   1.671   3.577
  527HOH     H2 1769   1.139   1.724   3.695
  528HOH      O 1770   3.502   1.377   1.625
  528HOH     H1 1771   3.421   1.425   1.614
  528HOH     H2 1772   3.526   1.391   1.717
  529HOH      O 1773   2.354   3.384   1.988
  529HOH     H1 1774   2.402   3.416   2.065
  529HOH     H2 1775   2.279   3.337   2.025
  530HOH      O 1776   2.401   1.539   3.429
  530HOH     H1 1777   2.419   1.618   3.480
  530HOH     H2 1778   2.414   1.468   3.491
  531HOH      O 1779   2.662   0.521   1.788
  531HOH     H1 1780   2.601   0.593   1.800
  531HOH     H2 1781   2.716   0.546   1.714
  532HOH      O 1782   3.385   3.926   1.212
  532HOH     H1 1783   3.465   3.897   1.167
  532HOH     H2 1784   3.363   4.010   1.171
  533HOH      O 1785   2.602   2.649   1.148
  533HOH     H1 1786   2.511   2.669   1.129
  533HOH     H2 1787   2.601   2.616   1.238
  534HOH      O 1788   2.793   0.520   0.318
  534HOH     H1 1789   2.772   0.545   0.407
  534HOH     H2 1790   2.802   0.602   0.270
  535HOH      O 1791   0.897   0.601   2.538
  535HOH     H1 1792   0.802   0.593   2.532
  535HOH     H2 1793   0.930   0.552   2.462
  536HOH      O 1794   0.645   0.254   1.800
  536HOH     H1 1795   0.613   0.286   1.716
  536HOH     H2 1796   0.740   0.247   1.788
  537HOH      O 1797   3.870   0.221   3.392
  537HOH     H1 1798   3.801   0.276   3.356
  537HOH     H2 1799   3.874   0.146   3.332
  538HOH      O 1800   1.562   3.476   2.833
  538HOH     H1 1801   1.607   3.554   2.867
  538HOH     H2 1802   1.559   3.490   2.739
  539HOH      O 1803   1.126   2.453   2.595
  539HOH     H1 1804   1.094   2.363   2.588
  539HOH     H2 1805   1.147   2.464   2.687
  540HOH      O 1806   2.833   3.286   0.077
  540HOH     H1 1807   2.880   3.282   0.160
  540HOH     H2 1808   2.760   3.345   0.094
  541HOH      O 1809   3.181   1.082   0.507
  541HOH     H1 1810   3.258   1.047   0.551
  541HOH     H2 1811   3.215   1.152   0.451
  542HOH      O 1812   1.983   2.701   2.299
  542HOH     H1 1813   1.982   2.612   2.265
  542HOH     H2 1814   1.893   2.732   2.287
  543HOH      O 1815   3.726   0.269   1.025
  543HOH     H1 1816   3.722   0.178   0.999
  543HOH     H2 1817   3.700   0.269   1.117
  544HOH      O 1818   1.807   0.620   1.579
  544HOH     H1 1819   1.739   0.685   1.560
  544HOH     H2 1820   1.838   0.643   1.667
  545HOH      O 1821   1.934   2.715   0.638
  545HOH     H1 1822   1.955   2.638   0.691
  545HOH     H2 1823   1.843   2.734   0.659
  546HOH      O 1824   2.686   3.941   1.694
  546HOH     H1 1825   2.637   3.882   1.637
  546HOH     H2 1826   2.626   4.013   1.712
  547HOH      O 1827   1.140   3.747   3.519
  547HOH     H1 1828   1.146   3.832   3.476
  547HOH     H2 1829   1.107   3.688   3.452
  548HOH      O 1830   3.354   1.544   3.389
  548HOH     H1 1831   3.348   1.639   3.398
  548HOH     H2 1832   3.413   1.531   3.315
  549HOH      O 1833   0.743   1.096   1.353
  549HOH     H1 1834   0.650   1.101   1.332
  549HOH     H2 1835   0.756   1.166   1.418
  550HOH      O 1836   0.881   1.213   1.618
  550HOH     H1 1837   0.902   1.120   1.625
  550HOH     H2 1838   0.850   1.237   1.706
  551HOH      O 1839   1.962   2.732   1.405
  551HOH     H1 1840   1.880   2.718   1.451
  551HOH     H2 1841   2.025   2.752   1.474
  552HOH      O 1842   0.916   3.642   1.957
  552HOH     H1 1843   0.953   3.717   2.005
  552HOH     H2 1844   0.992   3.592   1.928
  553HOH      O 1845   0.381   1.038   3.155
  553HOH     H1 1846   0.324   0.971   3.193
  553HOH     H2 1847   0.433   0.991   3.091
  554HOH      O 1848   0.592   3.583   3.092
  554HOH     H1 1849   0.620   3.511   3.149
  554HOH     H2 1850   0.658   3.586   3.023
  555HOH      O 1851   1.315   0.512   3.748
  555HOH     H1 1852   1.225   0.520   3.778
  555HOH     H2 1853   1.321   0.571   3.672
  556HOH      O 1854   0.479   1.469   1.260
  556HOH     H1 1855   0.564   1.496   1.226
  556HOH     H2 1856   0.415   1.510   1.202
  557HOH      O 1857   3.823   4.050   3.206
  557HOH     H1 1858   3.807   3.964   3.245
  557HOH     H2 1859   3.870   4.031   3.124
  558HOH      O 1860   3.284   0.240   2.351
  558HOH     H1 1861   3.235   0.323   2.346
  558HOH     H2 1862   3.219   0.176   2.378
  559HOH      O 1863   0.943   2.855   2.370
  559HOH     H1 1864   0.927   2.852   2.275
  559HOH     H2 1865   1.039   2.857   2.377
  560HOH      O 1866   1.294   1.313   2.051
  560HOH     H1 1867   1.341   1.313   2.135
  560HOH     H2 1868   1.357   1.350   1.989
  561HOH      O 1869   3.925   1.450   3.035
  561HOH     H1 1870   3.877   1.368   3.022
  561HOH     H2 1871   3.953   1.475   2.947
  562HOH      O 1872   1.003   3.397   2.363
  562HOH     H1 1873   0.942   3.470   2.360
  562HOH     H2 1874   0.948   3.319   2.357
  563HOH      O 1875   1.506   3.598   1.555
  563HOH     H1 1876   1.576   3.562   1.500
  563HOH     H2 1877   1.534   3.688   1.573
  564HOH      O 1878   3.431   3.890   2.480
  564HOH     H1 1879   3.349   3.869   2.436
  564HOH     H2 1880   3.466   3.805   2.508
  565HOH      O 1881   2.851   3.692   2.885
  565HOH     H1 1882   2.888   3.607   2.861
  565HOH     H2 1883   2.874   3.749   2.812
  566HOH      O 1884   1.065   3.410   2.737
  566HOH     H1 1885   1.107   3.341   2.787
  566HOH     H2 1886   0.972   3.386   2.736
  567HOH      O 1887   0.635   0.119   0.507
  567HOH     H1 1888   0.672   0.058   0.444
  567HOH     H2 1889   0.626   0.202   0.459
  568HOH      O 1890   1.863   1.968   0.427
  568HOH     H1 1891   1.939   1.998   0.377
  568HOH     H2 1892   1.889   1.977   0.519
  569HOH      O 1893   1.950   3.860   3.936
  569HOH     H1 1894   1.969   3.787   3.994
  569HOH     H2 1895   1.976   3.829   3.849
  570HOH      O 1896   3.932   1.247   3.955
  570HOH     H1 1897   3.950   1.323   3.900
  570HOH     H2 1898   3.925   1.174   3.893
  571HOH      O 1899   3.384   3.906   1.862
  571HOH     H1 1900   3.471   3.940   1.841
  571HOH     H2 1901   3.339   3.903   1.777
  572HOH      O 1902   0.273   2.625   3.629
  572HOH     H1 1903   0.286   2.607   3.536
  572HOH     H2 1904   0.356   2.602   3.671
  573HOH      O 1905   1.860   0.808   0.449
  573HOH     H1 1906   1.874   0.900   0.427
  573HOH     H2 1907   1.839   0.766   0.366
  574HOH      O 1908   0.295   2.426   3.901
  574HOH     H1 1909   0.229   2.364   3.932
  574HOH     H2 1910   0.264   2.512   3.932
  575HOH      O 1911   3.829   3.104   0.251
  575HOH     H1 1912   3.803   3.170   0.187
  575HOH     H2 1913   3.747   3.061   0.276
  576HOH      O 1914   1.895   1.066   0.397
  576HOH     H1 1915   1.908   1.106   0.483
  576HOH     H2 1916   1.909   1.138   0.335
  577HOH      O 1917   2.218   0.987   3.268
  577HOH     H1 1918   2.291   1.047   3.252
  577HOH     H2 1919   2.218   0.976   3.364
  578HOH      O 1920   1.286   3.377   1.427
  578HOH     H1 1921   1.242   3.447   1.476
  578HOH     H2 1922   1.347   3.338   1.489
  579HOH      O 1923   4.033   3.530   1.523
  579HOH     H1 1924   3.954   3.499   1.568
  579HOH     H2 1925   4.093   3.552   1.594
  580HOH      O 1926   1.771   1.718   3.352
  580HOH     H1 1927   1.807   1.702   3.265
  580HOH     H2 1928   1.709   1.646   3.365
  581HOH      O 1929   0.439   4.014   1.805
  581HOH     H1 1930   0.507   3.976   1.749
  581HOH     H2 1931   0.487   4.048   1.881
  582HOH      O 1932   3.256   0.023   3.339
  582HOH     H1 1933   3.186  -0.042   3.329
  582HOH     H2 1934   3.230   0.095   3.281
  583HOH      O 1935   0.049   3.956   0.666
  583HOH     H1 1936   0.033   3.876   0.715
  583HOH     H2 1937   0.140   3.979   0.685
  584HOH      O 1938   3.982   1.513   1.247
  584HOH     H1 1939   3.912   1.571   1.276
  584HOH     H2 1940   4.059   1.542   1.296
  585HOH      O 1941   1.488   0.811   2.105
  585HOH     H1 1942   1.410   0.788   2.155
  585HOH     H2 1943   1.464   0.797   2.014
  586HOH      O 1944   0.706   3.487   2.193
  586HOH     H1 1945   0.764   3.545   2.143
  586HOH     H2 1946   0.707   3.522   2.282
  587HOH      O 1947   3.271   1.184   2.024
  587HOH     H1 1948   3.280   1.223   2.111
  587HOH     H2 1949   3.306   1.096   2.033
  588HOH      O 1950   3.925   0.957   1.775
  588HOH     H1 1951   3.887   0.941   1.861
  588HOH     H2 1952   4.015   0.986   1.794
  589HOH      O 1953   3.732   0.793   2.563
  589HOH     H1 1954   3.764   0.731   2.630
  589HOH     H2 1955   3.811   0.818   2.515
  590HOH      O 1956   0.259   1.860   1.525
  590HOH     H1 1957   0.330   1.918   1.495
  590HOH     H2 1958   0.291   1.772   1.507
  591HOH      O 1959   1.283   3.023   3.047
  591HOH     H1 1960   1.375   3.009   3.068
  591HOH     H2 1961   1.236   3.006   3.128
  592HOH      O 1962   2.204   2.663   0.911
  592HOH     H1 1963   2.244   2.708   0.985
  592HOH     H2 1964   2.111   2.686   0.916
  593HOH      O 1965   3.955   0.394   2.477
  593HOH     H1 1966   3.995   0.314   2.509
  593HOH     H2 1967   3.861   0.382   2.492
  594HOH      O 1968   2.999   0.605   2.982
  594HOH     H1 1969   2.933   0.560   3.034
  594HOH     H2 1970   2.963   0.605   2.893
  595HOH      O 1971   0.328   0.460   1.035
  595HOH     H1 1972   0.371   0.414   0.963
  595HOH     H2 1973   0.248   0.497   0.996
  596HOH      O 1974   2.317   1.572   1.708
  596HOH     H1 1975   2.318   1.658   1.666
  596HOH     H2 1976   2.314   1.510   1.635
  597HOH      O 1977   2.335   3.756   1.689
  597HOH     H1 1978   2.345   3.764   1.784
  597HOH     H2 1979   2.248   3.791   1.671
  598HOH      O 1980   3.537   2.200   2.986
  598HOH     H1 1981   3.543   2.198   3.081
  598HOH     H2 1982   3.479   2.273   2.967
  599HOH      O 1983   3.528   3.635   2.524
  599HOH     H1 1984   3.489   3.559   2.481
  599HOH     H2 1985   3.510   3.623   2.617
  600HOH      O 1986   0.647   3.914   1.651
  600HOH     H1 1987   0.728   3.875   1.683
  600HOH     H2 1988   0.609   3.847   1.595
  601HOH      O 1989   2.717   3.202   1.717
  601HOH     H1 1990   2.733   3.181   1.809
  601HOH     H2 1991   2.626   3.231   1.714
  602HOH      O 1992   2.569   2.032   1.929
  602HOH     H1 1993   2.562   2.113   1.979
  602HOH     H2 1994   2.478   2.004   1.916
  603HOH      O 1995   1.164   1.241   2.369
  603HOH     H1 1996   1.074   1.210   2.354
  603HOH     H2 1997   1.152   1.324   2.415
  604HOH      O 1998   3.538   1.511   3.176
  604HOH     H1 1999   3.493   1.530   3.094
  604HOH     H2 2000   3.614   1.569   3.177
  605HOH      O 2001   4.023   1.841   3.727
  605HOH     H1 2002   3.966   1.784   3.675
  605HOH     H2 2003   3.999   1.929   3.700
  606HOH      O 2004   0.953   0.355   0.559
  606HOH     H1 2005   0.919   0.415   0.626
  606HOH     H2 2006   0.996   0.286   0.609
  607HOH      O 2007   1.650   2.778   2.908
  607HOH     H1 2008   1.583   2.719   2.944
  607HOH     H2 2009   1.732   2.746   2.946
  608HOH      O 2010   1.918   1.427   2.256
  608HOH     H1 2011   1.963   1.366   2.197
  608HOH     H2 2012   1.986   1.454   2.318
  609HOH      O 2013   3.348   3.097   2.704
  609HOH     H1 2014   3.389   3.023   2.749
  609HOH     H2 2015   3.317   3.154   2.774
  610HOH      O 2016   2.151   0.087   3.707
  610HOH     H1 2017   2.237   0.094   3.665
  610HOH     H2 2018   2.131  -0.007   3.704
  611HOH      O 2019   0.023   2.930   0.186
  611HOH     H1 2020   0.049   2.873   0.258
  611HOH     H2 2021  -0.051   2.980   0.220
  612HOH      O 2022   0.485   3.997   0.983
  612HOH     H1 2023   0.461   3.994   1.076
  612HOH     H2 2024   0.402   3.986   0.937
  613HOH      O 2025   0.751   2.831   3.201
  613HOH     H1 2026   0.660   2.829   3.172
  613HOH     H2 2027   0.793   2.895   3.144
  614HOH      O 2028   1.833   0.383   3.526
  614HOH     H1 2029   1.754   0.414   3.569
  614HOH     H2 2030   1.839   0.435   3.446
  615HOH      O 2031   2.985   3.479   3.775
  615HOH     H1 2032   3.073   3.458   3.744
  615HOH     H2 2033   3.000   3.527   3.857
  616HOH      O 2034   1.475   0.419   3.350
  616HOH     H1 2035   1.549   0.438   3.292
  616HOH     H2 2036   1.425   0.501   3.351
  617HOH      O 2037   2.834   0.603   0.753
  617HOH     H1 2038   2.757   0.585   0.700
  617HOH     H2 2039   2.897   0.642   0.693
  618HOH      O 2040   3.473   3.939   2.755
  618HOH     H1 2041   3.463   4.030   2.781
  618HOH     H2 2042   3.455   3.939   2.660
  619HOH      O 2043   0.524   0.186   3.689
  619HOH     H1 2044   0.613   0.157   3.710
  619HOH     H2 2045   0.505   0.147   3.604
  620HOH      O 2046   2.100   0.171   1.387
  620HOH     H1 2047   2.154   0.243   1.421
  620HOH     H2 2048   2.162   0.100   1.371
  621HOH      O 2049   1.123   1.104   2.748
  621HOH     H1 2050   1.095   1.194   2.731
  621HOH     H2 2051   1.050   1.065   2.796
  622HOH      O 2052   1.135   3.911   0.760
  622HOH     H1 2053   1.219   3.876   0.789
  622HOH     H2 2054   1.079   3.907   0.838
  623HOH      O 2055   2.836   2.620   0.646
  623HOH     H1 2056   2.790   2.604   0.728
  623HOH     H2 2057   2.842   2.533   0.604
  624HOH      O 2058   3.949   3.144   2.917
  624HOH     H1 2059   3.966   3.134   2.823
  624HOH     H2 2060   3.856   3.128   2.927
  625HOH      O 2061   2.900   3.817   1.583
  625HOH     H1 2062   2.850   3.797   1.504
  625HOH     H2 2063   2.840   3.867   1.638
  626HOH      O 2064   1.891   3.919   2.491
  626HOH     H1 2065   1.852   3.832   2.482
  626HOH     H2 2066   1.975   3.903   2.534
  627HOH      O 2067  -0.001   2.483   1.917
  627HOH     H1 2068   0.092   2.487   1.898
  627HOH     H2 2069  -0.034   2.413   1.860
  628HOH      O 2070   3.536   2.577   2.957
  628HOH     H1 2071   3.469   2.566   3.024
  628HOH     H2 2072   3.486   2.581   2.875
  629HOH      O 2073   3.877   1.566   2.224
  629HOH     H1 2074   3.902   1.657   2.212
  629HOH     H2 2075   3.805   1.553   2.162
  630HOH      O 2076   0.187   0.182   2.737
  630HOH     H1 2077   0.243   0.118   2.781
  630HOH     H2 2078   0.190   0.259   2.794
  631HOH      O 2079   3.628   1.624   2.455
  631HOH     H1 2080   3.617   1.715   2.426
  631HOH     H2 2081   3.620   1.572   2.375
  632HOH      O 2082   3.112   0.428   2.347
  632HOH     H1 2083   3.055   0.434   2.424
  632HOH     H2 2084   3.148   0.516   2.339
  633HOH      O 2085   1.063   3.223   3.072
  633HOH     H1 2086   1.138   3.186   3.025
  633HOH     H2 2087   0.991   3.164   3.050
  634HOH      O 2088   1.636   1.824   0.626
  634HOH     H1 2089   1.705   1.763   0.652
  634HOH     H2 2090   1.661   1.907   0.667
  635HOH      O 2091   3.938   1.496   1.703
  635HOH     H1 2092   4.031   1.499   1.683
  635HOH     H2 2093   3.911   1.407   1.682
  636HOH      O 2094   1.246   0.485   2.111
  636HOH     H1 2095   1.287   0.475   2.197
  636HOH     H2 2096   1.152   0.483   2.129
  637HOH      O 2097   0.933   0.767   1.110
  637HOH     H1 2098   0.859   0.734   1.059
  637HOH     H2 2099   0.926   0.862   1.105
  638HOH      O 2100   0.893   1.876   1.353
  638HOH     H1 2101   0.850   1.830   1.281
  638HOH     H2 2102   0.927   1.807   1.409
  639HOH      O 2103   2.491   4.033   1.987
  639HOH     H1 2104   2.483   3.942   1.959
  639HOH     H2 2105   2.584   4.043   2.007
  640HOH      O 2106   0.274   0.674   2.789
  640HOH     H1 2107   0.330   0.648   2.862
  640HOH     H2 2108   0.185   0.667   2.822
  641HOH      O 2109   1.449   2.145   0.193
  641HOH     H1 2110   1.389   2.081   0.231
  641HOH     H2 2111   1.534   2.124   0.231
  642HOH      O 2112   2.207   0.027   3.989
  642HOH     H1 2113   2.207   0.062   3.901
  642HOH     H2 2114   2.256  -0.055   3.982
  643HOH      O 2115   3.491   3.096   0.560
  643HOH     H1 2116   3.457   3.178   0.597
  643HOH     H2 2117   3.416   3.037   0.560
  644HOH      O 2118   3.858   3.151   0.700
  644HOH     H1 2119   3.868   3.064   0.661
  644HOH     H2 2120   3.888   3.140   0.790
  645HOH      O 2121   3.490   0.208   2.851
  645HOH     H1 2122   3.418   0.237   2.907
  645HOH     H2 2123   3.453   0.211   2.762
  646HOH      O 2124   0.404   0.616   2.030
  646HOH     H1 2125   0.445   0.677   1.969
  646HOH     H2 2126   0.412   0.530   1.987
  647HOH      O 2127   0.450   3.478   3.470
  647HOH     H1 2128   0.488   3.429   3.397
  647HOH     H2 2129   0.371   3.429   3.492
  648HOH      O 2130   1.454   1.234   3.204
  648HOH     H1 2131   1.458   1.257   3.111
  648HOH     H2 2132   1.490   1.146   3.209
  649HOH      O 2133   2.400   1.269   1.166
  649HOH     H1 2134   2.392   1.186   1.212
  649HOH     H2 2135   2.314   1.283   1.127
  650HOH      O 2136   1.629   2.496   3.074
  650HOH     H1 2137   1.653   2.519   3.164
  650HOH     H2 2138   1.702   2.441   3.043
  651HOH      O 2139   3.483   2.868   1.152
  651HOH     H1 2140   3.561   2.895   1.201
  651HOH     H2 2141   3.418   2.848   1.220
  652HOH      O 2142   0.806   2.894   1.574
  652HOH     H1 2143   0.735   2.840   1.610
  652HOH     H2 2144   0.779   2.984   1.593
  653HOH      O 2145   3.622   0.470   3.237
  653HOH     H1 2146   3.565   0.543   3.264
  653HOH     H2 2147   3.562   0.396   3.224
  654HOH      O 2148   1.428   1.163   2.270
  654HOH     H1 2149   1.340   1.184   2.303
  654HOH     H2 2150   1.469   1.115   2.342
  655HOH      O 2151   0.472   2.026   3.632
  655HOH     H1 2152   0.442   2.112   3.661
  655HOH     H2 2153   0.402   1.966   3.657
  656HOH      O 2154   3.643   1.398   0.801
  656HOH     H1 2155   3.650   1.473   0.743
  656HOH     H2 2156   3.645   1.322   0.742
  657HOH      O 2157   2.754   0.092   1.995
  657HOH     H1 2158   2.833   0.054   1.956
  657HOH     H2 2159   2.721   0.152   1.928
  658HOH      O 2160   1.094   0.310   2.300
  658HOH     H1 2161   1.034   0.382   2.283
  658HOH     H2 2162   1.098   0.262   2.218
  659HOH      O 2163   0.327   0.889   0.629
  659HOH     H1 2164   0.305   0.874   0.721
  659HOH     H2 2165   0.398   0.953   0.632
  660HOH      O 2166   1.994   2.619   0.390
  660HOH     H1 2167   1.901   2.615   0.370
  660HOH     H2 2168   1.997   2.649   0.481
  661HOH      O 2169   1.380   3.018   0.473
  661HOH     H1 2170   1.451   2.954   0.468
  661HOH     H2 2171   1.333   3.008   0.390
  662HOH      O 2172   1.114   2.351   1.333
  662HOH     H1 2173   1.067   2.271   1.309
  662HOH     H2 2174   1.084   2.415   1.268
  663HOH      O 2175   1.843   1.192   1.677
  663HOH     H1 2176   1.907   1.158   1.740
  663HOH     H2 2177   1.775   1.125   1.672
  664HOH      O 2178   3.811   0.665   1.051
  664HOH     H1 2179   3.735   0.703   1.096
  664HOH     H2 2180   3.876   0.653   1.120
  665HOH      O 2181   1.691   2.489   2.205
  665HOH     H1 2182   1.772   2.456   2.245
  665HOH     H2 2183   1.687   2.580   2.235
  666HOH      O 2184   0.631   1.909   3.890
  666HOH     H1 2185   0.548   1.958   3.887
  666HOH     H2 2186   0.620   1.850   3.964
  667HOH      O 2187   0.541   1.011   1.647
  667HOH     H1 2188   0.572   1.097   1.619
  667HOH     H2 2189   0.459   0.999   1.600
  668HOH      O 2190   2.897   0.849   1.846
  668HOH     H1 2191   2.814   0.897   1.853
  668HOH     H2 2192   2.955   0.893   1.908
  669HOH      O 2193   1.962   2.581   1.167
  669HOH     H1 2194   1.932   2.508   1.222
  669HOH     H2 2195   1.983   2.651   1.228
  670HOH      O 2196   1.492   2.297   2.209
  670HOH     H1 2197   1.558   2.365   2.223
  670HOH     H2 2198   1.427   2.313   2.278
  671HOH      O 2199   3.735   1.773   0.988
  671HOH     H1 2200   3.793   1.848   0.974
  671HOH     H2 2201   3.782   1.699   0.951
  672HOH      O 2202   0.745   0.613   0.119
  672HOH     H1 2203   0.825   0.597   0.069
  672HOH     H2 2204   0.694   0.533   0.109
  673HOH      O 2205   2.164   3.233   2.786
  673HOH     H1 2206   2.259   3.227   2.793
  673HOH     H2 2207   2.135   3.255   2.875
  674HOH      O 2208   2.560   1.680   0.299
  674HOH     H1 2209   2.579   1.613   0.233
  674HOH     H2 2210   2.465   1.676   0.311
  675HOH      O 2211   2.716   1.449   2.519
  675HOH     H1 2212   2.674   1.448   2.605
  675HOH     H2 2213   2.738   1.357   2.502
  676HOH      O 2214   0.934   3.096   2.120
  676HOH     H1 2215   0.909   3.137   2.037
  676HOH     H2 2216   0.944   3.003   2.098
  677HOH      O 2217   2.525   1.076   0.061
  677HOH     H1 2218   2.606   1.029   0.039
  677HOH     H2 2219   2.461   1.007   0.076
  678HOH      O 2220   2.038   2.700   2.603
  678HOH     H1 2221   1.996   2.655   2.530
  678HOH     H2 2222   2.003   2.656   2.681
  679HOH      O 2223   2.270   2.637   3.578
  679HOH     H1 2224   2.350   2.642   3.630
  679HOH     H2 2225   2.298   2.598   3.495
  680HOH      O 2226   1.780   0.929   2.542
  680HOH     H1 2227   1.814   1.012   2.509
  680HOH     H2 2228   1.685   0.941   2.541
  681HOH      O 2229   1.283   2.415   2.032
  681HOH     H1 2230   1.367   2.389   2.069
  681HOH     H2 2231   1.289   2.392   1.939
  682HOH      O 2232   2.808   2.230   3.043
  682HOH     H1 2233   2.782   2.224   2.951
  682HOH     H2 2234   2.791   2.321   3.067
  683HOH      O 2235   3.155   1.954   1.711
  683HOH     H1 2236   3.192   2.033   1.751
  683HOH     H2 2237   3.129   1.981   1.623
  684HOH      O 2238   2.029   0.613   3.844
  684HOH     H1 2239   2.082   0.588   3.768
  684HOH     H2 2240   1.976   0.535   3.862
  685HOH      O 2241   2.945   0.193   3.302
  685HOH     H1 2242   2.896   0.154   3.229
  685HOH     H2 2243   2.889   0.182   3.378
  686HOH      O 2244   0.256   1.396   0.632
  686HOH     H1 2245   0.174   1.348   0.620
  686HOH     H2 2246   0.291   1.363   0.715
  687HOH      O 2247   3.272   0.685   2.699
  687HOH     H1 2248   3.203   0.751   2.696
  687HOH     H2 2249   3.270   0.652   2.789
  688HOH      O 2250   2.645   3.645   3.568
  688HOH     H1 2251   2.609   3.720   3.520
  688HOH     H2 2252   2.609   3.568   3.524
  689HOH      O 2253   1.722   3.983   3.242
  689HOH     H1 2254   1.641   3.955   3.285
  689HOH     H2 2255   1.776   4.019   3.313
  690HOH      O 2256   0.115   2.102   0.334
  690HOH     H1 2257   0.189   2.075   0.280
  690HOH     H2 2258   0.067   2.163   0.280
  691HOH      O 2259   2.786   1.013   0.070
  691HOH     H1 2260   2.784   1.107   0.089
  691HOH     H2 2261   2.859   1.002   0.009
  692HOH      O 2262   2.764   1.985   0.570
  692HOH     H1 2263   2.759   2.074   0.605
  692HOH     H2 2264   2.720   1.989   0.485
  693HOH      O 2265   0.280   1.037   3.481
  693HOH     H1 2266   0.289   0.960   3.424
  693HOH     H2 2267   0.356   1.031   3.539
  694HOH      O 2268   3.415   1.809   3.444
  694HOH     H1 2269   3.431   1.836   3.534
  694HOH     H2 2270   3.398   1.890   3.397
  695HOH      O 2271   1.910   3.674   1.093
  695HOH     H1 2272   1.910   3.578   1.098
  695HOH     H2 2273   1.920   3.692   0.999
  696HOH      O 2274   3.004   3.937   2.926
  696HOH     H1 2275   2.956   3.874   2.980
  696HOH     H2 2276   2.974   3.921   2.837
  697HOH      O 2277   3.639   1.196   2.074
  697HOH     H1 2278   3.605   1.168   2.159
  697HOH     H2 2279   3.727   1.228   2.093
  698HOH      O 2280   1.778   0.339   0.606
  698HOH     H1 2281   1.781   0.369   0.515
  698HOH     H2 2282   1.761   0.245   0.600
  699HOH      O 2283   0.209   2.728   2.199
  699HOH     H1 2284   0.187   2.659   2.136
  699HOH     H2 2285   0.156   2.708   2.276
  700HOH      O 2286   3.316   3.786   0.449
  700HOH     H1 2287   3.359   3.778   0.364
  700HOH     H2 2288   3.371   3.846   0.499
  701HOH      O 2289   2.005   1.073   3.733
  701HOH     H1 2290   1.980   1.102   3.821
  701HOH     H2 2291   1.955   0.993   3.719
  702HOH      O 2292   0.140   2.849   3.658
  702HOH     H1 2293   0.202   2.776   3.650
  702HOH     H2 2294   0.171   2.913   3.594
  703HOH      O 2295   1.236   0.209   2.501
  703HOH     H1 2296   1.185   0.242   2.427
  703HOH     H2 2297   1.289   0.284   2.528
  704HOH      O 2298   1.189   3.374   2.144
  704HOH     H1 2299   1.119   3.380   2.209
  704HOH     H2 2300   1.170   3.444   2.082
  705HOH      O 2301   3.430   2.503   1.001
  705HOH     H1 2302   3.459   2.560   0.930
  705HOH     H2 2303   3.335   2.516   1.004
  706HOH      O 2304   3.359   1.787   1.841
  706HOH     H1 2305   3.265   1.774   1.852
  706HOH     H2 2306   3.366   1.872   1.798
  707HOH      O 2307   3.992   0.348   1.145
  707HOH     H1 2308   3.921   0.331   1.207
  707HOH     H2 2309   4.065   0.377   1.200
  708HOH      O 2310   1.845   2.658   1.710
  708HOH     H1 2311   1.772   2.660   1.649
  708HOH     H2 2312   1.866   2.750   1.727
  709HOH      O 2313   1.054   0.346   3.171
  709HOH     H1 2314   1.073   0.438   3.156
  709HOH     H2 2315   1.110   0.299   3.109
  710HOH      O 2316   2.758   3.765   2.509
  710HOH     H1 2317   2.729   3.674   2.520
  710HOH     H2 2318   2.816   3.763   2.433
  711HOH      O 2319   1.711   1.592   2.879
  711HOH     H1 2320   1.738   1.635   2.798
  711HOH     H2 2321   1.618   1.574   2.866
  712HOH      O 2322   2.747   0.584   2.493
  712HOH     H1 2323   2.729   0.676   2.475
  712HOH     H2 2324   2.804   0.585   2.570
  713HOH      O 2325   2.661   1.301   3.361
  713HOH     H1 2326   2.591   1.275   3.301
  713HOH     H2 2327   2.701   1.378   3.319
  714HOH      O 2328   0.812   2.226   3.445
  714HOH     H1 2329   0.765   2.145   3.423
  714HOH     H2 2330   0.816   2.274   3.363
  715HOH      O 2331   2.466   0.372   2.985
  715HOH     H1 2332   2.547   0.401   2.943
  715HOH     H2 2333   2.422   0.453   3.011
  716HOH      O 2334   2.236   3.235   1.080
  716HOH     H1 2335   2.178   3.167   1.044
  716HOH     H2 2336   2.223   3.311   1.023
  717HOH      O 2337   2.813   1.389   3.573
  717HOH     H1 2338   2.800   1.483   3.582
  717HOH     H2 2339   2.749   1.362   3.506
  718HOH      O 2340   0.965   2.574   3.736
  718HOH     H1 2341   1.032   2.587   3.803
  718HOH     H2 2342   0.921   2.492   3.762
  719HOH      O 2343   1.012   1.170   3.685
  719HOH     H1 2344   0.918   1.153   3.694
  719HOH     H2 2345   1.016   1.251   3.634
  720HOH      O 2346   3.166   0.484   0.658
  720HOH     H1 2347   3.091   0.425   0.656
  720HOH     H2 2348   3.200   0.476   0.747
  721HOH      O 2349   3.384   2.519   3.153
  721HOH     H1 2350   3.290   2.509   3.142
  721HOH     H2 2351   3.409   2.445   3.209
  722HOH      O 2352   1.194   3.515   3.710
  722HOH     H1 2353   1.286   3.542   3.715
  722HOH     H2 2354   1.158   3.566   3.639
  723HOH      O 2355   0.993   2.828   0.845
  723HOH     H1 2356   1.040   2.791   0.770
  723HOH     H2 2357   0.993   2.923   0.828
  724HOH      O 2358   0.784   3.480   3.279
  724HOH     H1 2359   0.850   3.498   3.212
  724HOH     H2 2360   0.799   3.389   3.305
  725HOH      O 2361   2.910   0.499   0.999
  725HOH     H1 2362   2.992   0.538   1.027
  725HOH     H2 2363   2.898   0.531   0.909
  726HOH      O 2364   1.387   3.497   1.958
  726HOH     H1 2365   1.382   3.503   2.054
  726HOH     H2 2366   1.435   3.575   1.932
  727HOH      O 2367   0.823   3.942   2.233
  727HOH     H1 2368   0.794   4.005   2.167
  727HOH     H2 2369   0.906   3.908   2.199
  728HOH      O 2370   0.276   0.763   3.637
  728HOH     H1 2371   0.364   0.786   3.610
  728HOH     H2 2372   0.287   0.691   3.700
  729HOH      O 2373   1.929   2.467   3.961
  729HOH     H1 2374   1.928   2.430   3.872
  729HOH     H2 2375   1.903   2.558   3.949
  730HOH      O 2376   2.078   1.409   2.935
  730HOH     H1 2377   2.030   1.414   2.852
  730HOH     H2 2378   2.135   1.487   2.934
  731HOH      O 2379   0.802   3.701   1.105
  731HOH     H1 2380   0.890   3.683   1.139
  731HOH     H2 2381   0.797   3.796   1.101
  732HOH      O 2382   1.593   0.148   2.182
  732HOH     H1 2383   1.667   0.118   2.235
  732HOH     H2 2384   1.517   0.134   2.238
  733HOH      O 2385   2.363   2.855   1.844
  733HOH     H1 2386   2.373   2.764   1.872
  733HOH     H2 2387   2.450   2.881   1.815
  734HOH      O 2388   0.522   1.218   3.289
  734HOH     H1 2389   0.474   1.155   3.236
  734HOH     H2 2390   0.464   1.294   3.294
  735HOH      O 2391   2.025   3.290   0.199
  735HOH     H1 2392   2.012   3.248   0.114
  735HOH     H2 2393   2.047   3.381   0.178
  736HOH      O 2394   1.764   3.961   3.696
  736HOH     H1 2395   1.784   3.965   3.790
  736HOH     H2 2396   1.674   3.993   3.690
  737HOH      O 2397   0.346   0.625   2.327
  737HOH     H1 2398   0.279   0.561   2.348
  737HOH     H2 2399   0.365   0.612   2.234
  738HOH      O 2400   3.802   0.180   3.669
  738HOH     H1 2401   3.840   0.264   3.694
  738HOH     H2 2402   3.827   0.169   3.577
  739HOH      O 2403   1.517   2.094   2.762
  739HOH     H1 2404   1.466   2.114   2.840
  739HOH     H2 2405   1.608   2.102   2.790
  740HOH      O 2406   0.750   1.461   0.601
  740HOH     H1 2407   0.708   1.502   0.677
  740HOH     H2 2408   0.762   1.369   0.628
  741HOH      O 2409   2.320   1.868   1.605
  741HOH     H1 2410   2.231   1.881   1.572
  741HOH     H2 2411   2.369   1.943   1.572
  742HOH      O 2412   0.561   2.784   3.578
  742HOH     H1 2413   0.643   2.795   3.626
  742HOH     H2 2414   0.504   2.735   3.638
  743HOH      O 2415   0.355   1.759   0.227
  743HOH     H1 2416   0.345   1.671   0.263
  743HOH     H2 2417   0.296   1.761   0.151
  744HOH      O 2418   2.550   3.912   0.104
  744HOH     H1 2419   2.501   3.989   0.134
  744HOH     H2 2420   2.631   3.914   0.154
  745HOH      O 2421   2.044   1.762   3.773
  745HOH     H1 2422   2.057   1.857   3.766
  745HOH     H2 2423   1.968   1.753   3.831
  746HOH      O 2424   2.422   0.058   3.633
  746HOH     H1 2425   2.450  -0.023   3.590
  746HOH     H2 2426   2.394   0.114   3.561
  747HOH      O 2427   2.952   3.449   2.399
  747HOH     H1 2428   2.869   3.488   2.374
  747HOH     H2 2429   2.929   3.367   2.443
  748HOH      O 2430   1.791   3.465   3.963
  748HOH     H1 2431   1.727   3.483   4.032
  748HOH     H2 2432   1.864   3.524   3.982
  749HOH      O 2433   2.946   3.046   3.468
  749HOH     H1 2434   2.951   3.086   3.381
  749HOH     H2 2435   2.991   2.962   3.458
  750HOH      O 2436   2.829   1.620   2.358
  750HOH     H1 2437   2.770   1.694   2.344
  750HOH     H2 2438   2.784   1.563   2.419
  751HOH      O 2439   2.245   1.904   2.300
  751HOH     H1 2440   2.219   1.873   2.386
  751HOH     H2 2441   2.249   1.999   2.309
  752HOH      O 2442   3.162   1.450   2.743
  752HOH     H1 2443   3.143   1.515   2.810
  752HOH     H2 2444   3.108   1.476   2.668
  753HOH      O 2445   2.185   2.295   2.000
  753HOH     H1 2446   2.273   2.329   1.981
  753HOH     H2 2447   2.162   2.334   2.084
  754HOH      O 2448   0.380   3.742   2.972
  754HOH     H1 2449   0.456   3.697   3.010
  754HOH     H2 2450   0.307   3.682   2.987
  755HOH      O 2451   1.269   1.400   0.737
  755HOH     H1 2452   1.204   1.411   0.668
  755HOH     H2 2453   1.229   1.336   0.797
  756HOH      O 2454   1.273   0.981   2.571
  756HOH     H1 2455   1.225   1.031   2.636
  756HOH     H2 2456   1.213   0.975   2.496
  757HOH      O 2457   0.266   2.850   3.015
  757HOH     H1 2458   0.220   2.851   2.931
  757HOH     H2 2459   0.245   2.935   3.055
  758HOH      O 2460   2.966   1.182   3.649
  758HOH     H1 2461   2.958   1.130   3.568
  758HOH     H2 2462   2.896   1.247   3.642
  759HOH      O 2463   0.577   2.402   2.434
  759HOH     H1 2464   0.547   2.312   2.419
  759HOH     H2 2465   0.659   2.408   2.386
  760HOH      O 2466   0.351   1.599   2.533
  760HOH     H1 2467   0.314   1.672   2.583
  760HOH     H2 2468   0.417   1.561   2.591
  761HOH      O 2469   2.339   0.744   2.596
  761HOH     H1 2470   2.386   0.819   2.561
  761HOH     H2 2471   2.271   0.783   2.652
  762HOH      O 2472   3.486   1.978   2.032
  762HOH     H1 2473   3.477   1.893   1.988
  762HOH     H2 2474   3.442   1.967   2.116
  763HOH      O 2475   4.048   0.744   0.347
  763HOH     H1 2476   4.061   0.681   0.417
  763HOH     H2 2477   3.953   0.743   0.333
  764HOH      O 2478   3.947   3.077   3.560
  764HOH     H1 2479   4.009   3.087   3.633
  764HOH     H2 2480   3.954   2.985   3.535
  765HOH      O 2481   2.104   0.290   2.747
  765HOH     H1 2482   2.078   0.378   2.773
  765HOH     H2 2483   2.029   0.235   2.769
  766HOH      O 2484   2.712   0.243   1.425
  766HOH     H1 2485   2.764   0.259   1.347
  766HOH     H2 2486   2.776   0.222   1.493
  767HOH      O 2487   0.039   3.731   3.027
  767HOH     H1 2488   0.028   3.825   3.013
  767HOH     H2 2489   0.000   3.715   3.113
  768HOH      O 2490   3.716   2.753   0.445
  768HOH     H1 2491   3.660   2.684   0.410
  768HOH     H2 2492   3.682   2.833   0.407
  769HOH      O 2493   1.693   1.747   3.672
  769HOH     H1 2494   1.617   1.770   3.619
  769HOH     H2 2495   1.764   1.737   3.608
  770HOH      O 2496   2.754   2.807   1.490
  770HOH     H1 2497   2.698   2.883   1.474
  770HOH     H2 2498   2.835   2.844   1.525
  771HOH      O 2499   1.007   0.682   1.821
  771HOH     H1 2500   0.993   0.701   1.914
  771HOH     H2 2501   1.074   0.745   1.794
  772HOH      O 2502   3.018   2.797   0.985
  772HOH     H1 2503   3.031   2.889   1.008
  772HOH     H2 2504   2.966   2.761   1.057
  773HOH      O 2505   0.188   0.729   1.833
  773HOH     H1 2506   0.157   0.744   1.923
  773HOH     H2 2507   0.109   0.736   1.780
  774HOH      O 2508   2.144   3.434   3.853
  774HOH     H1 2509   2.230   3.395   3.866
  774HOH     H2 2510   2.113   3.398   3.770
  775HOH      O 2511   3.837   2.248   2.681
  775HOH     H1 2512   3.797   2.333   2.660
  775HOH     H2 2513   3.831   2.241   2.776
  776HOH      O 2514   0.148   0.990   3.729
  776HOH     H1 2515   0.188   0.913   3.691
  776HOH     H2 2516   0.149   1.055   3.658
  777HOH      O 2517   3.884   1.472   0.101
  777HOH     H1 2518   3.958   1.527   0.075
  777HOH     H2 2519   3.894   1.393   0.047
  778HOH      O 2520   3.088   2.931   2.684
  778HOH     H1 2521   3.019   2.870   2.711
  778HOH     H2 2522   3.169   2.889   2.713
  779HOH      O 2523   1.349   2.287   0.962
  779HOH     H1 2524   1.257   2.311   0.968
  779HOH     H2 2525   1.365   2.277   0.868
  780HOH      O 2526   3.944   3.166   2.639
  780HOH     H1 2527   3.932   3.237   2.576
  780HOH     H2 2528   4.033   3.134   2.622
  781HOH      O 2529   3.768   2.791   1.728
  781HOH     H1 2530   3.759   2.713   1.673
  781HOH     H2 2531   3.725   2.861   1.678
  782HOH      O 2532   2.765   1.882   2.117
  782HOH     H1 2533   2.841   1.856   2.065
  782HOH     H2 2534   2.691   1.869   2.059
  783HOH      O 2535   0.913   0.266   3.749
  783HOH     H1 2536   0.873   0.349   3.723
  783HOH     H2 2537   0.885   0.204   3.681
  784HOH      O 2538   2.918   3.810   2.293
  784HOH     H1 2539   2.930   3.903   2.313
  784HOH     H2 2540   3.007   3.775   2.289
  785HOH      O 2541   4.005   1.044   0.076
  785HOH     H1 2542   3.968   1.130   0.057
  785HOH     H2 2543   3.935   0.996   0.119
  786HOH      O 2544   3.252   2.746   3.319
  786HOH     H1 2545   3.247   2.654   3.346
  786HOH     H2 2546   3.200   2.792   3.385
  787HOH      O 2547   1.194   1.012   3.784
  787HOH     H1 2548   1.172   0.992   3.875
  787HOH     H2 2549   1.127   1.075   3.757
  788HOH      O 2550   1.169   1.548   2.854
  788HOH     H1 2551   1.132   1.512   2.934
  788HOH     H2 2552   1.124   1.501   2.783
  789HOH      O 2553   2.235   2.916   0.275
  789HOH     H1 2554   2.258   2.971   0.350
  789HOH     H2 2555   2.319   2.894   0.235
  790HOH      O 2556   2.253   3.071   2.444
  790HOH     H1 2557   2.243   3.004   2.376
  790HOH     H2 2558   2.228   3.027   2.525
  791HOH      O 2559   0.343   3.214   2.247
  791HOH     H1 2560   0.357   3.224   2.153
  791HOH     H2 2561   0.347   3.119   2.261
  792HOH      O 2562   1.198   0.350   0.179
  792HOH     H1 2563   1.241   0.370   0.262
  792HOH     H2 2564   1.186   0.435   0.136
  793HOH      O 2565   2.793   2.007   1.321
  793HOH     H1 2566   2.707   1.965   1.324
  793HOH     H2 2567   2.826   1.987   1.233
  794HOH      O 2568   0.097   1.564   0.059
  794HOH     H1 2569   0.152   1.637   0.030
  794HOH     H2 2570   0.159   1.497   0.087
  795HOH      O 2571  -0.032   2.578   0.210
  795HOH     H1 2572   0.036   2.599   0.146
  795HOH     H2 2573  -0.002   2.618   0.291
  796HOH      O 2574   3.677   1.893   2.357
  796HOH     H1 2575   3.721   1.928   2.279
  796HOH     H2 2576   3.680   1.965   2.420
  797HOH      O 2577   3.510   0.248   1.909
  797HOH     H1 2578   3.540   0.177   1.852
  797HOH     H2 2579   3.461   0.203   1.978
  798HOH      O 2580   3.145   3.172   0.494
  798HOH     H1 2581   3.181   3.148   0.579
  798HOH     H2 2582   3.164   3.265   0.485
  799HOH      O 2583   3.610   0.868   1.453
  799HOH     H1 2584   3.580   0.959   1.454
  799HOH     H2 2585   3.585   0.832   1.538
  800HOH      O 2586   2.370   1.037   1.309
  800HOH     H1 2587   2.312   0.960   1.313
  800HOH     H2 2588   2.442   1.015   1.368
  801HOH      O 2589   1.343   2.395   1.755
  801HOH     H1 2590   1.252   2.401   1.725
  801HOH     H2 2591   1.390   2.354   1.683
  802HOH      O 2592   2.271   1.819   0.944
  802HOH     H1 2593   2.326   1.766   0.886
  802HOH     H2 2594   2.182   1.788   0.927
  803HOH      O 2595   1.661   3.428   0.751
  803HOH     H1 2596   1.619   3.432   0.837
  803HOH     H2 2597   1.625   3.350   0.710
  804HOH      O 2598   3.538   1.664   1.557
  804HOH     H1 2599   3.578   1.740   1.515
  804HOH     H2 2600   3.444   1.679   1.549
  805HOH      O 2601   2.589   3.723   1.556
  805HOH     H1 2602   2.554   3.723   1.467
  805HOH     H2 2603   2.511   3.722   1.612
  806HOH      O 2604   1.038   3.507   3.425
  806HOH     H1 2605   0.950   3.509   3.388
  806HOH     H2 2606   1.077   3.426   3.392
  807HOH      O 2607   2.681   0.441   3.361
  807HOH     H1 2608   2.706   0.443   3.269
  807HOH     H2 2609   2.707   0.527   3.394
  808HOH      O 2610   3.978   1.900   0.254
  808HOH     H1 2611   3.920   1.867   0.323
  808HOH     H2 2612   4.032   1.966   0.297
  809HOH      O 2613   2.745   1.180   2.482
  809HOH     H1 2614   2.751   1.122   2.558
  809HOH     H2 2615   2.814   1.149   2.423
  810HOH      O 2616   1.027   1.961   3.291
  810HOH     H1 2617   1.108   1.923   3.259
  810HOH     H2 2618   1.040   1.970   3.386
  811HOH      O 2619   1.939   3.996   0.584
  811HOH     H1 2620   1.884   3.969   0.511
  811HOH     H2 2621   1.878   4.041   0.643
  812HOH      O 2622   1.647   2.996   2.726
  812HOH     H1 2623   1.556   2.983   2.702
  812HOH     H2 2624   1.666   2.925   2.787
  813HOH      O 2625   1.250   3.918   0.245
  813HOH     H1 2626   1.302   3.997   0.227
  813HOH     H2 2627   1.289   3.882   0.325
  814HOH      O 2628   3.328   0.290   0.141
  814HOH     H1 2629   3.252   0.296   0.082
  814HOH     H2 2630   3.344   0.196   0.149
  815HOH      O 2631   1.235   1.167   1.403
  815HOH     H1 2632   1.232   1.072   1.407
  815HOH     H2 2633   1.227   1.187   1.310
  816HOH      O 2634   0.464   2.892   0.836
  816HOH     H1 2635   0.509   2.973   0.859
  816HOH     H2 2636   0.373   2.919   0.819
  817HOH      O 2637   3.636   1.246   3.526
  817HOH     H1 2638   3.676   1.333   3.519
  817HOH     H2 2639   3.613   1.222   3.436
  818HOH      O 2640   3.303   1.991   1.249
  818HOH     H1 2641   3.279   1.974   1.157
  818HOH     H2 2642   3.286   1.907   1.293
  819HOH      O 2643   2.321   2.580   1.893
  819HOH     H1 2644   2.360   2.580   1.981
  819HOH     H2 2645   2.228   2.562   1.908
  820HOH      O 2646   2.276   3.460   1.596
  820HOH     H1 2647   2.219   3.455   1.520
  820HOH     H2 2648   2.251   3.542   1.639
  821HOH      O 2649   3.334   0.911   3.973
  821HOH     H1 2650   3.376   0.902   4.059
  821HOH     H2 2651   3.402   0.887   3.910
  822HOH      O 2652   0.513   3.745   1.497
  822HOH     H1 2653   0.539   3.658   1.529
  822HOH     H2 2654   0.439   3.770   1.553
  823HOH      O 2655   1.326   0.920   3.345
  823HOH     H1 2656   1.350   0.982   3.414
  823HOH     H2 2657   1.393   0.931   3.278
  824HOH      O 2658   3.457   3.214   1.613
  824HOH     H1 2659   3.400   3.200   1.688
  824HOH     H2 2660   3.473   3.308   1.611
  825HOH      O 2661   2.134   3.502   2.645
  825HOH     H1 2662   2.217   3.505   2.691
  825HOH     H2 2663   2.072   3.468   2.709
  826HOH      O 2664   4.039   3.074   2.058
  826HOH     H1 2665   3.968   3.012   2.046
  826HOH     H2 2666   4.002   3.143   2.113
  827HOH      O 2667   2.303   0.121   2.155
  827HOH     H1 2668   2.375   0.106   2.094
  827HOH     H2 2669   2.277   0.034   2.185
  828HOH      O 2670   2.064   0.667   2.960
  828HOH     H1 2671   2.067   0.572   2.967
  828HOH     H2 2672   1.994   0.692   3.022
  829HOH      O 2673   0.641   3.509   1.609
  829HOH     H1 2674   0.731   3.524   1.581
  829HOH     H2 2675   0.640   3.532   1.701
  830HOH      O 2676   3.249   1.071   2.553
  830HOH     H1 2677   3.219   1.128   2.482
  830HOH     H2 2678   3.278   0.991   2.508
  831HOH      O 2679   3.443   0.711   0.536
  831HOH     H1 2680   3.526   0.687   0.493
  831HOH     H2 2681   3.458   0.693   0.628
  832HOH      O 2682   0.530   2.137   2.374
  832HOH     H1 2683   0.556   2.089   2.453
  832HOH     H2 2684   0.542   2.074   2.303
  833HOH      O 2685   3.512   1.704   1.130
  833HOH     H1 2686   3.467   1.763   1.190
  833HOH     H2 2687   3.590   1.752   1.103
  834HOH      O 2688   3.141   0.645   0.144
  834HOH     H1 2689   3.149   0.630   0.238
  834HOH     H2 2690   3.205   0.586   0.105
  835HOH      O 2691   0.052   0.788   2.087
  835HOH     H1 2692  -0.001   0.848   2.035
  835HOH     H2 2693   0.092   0.843   2.154
  836HOH      O 2694   0.521   0.889   2.986
  836HOH     H1 2695   0.602   0.852   2.953
  836HOH     H2 2696   0.467   0.812   3.009
  837HOH      O 2697   2.508   1.673   2.582
  837HOH     H1 2698   2.551   1.719   2.510
  837HOH     H2 2699   2.528   1.581   2.566
  838HOH      O 2700   3.199   3.633   1.312
  838HOH     H1 2701   3.289   3.612   1.284
  838HOH     H2 2702   3.211   3.692   1.386
  839HOH      O 2703   0.334   2.713   4.011
  839HOH     H1 2704   0.354   2.806   4.004
  839HOH     H2 2705   0.401   2.670   3.958
  840HOH      O 2706   3.771   3.700   2.895
  840HOH     H1 2707   3.827   3.628   2.922
  840HOH     H2 2708   3.832   3.768   2.866
  841HOH      O 2709   2.280   3.280   0.432
  841HOH     H1 2710   2.203   3.283   0.376
  841HOH     H2 2711   2.280   3.191   0.469
  842HOH      O 2712   0.112   0.205   3.049
  842HOH     H1 2713   0.099   0.264   2.975
  842HOH     H2 2714   0.101   0.259   3.127
  843HOH      O 2715   1.338   2.158   1.331
  843HOH     H1 2716   1.278   2.232   1.335
  843HOH     H2 2717   1.296   2.090   1.384
  844HOH      O 2718   1.350   2.483   1.382
  844HOH     H1 2719   1.394   2.412   1.429
  844HOH     H2 2720   1.264   2.447   1.358
  845HOH      O 2721   2.172   2.373   3.586
  845HOH     H1 2722   2.203   2.463   3.593
  845HOH     H2 2723   2.233   2.322   3.639
  846HOH      O 2724   0.305   1.434   2.762
  846HOH     H1 2725   0.369   1.362   2.755
  846HOH     H2 2726   0.221   1.390   2.770
  847HOH      O 2727   1.978   2.337   3.381
  847HOH     H1 2728   1.916   2.295   3.440
  847HOH     H2 2729   2.051   2.363   3.437
  848HOH      O 2730   3.691   0.033   0.105
  848HOH     H1 2731   3.683   0.090   0.028
  848HOH     H2 2732   3.714   0.092   0.176
  849HOH      O 2733   1.744   3.930   0.415
  849HOH     H1 2734   1.654   3.951   0.440
  849HOH     H2 2735   1.747   3.835   0.411
  850HOH      O 2736   0.904   1.749   3.513
  850HOH     H1 2737   0.849   1.811   3.561
  850HOH     H2 2738   0.878   1.760   3.421
  851HOH      O 2739   3.397   0.056   2.137
  851HOH     H1 2740   3.431  -0.034   2.143
  851HOH     H2 2741   3.307   0.045   2.107
  852HOH      O 2742   0.409   1.640   0.662
  852HOH     H1 2743   0.353   1.564   0.648
  852HOH     H2 2744   0.350   1.708   0.695
  853HOH      O 2745   0.486   1.619   3.481
  853HOH     H1 2746   0.427   1.674   3.533
  853HOH     H2 2747   0.428   1.564   3.428
  854HOH      O 2748   1.436   1.391   3.683
  854HOH     H1 2749   1.516   1.421   3.638
  854HOH     H2 2750   1.386   1.347   3.615
  855HOH      O 2751   1.272   1.957   1.118
  855HOH     H1 2752   1.319   2.025   1.167
  855HOH     H2 2753   1.314   1.875   1.145
  856HOH      O 2754   1.751   0.464   0.313
  856HOH     H1 2755   1.826   0.415   0.280
  856HOH     H2 2756   1.761   0.551   0.275
  857HOH      O 2757   1.727   3.590   1.381
  857HOH     H1 2758   1.764   3.645   1.450
  857HOH     H2 2759   1.802   3.549   1.340
  858HOH      O 2760   1.291   0.505   1.600
  858HOH     H1 2761   1.327   0.540   1.519
  858HOH     H2 2762   1.349   0.536   1.669
  859HOH      O 2763   3.883   3.234   1.165
  859HOH     H1 2764   3.792   3.204   1.176
  859HOH     H2 2765   3.906   3.209   1.076
  860HOH      O 2766   1.055   1.390   1.998
  860HOH     H1 2767   1.036   1.406   2.090
  860HOH     H2 2768   1.132   1.335   1.998
  861HOH      O 2769   2.990   0.272   0.714
  861HOH     H1 2770   3.061   0.229   0.762
  861HOH     H2 2771   2.912   0.256   0.767
  862HOH      O 2772   2.428   3.130   3.020
  862HOH     H1 2773   2.429   3.190   2.945
  862HOH     H2 2774   2.336   3.125   3.046
  863HOH      O 2775   4.001   3.757   2.389
  863HOH     H1 2776   4.002   3.753   2.293
  863HOH     H2 2777   3.913   3.786   2.411
  864HOH      O 2778   1.136   2.547   2.889
  864HOH     H1 2779   1.223   2.520   2.920
  864HOH     H2 2780   1.113   2.621   2.945
  865HOH      O 2781   3.632   1.118   3.976
  865HOH     H1 2782   3.682   1.079   3.904
  865HOH     H2 2783   3.653   1.211   3.972
  866HOH      O 2784   2.850   0.448   1.984
  866HOH     H1 2785   2.789   0.480   1.918
  866HOH     H2 2786   2.859   0.521   2.046
  867HOH      O 2787   1.940   1.500   1.764
  867HOH     H1 2788   1.988   1.467   1.840
  867HOH     H2 2789   1.849   1.477   1.782
  868HOH      O 2790   0.704   0.038   3.113
  868HOH     H1 2791   0.622   0.002   3.148
  868HOH     H2 2792   0.727  -0.021   3.042
  869HOH      O 2793   0.380   1.835   2.713
  869HOH     H1 2794   0.446   1.783   2.758
  869HOH     H2 2795   0.430   1.897   2.660
  870HOH      O 2796   0.947   0.786   2.082
  870HOH     H1 2797   0.954   0.833   2.165
  870HOH     H2 2798   0.854   0.790   2.061
  871HOH      O 2799   0.334   3.206   2.809
  871HOH     H1 2800   0.316   3.267   2.880
  871HOH     H2 2801   0.428   3.213   2.794
  872HOH      O 2802   2.074   0.140   3.083
  872HOH     H1 2803   2.162   0.141   3.046
  872HOH     H2 2804   2.038   0.055   3.057
  873HOH      O 2805   1.453   1.644   1.800
  873HOH     H1 2806   1.374   1.698   1.794
  873HOH     H2 2807   1.487   1.640   1.711
  874HOH      O 2808   2.085   0.096   3.340
  874HOH     H1 2809   1.997   0.083   3.376
  874HOH     H2 2810   2.071   0.104   3.246
  875HOH      O 2811   3.412   1.301   0.544
  875HOH     H1 2812   3.420   1.394   0.525
  875HOH     H2 2813   3.360   1.297   0.624
  876HOH      O 2814   3.466   2.256   0.894
  876HOH     H1 2815   3.378   2.220   0.885
  876HOH     H2 2816   3.454   2.337   0.942
  877HOH      O 2817   2.456   1.448   3.176
  877HOH     H1 2818   2.531   1.503   3.157
  877HOH     H2 2819   2.409   1.494   3.246
  878HOH      O 2820   0.608   0.361   3.132
  878HOH     H1 2821   0.626   0.455   3.129
  878HOH     H2 2822   0.661   0.324   3.062
  879HOH      O 2823   1.018   1.768   0.012
  879HOH     H1 2824   1.010   1.746   0.105
  879HOH     H2 2825   0.986   1.690  -0.033
  880HOH      O 2826   0.770   2.497   2.764
  880HOH     H1 2827   0.815   2.549   2.697
  880HOH     H2 2828   0.683   2.480   2.728
  881HOH      O 2829   1.060   2.803   3.565
  881HOH     H1 2830   1.061   2.865   3.638
  881HOH     H2 2831   1.046   2.718   3.605
  882HOH      O 2832   4.026   0.251   0.832
  882HOH     H1 2833   3.959   0.320   0.828
  882HOH     H2 2834   4.056   0.252   0.923
  883HOH      O 2835   0.300   3.761   1.980
  883HOH     H1 2836   0.366   3.766   2.050
  883HOH     H2 2837   0.328   3.826   1.916
  884HOH      O 2838   1.652   1.964   2.049
  884HOH     H1 2839   1.586   1.998   1.988
  884HOH     H2 2840   1.652   2.027   2.121
  885HOH      O 2841   3.835   2.027   3.202
  885HOH     H1 2842   3.773   1.955   3.212
  885HOH     H2 2843   3.867   2.044   3.290
  886HOH      O 2844   2.816   3.241   1.460
  886HOH     H1 2845   2.766   3.223   1.540
  886HOH     H2 2846   2.784   3.326   1.430
  887HOH      O 2847   2.560   1.522   0.060
  887HOH     H1 2848   2.537   1.444   0.111
  887HOH     H2 2849   2.604   1.488  -0.018
  888HOH      O 2850   1.596   1.469   2.424
  888HOH     H1 2851   1.644   1.489   2.343
  888HOH     H2 2852   1.610   1.376   2.437
  889HOH      O 2853   2.203   1.720   0.174
  889HOH     H1 2854   2.262   1.762   0.112
  889HOH     H2 2855   2.256   1.653   0.218
  890HOH      O 2856   3.826   2.890   2.120
  890HOH     H1 2857   3.758   2.942   2.078
  890HOH     H2 2858   3.814   2.802   2.085
  891HOH      O 2859   0.777   2.795   3.748
  891HOH     H1 2860   0.799   2.866   3.808
  891HOH     H2 2861   0.856   2.743   3.743
  892HOH      O 2862   2.421   2.080   1.461
  892HOH     H1 2863   2.443   2.100   1.370
  892HOH     H2 2864   2.369   2.156   1.490
  893HOH      O 2865   0.645   1.111   2.078
  893HOH     H1 2866   0.621   1.135   2.168
  893HOH     H2 2867   0.690   1.188   2.044
  894HOH      O 2868   0.525   3.285   3.739
  894HOH     H1 2869   0.586   3.244   3.678
  894HOH     H2 2870   0.447   3.305   3.686
  895HOH      O 2871   2.666   1.558   3.035
  895HOH     H1 2872   2.724   1.601   2.972
  895HOH     H2 2873   2.717   1.555   3.116
  896HOH      O 2874   2.928   3.750   1.260
  896HOH     H1 2875   3.022   3.733   1.272
  896HOH     H2 2876   2.907   3.708   1.177
  897HOH      O 2877   3.587   2.608   1.322
  897HOH     H1 2878   3.599   2.660   1.243
  897HOH     H2 2879   3.492   2.604   1.333
  898HOH      O 2880   3.138   1.873   2.102
  898HOH     H1 2881   3.117   1.786   2.135
  898HOH     H2 2882   3.069   1.891   2.037
  899HOH      O 2883   1.376   1.638   0.767
  899HOH     H1 2884   1.306   1.699   0.790
  899HOH     H2 2885   1.333   1.553   0.765
  900HOH      O 2886   0.393   3.859   0.312
  900HOH     H1 2887   0.304   3.881   0.340
  900HOH     H2 2888   0.390   3.765   0.295
  901HOH      O 2889   1.990   1.147   3.382
  901HOH     H1 2890   2.064   1.091   3.405
  901HOH     H2 2891   2.029   1.221   3.335
  902HOH      O 2892   1.082   3.621   2.551
  902HOH     H1 2893   1.057   3.563   2.623
  902HOH     H2 2894   1.157   3.670   2.584
  903HOH      O 2895   3.843   1.217   1.726
  903HOH     H1 2896   3.750   1.206   1.745
  903HOH     H2 2897   3.880   1.130   1.740
  904HOH      O 2898   0.068   1.268   2.786
  904HOH     H1 2899   0.002   1.293   2.721
  904HOH     H2 2900   0.019   1.225   2.855
  905HOH      O 2901   2.940   3.900   3.826
  905HOH     H1 2902   2.884   3.937   3.758
  905HOH     H2 2903   2.933   3.806   3.814
  906HOH      O 2904   2.081   2.796   3.694
  906HOH     H1 2905   2.126   2.871   3.731
  906HOH     H2 2906   2.150   2.743   3.655
  907HOH      O 2907   1.104   3.816   1.480
  907HOH     H1 2908   1.181   3.854   1.523
  907HOH     H2 2909   1.082   3.878   1.411
  908HOH      O 2910   0.138   1.724   2.920
  908HOH     H1 2911   0.160   1.701   3.011
  908HOH     H2 2912   0.206   1.681   2.868
  909HOH      O 2913   2.913   3.659   3.590
  909HOH     H1 2914   2.818   3.661   3.575
  909HOH     H2 2915   2.926   3.586   3.651
  910HOH      O 2916   0.605   1.541   0.842
  910HOH     H1 2917   0.569   1.475   0.902
  910HOH     H2 2918   0.529   1.572   0.793
  911HOH      O 2919   1.812   0.588   2.632
  911HOH     H1 2920   1.888   0.553   2.585
  911HOH     H2 2921   1.847   0.663   2.681
  912HOH      O 2922   4.012   1.139   0.428
  912HOH     H1 2923   3.961   1.084   0.486
  912HOH     H2 2924   4.087   1.085   0.403
  913HOH      O 2925   3.273   0.577   2.984
  913HOH     H1 2926   3.284   0.482   2.996
  913HOH     H2 2927   3.180   0.592   2.997
  914HOH      O 2928   1.256   2.115   1.627
  914HOH     H1 2929   1.177   2.105   1.679
  914HOH     H2 2930   1.251   2.045   1.562
  915HOH      O 2931   1.147   2.747   1.814
  915HOH     H1 2932   1.169   2.838   1.835
  915HOH     H2 2933   1.204   2.726   1.740
  916HOH      O 2934   1.027   1.743   2.307
  916HOH     H1 2935   1.049   1.721   2.217
  916HOH     H2 2936   1.093   1.805   2.335
  917HOH      O 2937   3.054   0.207   0.457
  917HOH     H1 2938   3.064   0.263   0.380
  917HOH     H2 2939   3.034   0.268   0.528
  918HOH      O 2940   3.018   4.028   0.877
  918HOH     H1 2941   3.102   3.983   0.883
  918HOH     H2 2942   2.979   4.018   0.964
  919HOH      O 2943   1.379   3.216   0.849
  919HOH     H1 2944   1.416   3.230   0.762
  919HOH     H2 2945   1.289   3.187   0.832
  920HOH      O 2946   2.154   0.325   2.247
  920HOH     H1 2947   2.205   0.244   2.248
  920HOH     H2 2948   2.201   0.383   2.306
  921HOH      O 2949   3.274   3.605   1.636
  921HOH     H1 2950   3.242   3.528   1.587
  921HOH     H2 2951   3.211   3.674   1.614
  922HOH      O 2952   0.921   1.337   2.781
  922HOH     H1 2953   0.874   1.257   2.804
  922HOH     H2 2954   0.865   1.380   2.716
  923HOH      O 2955   2.519   2.592   2.132
  923HOH     H1 2956   2.585   2.579   2.064
  923HOH     H2 2957   2.565   2.644   2.199
  924HOH      O 2958   3.468   0.855   0.203
  924HOH     H1 2959   3.426   0.930   0.246
  924HOH     H2 2960   3.559   0.861   0.230
  925HOH      O 2961   3.887   1.698   1.437
  925HOH     H1 2962   3.819   1.765   1.447
  925HOH     H2 2963   3.944   1.710   1.512
  926HOH      O 2964   0.416   3.904   3.740
  926HOH     H1 2965   0.441   3.959   3.666
  926HOH     H2 2966   0.391   3.820   3.700
  927HOH      O 2967   1.108   1.479   1.046
  927HOH     H1 2968   1.188   1.431   1.068
  927HOH     H2 2969   1.135   1.571   1.042
  928HOH      O 2970   2.176   2.111   3.981
  928HOH     H1 2971   2.141   2.084   3.896
  928HOH     H2 2972   2.119   2.183   4.008
  929HOH      O 2973   1.542   2.058   3.744
  929HOH     H1 2974   1.553   2.148   3.715
  929HOH     H2 2975   1.500   2.014   3.670
  930HOH      O 2976   0.868   0.152   1.286
  930HOH     H1 2977   0.822   0.174   1.205
  930HOH     H2 2978   0.830   0.069   1.314
  931HOH      O 2979   0.469   2.062   1.146
  931HOH     H1 2980   0.482   2.132   1.081
  931HOH     H2 2981   0.548   2.062   1.198
  932HOH      O 2982   3.726   3.371   0.568
  932HOH     H1 2983   3.711   3.370   0.474
  932HOH     H2 2984   3.774   3.290   0.586
  933HOH      O 2985   0.138   2.778   0.919
  933HOH     H1 2986   0.176   2.848   0.972
  933HOH     H2 2987   0.122   2.706   0.980
  934HOH      O 2988   3.126   0.784   3.866
  934HOH     H1 2989   3.202   0.836   3.892
  934HOH     H2 2990   3.157   0.693   3.872
  935HOH      O 2991   0.852   1.328   1.044
  935HOH     H1 2992   0.813   1.362   1.124
  935HOH     H2 2993   0.919   1.393   1.021
  936HOH      O 2994   0.563   0.696   0.318
  936HOH     H1 2995   0.642   0.682   0.266
  936HOH     H2 2996   0.584   0.658   0.404
  937HOH      O 2997   1.238   3.932   3.706
  937HOH     H1 2998   1.208   3.877   3.633
  937HOH     H2 2999   1.158   3.961   3.749
  938HOH      O 3000   1.902   1.823   2.143
  938HOH     H1 3001   1.840   1.800   2.074
  938HOH     H2 3002   1.950   1.898   2.109
  939HOH      O 3003   3.476   2.869   3.270
  939HOH     H1 3004   3.506   2.881   3.359
  939HOH     H2 3005   3.401   2.809   3.278
  940HOH      O 3006   2.751   1.606   1.051
  940HOH     H1 3007   2.665   1.563   1.047
  940HOH     H2 3008   2.779   1.613   0.960
  941HOH      O 3009   0.473   0.242   1.296
  941HOH     H1 3010   0.455   0.148   1.297
  941HOH     H2 3011   0.534   0.254   1.223
  942HOH      O 3012   2.721   2.970   0.250
  942HOH     H1 3013   2.759   2.894   0.294
  942HOH     H2 3014   2.783   3.041   0.267
  943HOH      O 3015   0.662   2.578   0.622
  943HOH     H1 3016   0.716   2.503   0.645
  943HOH     H2 3017   0.611   2.548   0.547
  944HOH      O 3018   3.279   1.567   1.269
  944HOH     H1 3019   3.333   1.509   1.215
  944HOH     H2 3020   3.220   1.609   1.206
  945HOH      O 3021   1.098   2.452   3.290
  945HOH     H1 3022   1.165   2.520   3.280
  945HOH     H2 3023   1.028   2.494   3.339
  946HOH      O 3024   1.615   1.108   3.833
  946HOH     H1 3025   1.544   1.082   3.892
  946HOH     H2 3026   1.659   1.179   3.879
  947HOH      O 3027   2.848   0.217   0.934
  947HOH     H1 3028   2.878   0.246   1.020
  947HOH     H2 3029   2.914   0.154   0.905
  948HOH      O 3030   3.779   1.007   2.793
  948HOH     H1 3031   3.711   0.980   2.731
  948HOH     H2 3032   3.861   0.978   2.754
  949HOH      O 3033   0.917   1.036   2.986
  949HOH     H1 3034   0.903   1.078   3.070
  949HOH     H2 3035   0.978   0.965   3.005
  950HOH      O 3036   2.800   2.389   1.613
  950HOH     H1 3037   2.826   2.465   1.664
  950HOH     H2 3038   2.861   2.387   1.539
  951HOH      O 3039   0.252   1.570   3.715
  951HOH     H1 3040   0.158   1.582   3.699
  951HOH     H2 3041   0.263   1.476   3.727
  952HOH      O 3042   3.599   0.405   1.569
  952HOH     H1 3043   3.521   0.393   1.624
  952HOH     H2 3044   3.671   0.377   1.624
  953HOH      O 3045   0.432   3.979   0.681
  953HOH     H1 3046   0.394   4.064   0.701
  953HOH     H2 3047   0.515   4.000   0.637
  954HOH      O 3048   0.334   0.385   2.590
  954HOH     H1 3049   0.281   0.316   2.631
  954HOH     H2 3050   0.299   0.466   2.626
  955HOH      O 3051   2.372   1.986   1.166
  955HOH     H1 3052   2.371   1.910   1.108
  955HOH     H2 3053   2.420   2.053   1.118
  956HOH      O 3054   0.093   2.043   1.856
  956HOH     H1 3055   0.117   2.040   1.949
  956HOH     H2 3056   0.028   1.973   1.846
  957HOH      O 3057   2.447   1.979   0.429
  957HOH     H1 3058   2.520   1.998   0.370
  957HOH     H2 3059   2.369   2.008   0.381
  958HOH      O 3060   0.463   0.362   1.936
  958HOH     H1 3061   0.390   0.301   1.940
  958HOH     H2 3062   0.521   0.326   1.870
  959HOH      O 3063   2.666   1.837   2.385
  959HOH     H1 3064   2.675   1.920   2.432
  959HOH     H2 3065   2.644   1.862   2.296
  960HOH      O 3066   0.426   3.476   2.624
  960HOH     H1 3067   0.363   3.524   2.677
  960HOH     H2 3068   0.376   3.440   2.551
  961HOH      O 3069   1.814   2.934   2.513
  961HOH     H1 3070   1.749   2.952   2.581
  961HOH     H2 3071   1.844   2.845   2.531
  962HOH      O 3072   1.541   3.534   2.238
  962HOH     H1 3073   1.622   3.483   2.234
  962HOH     H2 3074   1.569   3.623   2.258
  963HOH      O 3075   3.268   1.074   3.767
  963HOH     H1 3076   3.345   1.033   3.728
  963HOH     H2 3077   3.264   1.039   3.856
  964HOH      O 3078   1.823   0.085   1.454
  964HOH     H1 3079   1.835   0.074   1.548
  964HOH     H2 3080   1.902   0.129   1.424
  965HOH      O 3081   0.548   0.367   1.543
  965HOH     H1 3082   0.516   0.455   1.522
  965HOH     H2 3083   0.561   0.324   1.459
  966HOH      O 3084   2.597   3.814   1.041
  966HOH     H1 3085   2.638   3.740   0.995
  966HOH     H2 3086   2.537   3.852   0.976
  967HOH      O 3087   3.418   0.608   0.043
  967HOH     H1 3088   3.407   0.691   0.090
  967HOH     H2 3089   3.474   0.555   0.099
  968HOH      O 3090   1.885   0.192   1.139
  968HOH     H1 3091   1.929   0.163   1.060
  968HOH     H2 3092   1.878   0.113   1.193
  969HOH      O 3093   1.461   3.363   1.706
  969HOH     H1 3094   1.489   3.438   1.653
  969HOH     H2 3095   1.447   3.400   1.794
  970HOH      O 3096   2.538   0.401   1.318
  970HOH     H1 3097   2.594   0.339   1.363
  970HOH     H2 3098   2.555   0.386   1.225
  971HOH      O 3099   3.585   0.995   0.882
  971HOH     H1 3100   3.568   1.085   0.909
  971HOH     H2 3101   3.520   0.943   0.931
  972HOH      O 3102   2.295   1.707   2.090
  972HOH     H1 3103   2.218   1.649   2.095
  972HOH     H2 3104   2.276   1.777   2.153
  973HOH      O 3105   2.227   1.921   1.854
  973HOH     H1 3106   2.235   1.840   1.903
  973HOH     H2 3107   2.256   1.899   1.765
  974HOH      O 3108   0.954   1.518   3.919
  974HOH     H1 3109   1.024   1.499   3.857
  974HOH     H2 3110   0.904   1.437   3.925
  975HOH      O 3111   0.340   1.461   3.297
  975HOH     H1 3112   0.262   1.483   3.246
  975HOH     H2 3113   0.307   1.408   3.370
  976HOH      O 3114   0.653   2.062   1.365
  976HOH     H1 3115   0.734   2.014   1.379
  976HOH     H2 3116   0.592   2.023   1.428
  977HOH      O 3117   1.145   2.186   3.112
  977HOH     H1 3118   1.084   2.255   3.136
  977HOH     H2 3119   1.207   2.182   3.184
  978HOH      O 3120   3.479   0.071   0.998
  978HOH     H1 3121   3.448   0.065   0.908
  978HOH     H2 3122   3.567   0.033   0.996
  979HOH      O 3123   1.422   1.697   3.503
  979HOH     H1 3124   1.482   1.624   3.487
  979HOH     H2 3125   1.345   1.656   3.544
  980HOH      O 3126   2.092   1.278   2.111
  980HOH     H1 3127   2.152   1.294   2.039
  980HOH     H2 3128   2.140   1.221   2.171
  981HOH      O 3129   3.693   0.430   1.960
  981HOH     H1 3130   3.751   0.399   1.890
  981HOH     H2 3131   3.628   0.360   1.968
  982HOH      O 3132   1.928   3.713   1.866
  982HOH     H1 3133   2.018   3.693   1.893
  982HOH     H2 3134   1.875   3.643   1.904
  983HOH      O 3135   0.722   0.449   3.610
  983HOH     H1 3136   0.648   0.411   3.562
  983HOH     H2 3137   0.687   0.470   3.696
  984HOH      O 3138   3.543   3.504   0.705
  984HOH     H1 3139   3.563   3.475   0.794
  984HOH     H2 3140   3.597   3.448   0.649
  985HOH      O 3141   2.009   3.822   1.443
  985HOH     H1 3142   1.929   3.787   1.481
  985HOH     H2 3143   2.053   3.864   1.516
  986HOH      O 3144   0.761   3.039   2.519
  986HOH     H1 3145   0.754   3.112   2.458
  986HOH     H2 3146   0.832   2.985   2.484
  987HOH      O 3147   2.451   3.843   3.009
  987HOH     H1 3148   2.460   3.772   3.072
  987HOH     H2 3149   2.501   3.813   2.933
  988HOH      O 3150   3.002   3.455   2.799
  988HOH     H1 3151   3.026   3.367   2.771
  988HOH     H2 3152   3.007   3.508   2.720
  989HOH      O 3153   2.143   0.364   1.164
  989HOH     H1 3154   2.064   0.403   1.126
  989HOH     H2 3155   2.112   0.314   1.239
  990HOH      O 3156   2.815   1.535   3.257
  990HOH     H1 3157   2.855   1.587   3.326
  990HOH     H2 3158   2.885   1.478   3.225
  991HOH      O 3159   0.273   0.342   3.420
  991HOH     H1 3160   0.348   0.306   3.373
  991HOH     H2 3161   0.205   0.352   3.353
  992HOH      O 3162   0.692   0.644   3.415
  992HOH     H1 3163   0.614   0.588   3.413
  992HOH     H2 3164   0.728   0.630   3.503
  993HOH      O 3165   0.752   0.777   2.835
  993HOH     H1 3166   0.745   0.682   2.843
  993HOH     H2 3167   0.832   0.799   2.883
  994HOH      O 3168   0.035   3.639   3.704
  994HOH     H1 3169  -0.020   3.698   3.653
  994HOH     H2 3170   0.028   3.554   3.660
  995HOH      O 3171   3.181   0.325   3.223
  995HOH     H1 3172   3.103   0.281   3.256
  995HOH     H2 3173   3.231   0.347   3.301
  996HOH      O 3174   2.984   1.084   2.045
  996HOH     H1 3175   3.061   1.124   2.004
  996HOH     H2 3176   3.013   0.996   2.070
  997HOH      O 3177   1.557   3.902   3.436
  997HOH     H1 3178   1.533   3.961   3.507
  997HOH     H2 3179   1.492   3.831   3.440
  998HOH      O 3180   0.683   2.186   0.428
  998HOH     H1 3181   0.679   2.162   0.520
  998HOH     H2 3182   0.767   2.231   0.418
  999HOH      O 3183   3.886   3.087   1.459
  999HOH     H1 3184   3.943   3.013   1.477
  999HOH     H2 3185   3.866   3.124   1.545
 1000HOH      O 3186   3.910   2.917   0.563
 1000HOH     H1 3187   3.936   2.864   0.639
 1000HOH     H2 3188   3.869   2.855   0.503
 1001HOH      O 3189   3.221   3.866   0.947
 1001HOH     H1 3190   3.268   3.838   0.868
 1001HOH     H2 3191   3.196   3.784   0.990
 1002HOH      O 3192   0.892   1.465   3.571
 1002HOH     H1 3193   0.900   1.556   3.544
 1002HOH     H2 3194   0.818   1.464   3.632
 1003HOH      O 3195   1.142   3.512   1.864
 1003HOH     H1 3196   1.228   3.500   1.903
 1003HOH     H2 3197   1.160   3.538   1.774
 1004HOH      O 3198   0.969   2.832   2.054
 1004HOH     H1 3199   1.038   2.774   2.022
 1004HOH     H2 3200   0.910   2.843   1.979
 1005HOH      O 3201   3.720   3.770   0.804
 1005HOH     H1 3202   3.755   3.684   0.778
 1005HOH     H2 3203   3.742   3.827   0.730
 1006HOH      O 3204   3.145   2.263   3.782
 1006HOH     H1 3205   3.231   2.247   3.742
 1006HOH     H2 3206   3.125   2.182   3.828
 1007HOH      O 3207   3.526   3.811   2.116
 1007HOH     H1 3208   3.454   3.808   2.053
 1007HOH     H2 3209   3.545   3.719   2.135
 1008HOH      O 3210   1.964   1.156   3.989
 1008HOH     H1 3211   1.876   1.186   4.013
 1008HOH     H2 3212   1.991   1.099   4.061
 1009HOH      O 3213   2.086   2.834   1.860
 1009HOH     H1 3214   2.171   2.839   1.903
 1009HOH     H2 3215   2.058   2.743   1.874
 1010HOH      O 3216   3.175   2.697   3.886
 1010HOH     H1 3217   3.095   2.662   3.847
 1010HOH     H2 3218   3.218   2.621   3.925
 1011HOH      O 3219   2.536   2.197   1.063
 1011HOH     H1 3220   2.550   2.188   0.969
 1011HOH     H2 3221   2.492   2.282   1.073
 1012HOH      O 3222   1.493   0.052   0.347
 1012HOH     H1 3223   1.454   0.077   0.431
 1012HOH     H2 3224   1.513   0.134   0.304
 1013HOH      O 3225   1.383   2.706   0.167
 1013HOH     H1 3226   1.319   2.656   0.117
 1013HOH     H2 3227   1.468   2.680   0.132
 1014HOH      O 3228   3.224   2.477   0.291
 1014HOH     H1 3229   3.181   2.562   0.303
 1014HOH     H2 3230   3.286   2.492   0.220
 1015HOH      O 3231   1.175   1.944   1.417
 1015HOH     H1 3232   1.193   1.851   1.421
 1015HOH     H2 3233   1.080   1.950   1.410
 1016HOH      O 3234   3.094   1.475   3.237
 1016HOH     H1 3235   3.122   1.520   3.317
 1016HOH     H2 3236   3.159   1.406   3.225
 1017HOH      O 3237   0.268   2.055   0.577
 1017HOH     H1 3238   0.206   2.107   0.630
 1017HOH     H2 3239   0.217   2.028   0.501
 1018HOH      O 3240   3.327   3.900   3.735
 1018HOH     H1 3241   3.416   3.876   3.759
 1018HOH     H2 3242   3.272   3.837   3.782
 1019HOH      O 3243   1.882   3.747   2.831
 1019HOH     H1 3244   1.910   3.832   2.798
 1019HOH     H2 3245   1.958   3.690   2.820
 1020HOH      O 3246   0.991   1.454   3.078
 1020HOH     H1 3247   0.917   1.421   3.026
 1020HOH     H2 3248   1.042   1.376   3.100
 1021HOH      O 3249   0.600   0.118   0.173
 1021HOH     H1 3250   0.571   0.074   0.093
 1021HOH     H2 3251   0.564   0.066   0.244
 1022HOH      O 3252   3.462   2.446   3.800
 1022HOH     H1 3253   3.556   2.459   3.805
 1022HOH     H2 3254   3.431   2.517   3.743
 1023HOH      O 3255   1.787   3.655   2.575
 1023HOH     H1 3256   1.810   3.581   2.632
 1023HOH     H2 3257   1.692   3.652   2.568
 1024HOH      O 3258   0.137   0.454   2.314
 1024HOH     H1 3259   0.139   0.368   2.272
 1024HOH     H2 3260   0.059   0.452   2.370
 1025HOH      O 3261   1.384   0.080   0.591
 1025HOH     H1 3262   1.290   0.078   0.605
 1025HOH     H2 3263   1.412   0.163   0.631
 1026HOH      O 3264   3.015   0.367   0.258
 1026HOH     H1 3265   2.944   0.432   0.257
 1026HOH     H2 3266   3.049   0.368   0.168
 1027HOH      O 3267   0.671   0.839   1.979
 1027HOH     H1 3268   0.596   0.826   1.920
 1027HOH     H2 3269   0.664   0.930   2.006
 1028HOH      O 3270   3.150   1.315   3.917
 1028HOH     H1 3271   3.140   1.238   3.974
 1028HOH     H2 3272   3.173   1.386   3.977
 1029HOH      O 3273   3.044   1.807   2.785
 1029HOH     H1 3274   3.071   1.892   2.819
 1029HOH     H2 3275   3.114   1.782   2.724
 1030HOH      O 3276   3.367   0.913   2.007
 1030HOH     H1 3277   3.443   0.856   2.021
 1030HOH     H2 3278   3.302   0.857   1.967
 1031HOH      O 3279   0.299   3.928   2.812
 1031HOH     H1 3280   0.231   3.908   2.747
 1031HOH     H2 3281   0.301   3.852   2.869
 1032HOH      O 3282   0.139   1.583   3.159
 1032HOH     H1 3283   0.084   1.606   3.234
 1032HOH     H2 3284   0.077   1.554   3.092
 1033HOH      O 3285   3.506   1.271   0.993
 1033HOH     H1 3286   3.557   1.320   0.928
 1033HOH     H2 3287   3.547   1.293   1.077
 1034HOH      O 3288   0.053   0.064   3.944
 1034HOH     H1 3289   0.051   0.015   3.862
 1034HOH     H2 3290   0.090   0.002   4.007
 1035HOH      O 3291   1.412   2.073   1.898
 1035HOH     H1 3292   1.333   2.070   1.845
 1035HOH     H2 3293   1.380   2.085   1.987
 1036HOH      O 3294   0.127   4.000   2.384
 1036HOH     H1 3295   0.062   3.935   2.355
 1036HOH     H2 3296   0.092   4.034   2.466
 1037HOH      O 3297   2.112   3.925   2.639
 1037HOH     H1 3298   2.199   3.888   2.628
 1037HOH     H2 3299   2.128   4.014   2.670
 1038HOH      O 3300   3.510   1.577   0.093
 1038HOH     H1 3301   3.539   1.642   0.157
 1038HOH     H2 3302   3.418   1.564   0.113
 1039HOH      O 3303   3.815   1.938   0.033
 1039HOH     H1 3304   3.780   2.025   0.052
 1039HOH     H2 3305   3.885   1.925   0.098
 1040HOH      O 3306   3.265   0.289   0.867
 1040HOH     H1 3307   3.348   0.335   0.882
 1040HOH     H2 3308   3.280   0.201   0.900
 1041HOH      O 3309   2.442   2.039   3.941
 1041HOH     H1 3310   2.352   2.059   3.968
 1041HOH     H2 3311   2.448   1.944   3.944
 1042HOH      O 3312   1.293   2.152   2.422
 1042HOH     H1 3313   1.382   2.182   2.443
 1042HOH     H2 3314   1.243   2.233   2.412
 1043HOH      O 3315   3.997   3.809   1.800
 1043HOH     H1 3316   3.922   3.755   1.779
 1043HOH     H2 3317   4.026   3.844   1.715
 1044HOH      O 3318   3.261   3.139   1.793
 1044HOH     H1 3319   3.247   3.046   1.808
 1044HOH     H2 3320   3.238   3.181   1.875
 1045HOH      O 3321   0.850   0.189   3.335
 1045HOH     H1 3322   0.914   0.200   3.265
 1045HOH     H2 3323   0.769   0.164   3.290
 1046HOH      O 3324   0.930   1.248   0.294
 1046HOH     H1 3325   0.847   1.296   0.292
 1046HOH     H2 3326   0.905   1.156   0.286
 1047HOH      O 3327   2.995   1.368   2.229
 1047HOH     H1 3328   2.958   1.436   2.285
 1047HOH     H2 3329   2.988   1.287   2.281
 1048HOH      O 3330   0.286   2.612   3.364
 1048HOH     H1 3331   0.371   2.592   3.324
 1048HOH     H2 3332   0.271   2.704   3.343
 1049HOH      O 3333   3.147   0.032   0.086
 1049HOH     H1 3334   3.223  -0.025   0.099
 1049HOH     H2 3335   3.150   0.052  -0.008
 1050HOH      O 3336   1.836   1.785   2.406
 1050HOH     H1 3337   1.767   1.850   2.422
 1050HOH     H2 3338   1.854   1.792   2.312
 1051HOH      O 3339   1.580   2.831   1.823
 1051HOH     H1 3340   1.622   2.851   1.739
 1051HOH     H2 3341   1.568   2.736   1.821
 1052HOH      O 3342   3.746   2.482   3.327
 1052HOH     H1 3343   3.821   2.478   3.386
 1052HOH     H2 3344   3.768   2.552   3.265
 1053HOH      O 3345   3.630   3.404   2.775
 1053HOH     H1 3346   3.556   3.428   2.830
 1053HOH     H2 3347   3.592   3.361   2.699
 1054HOH      O 3348   1.042   0.807   2.817
 1054HOH     H1 3349   1.006   0.861   2.747
 1054HOH     H2 3350   1.125   0.849   2.840
 1055HOH      O 3351   2.682   1.137   1.028
 1055HOH     H1 3352   2.718   1.116   1.114
 1055HOH     H2 3353   2.726   1.076   0.969
 1056HOH      O 3354   2.158   1.034   1.798
 1056HOH     H1 3355   2.242   1.080   1.799
 1056HOH     H2 3356   2.159   0.985   1.716
 1057HOH      O 3357   2.241   0.095   0.848
 1057HOH     H1 3358   2.152   0.067   0.869
 1057HOH     H2 3359   2.237   0.120   0.756
 1058HOH      O 3360   1.113   2.054   3.539
 1058HOH     H1 3361   1.096   2.085   3.628
 1058HOH     H2 3362   1.196   2.007   3.544
 1059HOH      O 3363   1.547   3.341   0.344
 1059HOH     H1 3364   1.494   3.280   0.292
 1059HOH     H2 3365   1.635   3.303   0.343
 1060HOH      O 3366   1.622   1.948   3.348
 1060HOH     H1 3367   1.637   2.002   3.271
 1060HOH     H2 3368   1.657   1.862   3.325
 1061HOH      O 3369   1.641   4.052   0.108
 1061HOH     H1 3370   1.608   4.039   0.197
 1061HOH     H2 3371   1.620   3.971   0.062
 1062HOH      O 3372   0.693   3.626   2.665
 1062HOH     H1 3373   0.633   3.700   2.669
 1062HOH     H2 3374   0.637   3.549   2.656
 1063HOH      O 3375   3.475   2.952   2.876
 1063HOH     H1 3376   3.568   2.967   2.858
 1063HOH     H2 3377   3.458   2.999   2.957
 1064HOH      O 3378   2.695   2.558   0.890
 1064HOH     H1 3379   2.701   2.583   0.982
 1064HOH     H2 3380   2.633   2.620   0.852
 1065HOH      O 3381   2.508   0.384   3.786
 1065HOH     H1 3382   2.479   0.306   3.834
 1065HOH     H2 3383   2.600   0.393   3.809
 1066HOH      O 3384   2.391   1.349   3.663
 1066HOH     H1 3385   2.405   1.346   3.758
 1066HOH     H2 3386   2.297   1.335   3.652
 1067HOH      O 3387   3.195   0.608   1.922
 1067HOH     H1 3388   3.273   0.572   1.963
 1067HOH     H2 3389   3.154   0.534   1.878
 1068HOH      O 3390   0.080   3.100   2.391
 1068HOH     H1 3391   0.133   3.096   2.470
 1068HOH     H2 3392   0.136   3.062   2.323
 1069HOH      O 3393   1.018   0.480   2.772
 1069HOH     H1 3394   1.025   0.558   2.717
 1069HOH     H2 3395   0.946   0.498   2.832
 1070HOH      O 3396   0.637   2.994   1.139
 1070HOH     H1 3397   0.673   2.906   1.145
 1070HOH     H2 3398   0.648   3.019   1.048
 1071HOH      O 3399   3.421   2.930   3.576
 1071HOH     H1 3400   3.370   2.936   3.657
 1071HOH     H2 3401   3.459   3.017   3.565
 1072HOH      O 3402   2.988   2.353   1.125
 1072HOH     H1 3403   3.036   2.269   1.127
 1072HOH     H2 3404   2.908   2.334   1.076
 1073HOH      O 3405   3.245   0.381   3.525
 1073HOH     H1 3406   3.259   0.298   3.569
 1073HOH     H2 3407   3.333   0.419   3.516
 1074HOH      O 3408   2.445   3.141   3.357
 1074HOH     H1 3409   2.355   3.139   3.325
 1074HOH     H2 3410   2.493   3.086   3.294
 1075HOH      O 3411  -0.017   2.247   2.344
 1075HOH     H1 3412  -0.005   2.168   2.397
 1075HOH     H2 3413   0.067   2.260   2.301
 1076HOH      O 3414   3.877   0.979   2.031
 1076HOH     H1 3415   3.805   0.942   2.082
 1076HOH     H2 3416   3.885   1.070   2.062
 1077HOH      O 3417   3.422   1.581   0.561
 1077HOH     H1 3418   3.383   1.595   0.648
 1077HOH     H2 3419   3.513   1.609   0.571
 1078HOH      O 3420   1.656   1.276   1.301
 1078HOH     H1 3421   1.655   1.303   1.393
 1078HOH     H2 3422   1.740   1.232   1.290
 1079HOH      O 3423   2.717   2.468   1.913
 1079HOH     H1 3424   2.668   2.528   1.857
 1079HOH     H2 3425   2.808   2.499   1.907
 1080HOH      O 3426   3.646   3.021   1.589
 1080HOH     H1 3427   3.640   3.007   1.494
 1080HOH     H2 3428   3.602   3.104   1.604
 1081HOH      O 3429   2.086   3.898   1.684
 1081HOH     H1 3430   2.003   3.862   1.714
 1081HOH     H2 3431   2.114   3.956   1.755
 1082HOH      O 3432   0.773   2.899   1.905
 1082HOH     H1 3433   0.682   2.889   1.932
 1082HOH     H2 3434   0.774   2.982   1.856
 1083HOH      O 3435   1.388   3.819   2.151
 1083HOH     H1 3436   1.350   3.748   2.203
 1083HOH     H2 3437   1.396   3.892   2.212
 1084HOH      O 3438   2.851   0.405   3.121
 1084HOH     H1 3439   2.920   0.408   3.187
 1084HOH     H2 3440   2.831   0.311   3.111
 1085HOH      O 3441   3.370   3.573   0.940
 1085HOH     H1 3442   3.383   3.609   0.852
 1085HOH     H2 3443   3.451   3.524   0.958
 1086HOH      O 3444   3.802   0.600   0.658
 1086HOH     H1 3445   3.823   0.556   0.740
 1086HOH     H2 3446   3.760   0.682   0.685
 1087HOH      O 3447   2.631   2.672   1.755
 1087HOH     H1 3448   2.574   2.631   1.689
 1087HOH     H2 3449   2.652   2.758   1.717
 1088HOH      O 3450   1.180   0.920   1.773
 1088HOH     H1 3451   1.248   0.946   1.835
 1088HOH     H2 3452   1.226   0.912   1.689
 1089HOH      O 3453   0.961   3.330   1.515
 1089HOH     H1 3454   0.990   3.312   1.605
 1089HOH     H2 3455   0.927   3.419   1.519
 1090HOH      O 3456   0.520   2.268   2.755
 1090HOH     H1 3457   0.478   2.301   2.675
 1090HOH     H2 3458   0.448   2.237   2.809
 1091HOH      O 3459   1.944   1.533   3.586
 1091HOH     H1 3460   1.964   1.624   3.564
 1091HOH     H2 3461   1.848   1.529   3.586
 1092HOH      O 3462   3.150   1.538   2.100
 1092HOH     H1 3463   3.112   1.526   2.013
 1092HOH     H2 3464   3.120   1.463   2.150
 1093HOH      O 3465   1.809   1.791   3.999
 1093HOH     H1 3466   1.756   1.799   4.078
 1093HOH     H2 3467   1.812   1.881   3.964
 1094HOH      O 3468   3.526   3.262   2.545
 1094HOH     H1 3469   3.463   3.223   2.606
 1094HOH     H2 3470   3.533   3.199   2.473
 1095HOH      O 3471   0.948   0.438   3.432
 1095HOH     H1 3472   0.891   0.361   3.428
 1095HOH     H2 3473   0.893   0.510   3.399
 1096HOH      O 3474   1.116   2.136   3.796
 1096HOH     H1 3475   1.161   2.056   3.824
 1096HOH     H2 3476   1.137   2.200   3.864
 1097HOH      O 3477   1.744   2.417   2.522
 1097HOH     H1 3478   1.818   2.402   2.464
 1097HOH     H2 3479   1.708   2.502   2.495
 1098HOH      O 3480   1.854   3.102   2.319
 1098HOH     H1 3481   1.844   3.041   2.392
 1098HOH     H2 3482   1.930   3.070   2.271
 1099HOH      O 3483   0.989   3.639   1.272
 1099HOH     H1 3484   1.080   3.664   1.259
 1099HOH     H2 3485   0.988   3.544   1.266
 1100HOH      O 3486   0.587   4.028   3.970
 1100HOH     H1 3487   0.539   3.993   3.895
 1100HOH     H2 3488   0.679   4.014   3.949
 1101HOH      O 3489   1.445   3.536   3.263
 1101HOH     H1 3490   1.530   3.569   3.233
 1101HOH     H2 3491   1.441   3.560   3.355
 1102HOH      O 3492   3.642   1.732   3.728
 1102HOH     H1 3493   3.665   1.708   3.818
 1102HOH     H2 3494   3.551   1.762   3.734
 1103HOH      O 3495   2.727   2.168   4.007
 1103HOH     H1 3496   2.705   2.224   3.933
 1103HOH     H2 3497   2.667   2.094   4.001
 1104HOH      O 3498   1.762   1.616   2.603
 1104HOH     H1 3499   1.798   1.679   2.540
 1104HOH     H2 3500   1.697   1.567   2.552
 1105HOH      O 3501   0.696   2.253   2.974
 1105HOH     H1 3502   0.652   2.270   2.891
 1105HOH     H2 3503   0.787   2.280   2.959
 1106HOH      O 3504   1.471   0.462   2.326
 1106HOH     H1 3505   1.475   0.378   2.371
 1106HOH     H2 3506   1.516   0.523   2.385
 1107HOH      O 3507   1.423   1.377   1.829
 1107HOH     H1 3508   1.393   1.464   1.801
 1107HOH     H2 3509   1.384   1.317   1.765
 1108HOH      O 3510   3.294   3.248   2.333
 1108HOH     H1 3511   3.217   3.253   2.278
 1108HOH     H2 3512   3.311   3.154   2.343
 1109HOH      O 3513   0.622   0.189   1.073
 1109HOH     H1 3514   0.629   0.248   0.998
 1109HOH     H2 3515   0.563   0.120   1.043
 1110HOH      O 3516   2.042   0.945   1.143
 1110HOH     H1 3517   2.111   0.967   1.080
 1110HOH     H2 3518   2.027   0.851   1.130
 1111HOH      O 3519   3.080   0.813   2.079
 1111HOH     H1 3520   3.123   0.795   2.163
 1111HOH     H2 3521   3.115   0.747   2.020
 1112HOH      O 3522   3.745   0.394   0.478
 1112HOH     H1 3523   3.688   0.364   0.549
 1112HOH     H2 3524   3.782   0.477   0.509
 1113HOH      O 3525   1.693   3.973   2.759
 1113HOH     H1 3526   1.657   3.972   2.670
 1113HOH     H2 3527   1.639   3.911   2.807
 1114HOH      O 3528   2.334   0.983   3.776
 1114HOH     H1 3529   2.287   0.981   3.693
 1114HOH     H2 3530   2.327   1.074   3.805
 1115HOH      O 3531   2.081   0.731   3.300
 1115HOH     H1 3532   2.164   0.693   3.331
 1115HOH     H2 3533   2.108   0.798   3.238
 1116HOH      O 3534   1.196   3.613   1.050
 1116HOH     H1 3535   1.173   3.699   1.015
 1116HOH     H2 3536   1.268   3.582   0.995
 1117HOH      O 3537   2.101   3.023   0.916
 1117HOH     H1 3538   2.034   3.060   0.860
 1117HOH     H2 3539   2.061   2.945   0.954
 1118HOH      O 3540   1.650   1.856   1.435
 1118HOH     H1 3541   1.716   1.916   1.469
 1118HOH     H2 3542   1.635   1.886   1.345
 1119HOH      O 3543   1.355   1.910   0.614
 1119HOH     H1 3544   1.299   1.946   0.545
 1119HOH     H2 3545   1.329   1.958   0.693
 1120HOH      O 3546   3.955   0.309   3.878
 1120HOH     H1 3547   4.003   0.367   3.937
 1120HOH     H2 3548   3.972   0.221   3.912
 1121HOH      O 3549   3.600   0.041   1.755
 1121HOH     H1 3550   3.670   0.036   1.820
 1121HOH     H2 3551   3.636  -0.002   1.677
 1122HOH      O 3552   3.010   3.994   1.927
 1122HOH     H1 3553   3.023   3.903   1.898
 1122HOH     H2 3554   3.060   4.000   2.009
 1123HOH      O 3555   0.996   1.607   0.239
 1123HOH     H1 3556   0.918   1.551   0.241
 1123HOH     H2 3557   1.066   1.549   0.209
 1124HOH      O 3558   3.671   0.386   2.534
 1124HOH     H1 3559   3.651   0.480   2.531
 1124HOH     H2 3560   3.626   0.350   2.458
 1125HOH      O 3561   0.210   2.737   0.661
 1125HOH     H1 3562   0.167   2.746   0.746
 1125HOH     H2 3563   0.300   2.767   0.676
 1126HOH      O 3564   1.545   0.971   3.211
 1126HOH     H1 3565   1.530   0.904   3.145
 1126HOH     H2 3566   1.634   0.955   3.242
 1127HOH      O 3567   1.990   1.380   3.200
 1127HOH     H1 3568   2.024   1.389   3.110
 1127HOH     H2 3569   1.978   1.470   3.230
 1128HOH      O 3570   0.505   1.101   2.335
 1128HOH     H1 3571   0.442   1.173   2.330
 1128HOH     H2 3572   0.452   1.024   2.353
 1129HOH      O 3573   2.804   2.736   0.382
 1129HOH     H1 3574   2.728   2.693   0.342
 1129HOH     H2 3575   2.814   2.692   0.466
 1130HOH      O 3576   1.532   1.051   1.653
 1130HOH     H1 3577   1.563   1.002   1.729
 1130HOH     H2 3578   1.457   1.001   1.620
 1131HOH      O 3579   1.283   0.530   2.836
 1131HOH     H1 3580   1.315   0.476   2.907
 1131HOH     H2 3581   1.187   0.521   2.839
 1132HOH      O 3582   0.512   3.860   2.140
 1132HOH     H1 3583   0.587   3.916   2.123
 1132HOH     H2 3584   0.542   3.797   2.205
 1133HOH      O 3585   1.748   1.850   1.740
 1133HOH     H1 3586   1.660   1.848   1.778
 1133HOH     H2 3587   1.784   1.934   1.770
 1134HOH      O 3588   1.840   3.065   0.821
 1134HOH     H1 3589   1.822   3.035   0.910
 1134HOH     H2 3590   1.813   2.992   0.765
 1135HOH      O 3591   0.723   2.737   1.118
 1135HOH     H1 3592   0.717   2.643   1.101
 1135HOH     H2 3593   0.739   2.743   1.212
 1136HOH      O 3594   1.933   3.688   2.300
 1136HOH     H1 3595   2.025   3.689   2.327
 1136HOH     H2 3596   1.887   3.647   2.373
 1137HOH      O 3597   0.535   3.661   0.994
 1137HOH     H1 3598   0.491   3.728   1.047
 1137HOH     H2 3599   0.629   3.676   1.010
 1138HOH      O 3600   3.862   0.389   2.204
 1138HOH     H1 3601   3.817   0.426   2.128
 1138HOH     H2 3602   3.870   0.462   2.265
 1139HOH      O 3603   0.127   3.909   3.753
 1139HOH     H1 3604   0.222   3.920   3.760
 1139HOH     H2 3605   0.110   3.824   3.796
 1140HOH      O 3606   1.705   2.040   0.789
 1140HOH     H1 3607   1.710   2.091   0.869
 1140HOH     H2 3608   1.780   2.070   0.737
 1141HOH      O 3609   1.201   0.762   3.621
 1141HOH     H1 3610   1.218   0.835   3.680
 1141HOH     H2 3611   1.259   0.778   3.546
 1142HOH      O 3612   2.862   1.832   0.791
 1142HOH     H1 3613   2.828   1.875   0.713
 1142HOH     H2 3614   2.835   1.741   0.783
 1143HOH      O 3615   3.978   0.802   3.842
 1143HOH     H1 3616   4.021   0.882   3.814
 1143HOH     H2 3617   4.030   0.772   3.917
 1144HOH      O 3618   2.033   0.603   1.880
 1144HOH     H1 3619   2.030   0.695   1.909
 1144HOH     H2 3620   2.097   0.602   1.810
 1145HOH      O 3621   3.574   3.794   1.043
 1145HOH     H1 3622   3.534   3.717   1.083
 1145HOH     H2 3623   3.605   3.764   0.958
 1146HOH      O 3624   1.434   0.762   3.080
 1146HOH     H1 3625   1.394   0.781   2.995
 1146HOH     H2 3626   1.503   0.699   3.060
 1147HOH      O 3627   0.742   1.121   2.789
 1147HOH     H1 3628   0.778   1.058   2.851
 1147HOH     H2 3629   0.730   1.071   2.709
 1148HOH      O 3630   1.060   0.185   1.851
 1148HOH     H1 3631   1.079   0.276   1.825
 1148HOH     H2 3632   1.013   0.148   1.777
 1149HOH      O 3633   3.600   0.696   1.973
 1149HOH     H1 3634   3.643   0.616   2.001
 1149HOH     H2 3635   3.601   0.692   1.877
 1150HOH      O 3636   3.857   3.570   1.108
 1150HOH     H1 3637   3.873   3.663   1.092
 1150HOH     H2 3638   3.935   3.539   1.153
 1151HOH      O 3639   0.280   1.085   2.828
 1151HOH     H1 3640   0.198   1.102   2.782
 1151HOH     H2 3641   0.255   1.030   2.902
 1152HOH      O 3642   1.525   3.277   2.626
 1152HOH     H1 3643   1.448   3.329   2.605
 1152HOH     H2 3644   1.549   3.234   2.544
 1153HOH      O 3645   1.687   2.693   0.972
 1153HOH     H1 3646   1.669   2.696   1.066
 1153HOH     H2 3647   1.601   2.702   0.931
 1154HOH      O 3648   0.758   2.032   2.119
 1154HOH     H1 3649   0.845   2.023   2.158
 1154HOH     H2 3650   0.764   2.112   2.066
 1155HOH      O 3651   0.093   4.006   1.953
 1155HOH     H1 3652   0.075   3.977   2.042
 1155HOH     H2 3653   0.080   3.928   1.899
 1156HOH      O 3654   3.890   3.584   0.682
 1156HOH     H1 3655   3.818   3.532   0.646
 1156HOH     H2 3656   3.968   3.530   0.667
 1157HOH      O 3657   0.917   0.765   3.134
 1157HOH     H1 3658   0.959   0.788   3.217
 1157HOH     H2 3659   0.987   0.725   3.082
 1158HOH      O 3660   0.608   3.008   2.934
 1158HOH     H1 3661   0.585   3.069   2.864
 1158HOH     H2 3662   0.532   2.952   2.943
 1159HOH      O 3663   2.601   3.291   1.148
 1159HOH     H1 3664   2.682   3.248   1.173
 1159HOH     H2 3665   2.572   3.336   1.228
 1160HOH      O 3666   2.968   1.647   3.481
 1160HOH     H1 3667   2.956   1.740   3.464
 1160HOH     H2 3668   2.972   1.640   3.577
 1161HOH      O 3669   0.798   1.187   0.676
 1161HOH     H1 3670   0.778   1.138   0.756
 1161HOH     H2 3671   0.892   1.178   0.665
 1162HOH      O 3672   2.550   2.975   1.455
 1162HOH     H1 3673   2.525   3.049   1.398
 1162HOH     H2 3674   2.503   2.900   1.418
 1163HOH      O 3675   2.434   2.485   3.810
 1163HOH     H1 3676   2.347   2.509   3.842
 1163HOH     H2 3677   2.475   2.568   3.788
 1164HOH      O 3678  -0.017   0.196   1.421
 1164HOH     H1 3679   0.033   0.152   1.353
 1164HOH     H2 3680   0.020   0.284   1.425
 1165HOH      O 3681   2.652   1.312   1.734
 1165HOH     H1 3682   2.729   1.295   1.680
 1165HOH     H2 3683   2.685   1.318   1.823
 1166HOH      O 3684   0.583   2.837   2.570
 1166HOH     H1 3685   0.631   2.756   2.587
 1166HOH     H2 3686   0.650   2.898   2.538
 1167HOH      O 3687   0.295   1.846   3.718
 1167HOH     H1 3688   0.200   1.840   3.707
 1167HOH     H2 3689   0.323   1.755   3.731
 1168HOH      O 3690   0.320   1.262   1.812
 1168HOH     H1 3691   0.395   1.321   1.810
 1168HOH     H2 3692   0.346   1.191   1.871
 1169HOH      O 3693   0.265   0.164   0.742
 1169HOH     H1 3694   0.272   0.192   0.651
 1169HOH     H2 3695   0.172   0.173   0.763
 1170HOH      O 3696   3.867   0.808   1.516
 1170HOH     H1 3697   3.783   0.849   1.496
 1170HOH     H2 3698   3.895   0.849   1.598
 1171HOH      O 3699   1.685   1.506   2.125
 1171HOH     H1 3700   1.685   1.495   2.030
 1171HOH     H2 3701   1.773   1.480   2.152
 1172HOH      O 3702   2.717   1.548   1.385
 1172HOH     H1 3703   2.784   1.616   1.371
 1172HOH     H2 3704   2.639   1.583   1.341
 1173HOH      O 3705   1.346   3.498   0.859
 1173HOH     H1 3706   1.282   3.498   0.789
 1173HOH     H2 3707   1.358   3.406   0.881
 1174HOH      O 3708   2.166   3.286   3.074
 1174HOH     H1 3709   2.134   3.233   3.147
 1174HOH     H2 3710   2.193   3.368   3.115
 1175HOH      O 3711   0.465   2.765   3.150
 1175HOH     H1 3712   0.486   2.691   3.093
 1175HOH     H2 3713   0.385   2.802   3.114
 1176HOH      O 3714   1.795   0.970   3.350
 1176HOH     H1 3715   1.856   1.042   3.360
 1176HOH     H2 3716   1.741   0.972   3.429
 1177HOH      O 3717   0.914   2.146   0.988
 1177HOH     H1 3718   0.957   2.107   1.064
 1177HOH     H2 3719   0.958   2.230   0.976
 1178HOH      O 3720   1.859   0.837   1.748
 1178HOH     H1 3721   1.924   0.868   1.811
 1178HOH     H2 3722   1.898   0.856   1.663
 1179HOH      O 3723   3.520   3.484   1.659
 1179HOH     H1 3724   3.441   3.534   1.638
 1179HOH     H2 3725   3.515   3.469   1.753
 1180HOH      O 3726   0.465   2.231   0.940
 1180HOH     H1 3727   0.392   2.280   0.901
 1180HOH     H2 3728   0.511   2.192   0.866
 1181HOH      O 3729   3.095   2.108   1.041
 1181HOH     H1 3730   3.136   2.152   0.966
 1181HOH     H2 3731   3.023   2.058   1.003
 1182HOH      O 3732   1.535   2.243   2.522
 1182HOH     H1 3733   1.618   2.289   2.519
 1182HOH     H2 3734   1.514   2.236   2.615
 1183HOH      O 3735   1.975   3.232   1.334
 1183HOH     H1 3736   1.882   3.224   1.312
 1183HOH     H2 3737   1.997   3.323   1.313
 1184HOH      O 3738   2.695   0.234   1.751
 1184HOH     H1 3739   2.639   0.284   1.691
 1184HOH     H2 3740   2.776   0.221   1.702
 1185HOH      O 3741   2.104   3.428   0.622
 1185HOH     H1 3742   2.180   3.415   0.565
 1185HOH     H2 3743   2.109   3.356   0.685
 1186HOH      O 3744   2.877   3.862   0.687
 1186HOH     H1 3745   2.828   3.805   0.748
 1186HOH     H2 3746   2.915   3.929   0.744
 1187HOH      O 3747   3.086   2.742   0.329
 1187HOH     H1 3748   3.007   2.710   0.372
 1187HOH     H2 3749   3.061   2.825   0.290
 1188HOH      O 3750   2.909   3.973   1.112
 1188HOH     H1 3751   2.815   3.953   1.117
 1188HOH     H2 3752   2.949   3.915   1.177
 1189HOH      O 3753   2.506   1.222   2.373
 1189HOH     H1 3754   2.584   1.243   2.425
 1189HOH     H2 3755   2.513   1.278   2.296
 1190HOH      O 3756   1.634   3.561   0.115
 1190HOH     H1 3757   1.672   3.571   0.202
 1190HOH     H2 3758   1.540   3.573   0.128
 1191HOH      O 3759   1.959   3.925   2.047
 1191HOH     H1 3760   1.931   3.844   2.003
 1191HOH     H2 3761   1.972   3.987   1.976
 1192HOH      O 3762   0.292   2.710   1.740
 1192HOH     H1 3763   0.292   2.710   1.836
 1192HOH     H2 3764   0.288   2.617   1.716
 1193HOH      O 3765   3.808   1.125   1.412
 1193HOH     H1 3766   3.739   1.110   1.347
 1193HOH     H2 3767   3.767   1.181   1.478
 1194HOH      O 3768   2.384   3.803   2.617
 1194HOH     H1 3769   2.439   3.858   2.561
 1194HOH     H2 3770   2.427   3.804   2.702
 1195HOH      O 3771   1.318   0.044   3.956
 1195HOH     H1 3772   1.237   0.055   3.906
 1195HOH     H2 3773   1.357   0.132   3.957
 1196HOH      O 3774   3.720   2.344   1.844
 1196HOH     H1 3775   3.698   2.251   1.838
 1196HOH     H2 3776   3.804   2.353   1.799
 1197HOH      O 3777   1.606   0.194   1.292
 1197HOH     H1 3778   1.690   0.157   1.322
 1197HOH     H2 3779   1.611   0.286   1.317
 1198HOH      O 3780   1.470   0.697   2.704
 1198HOH     H1 3781   1.515   0.637   2.644
 1198HOH     H2 3782   1.407   0.641   2.749
 1199HOH      O 3783   3.521   3.336   2.211
 1199HOH     H1 3784   3.427   3.338   2.229
 1199HOH     H2 3785   3.549   3.249   2.240
 1200HOH      O 3786   0.897   3.587   1.528
 1200HOH     H1 3787   0.898   3.653   1.597
 1200HOH     H2 3788   0.923   3.633   1.449
 1201HOH      O 3789   3.003   1.076   3.387
 1201HOH     H1 3790   3.034   0.995   3.347
 1201HOH     H2 3791   2.926   1.101   3.336
 1202HOH      O 3792   0.233   2.399   0.479
 1202HOH     H1 3793   0.283   2.333   0.431
 1202HOH     H2 3794   0.240   2.478   0.426
 1203HOH      O 3795   1.796   1.343   3.400
 1203HOH     H1 3796   1.872   1.290   3.425
 1203HOH     H2 3797   1.808   1.360   3.307
 1204HOH      O 3798   1.650   3.111   3.376
 1204HOH     H1 3799   1.653   3.165   3.296
 1204HOH     H2 3800   1.734   3.065   3.377
 1205HOH      O 3801   2.818   1.641   2.812
 1205HOH     H1 3802   2.881   1.708   2.784
 1205HOH     H2 3803   2.788   1.600   2.731
 1206HOH      O 3804   1.216   3.150   1.932
 1206HOH     H1 3805   1.210   3.215   2.003
 1206HOH     H2 3806   1.308   3.151   1.907
 1207HOH      O 3807   2.276   2.104   0.236
 1207HOH     H1 3808   2.258   2.099   0.142
 1207HOH     H2 3809   2.192   2.085   0.278
 1208HOH      O 3810   2.650   1.273   0.497
 1208HOH     H1 3811   2.723   1.256   0.556
 1208HOH     H2 3812   2.581   1.214   0.527
 1209HOH      O 3813   0.686   0.737   3.733
 1209HOH     H1 3814   0.780   0.729   3.721
 1209HOH     H2 3815   0.658   0.652   3.767
 1210HOH      O 3816   3.446   3.083   3.135
 1210HOH     H1 3817   3.450   2.997   3.176
 1210HOH     H2 3818   3.357   3.115   3.154
 1211HOH      O 3819   0.302   1.759   2.295
 1211HOH     H1 3820   0.348   1.697   2.351
 1211HOH     H2 3821   0.234   1.797   2.351
 1212HOH      O 3822   3.697   2.675   1.077
 1212HOH     H1 3823   3.716   2.582   1.085
 1212HOH     H2 3824   3.626   2.680   1.013
 1213HOH      O 3825   3.084   0.228   2.636
 1213HOH     H1 3826   3.088   0.224   2.731
 1213HOH     H2 3827   3.052   0.316   2.617
 1214HOH      O 3828   2.070   0.513   0.433
 1214HOH     H1 3829   2.108   0.447   0.492
 1214HOH     H2 3830   2.003   0.556   0.487
 1215HOH      O 3831   3.997   1.680   2.516
 1215HOH     H1 3832   3.927   1.656   2.455
 1215HOH     H2 3833   4.054   1.603   2.519
 1216HOH      O 3834   4.040   2.911   1.684
 1216HOH     H1 3835   3.974   2.900   1.752
 1216HOH     H2 3836   4.044   2.826   1.640
 1217HOH      O 3837   1.517   2.595   1.689
 1217HOH     H1 3838   1.430   2.636   1.697
 1217HOH     H2 3839   1.506   2.509   1.728
 1218HOH      O 3840   0.633   1.270   0.150
 1218HOH     H1 3841   0.594   1.306   0.229
 1218HOH     H2 3842   0.577   1.195   0.127
 1219HOH      O 3843   1.416   2.640   2.686
 1219HOH     H1 3844   1.383   2.608   2.770
 1219HOH     H2 3845   1.355   2.711   2.662
 1220HOH      O 3846   1.778   3.462   1.672
 1220HOH     H1 3847   1.756   3.453   1.765
 1220HOH     H2 3848   1.842   3.393   1.655
 1221HOH      O 3849   2.618   0.243   0.369
 1221HOH     H1 3850   2.708   0.254   0.339
 1221HOH     H2 3851   2.565   0.276   0.297
 1222HOH      O 3852   0.854   0.986  -0.007
 1222HOH     H1 3853   0.937   0.979  -0.055
 1222HOH     H2 3854   0.880   0.986   0.086
 1223HOH      O 3855   0.168   0.490   0.522
 1223HOH     H1 3856   0.130   0.554   0.583
 1223HOH     H2 3857   0.234   0.539   0.473
 1224HOH      O 3858   2.446   0.735   1.800
 1224HOH     H1 3859   2.430   0.779   1.883
 1224HOH     H2 3860   2.489   0.801   1.746
 1225HOH      O 3861   3.836   1.313   1.060
 1225HOH     H1 3862   3.890   1.353   1.128
 1225HOH     H2 3863   3.746   1.337   1.084
 1226HOH      O 3864   0.920   2.311   0.398
 1226HOH     H1 3865   0.900   2.316   0.491
 1226HOH     H2 3866   0.891   2.395   0.363
 1227HOH      O 3867   1.734   2.773   2.230
 1227HOH     H1 3868   1.651   2.807   2.262
 1227HOH     H2 3869   1.770   2.842   2.175
 1228HOH      O 3870   1.388   1.041   1.945
 1228HOH     H1 3871   1.483   1.040   1.955
 1228HOH     H2 3872   1.360   1.123   1.986
 1229HOH      O 3873   2.521   0.001   1.444
 1229HOH     H1 3874   2.572   0.066   1.492
 1229HOH     H2 3875   2.555   0.004   1.355
 1230HOH      O 3876   1.623   2.587   3.321
 1230HOH     H1 3877   1.555   2.617   3.381
 1230HOH     H2 3878   1.704   2.623   3.357
 1231HOH      O 3879   3.955   1.273   0.803
 1231HOH     H1 3880   3.899   1.249   0.877
 1231HOH     H2 3881   3.941   1.204   0.738
 1232HOH      O 3882   2.133   0.952   2.229
 1232HOH     H1 3883   2.098   0.899   2.301
 1232HOH     H2 3884   2.149   1.038   2.268
 1233HOH      O 3885   0.117   0.437   1.396
 1233HOH     H1 3886   0.207   0.462   1.377
 1233HOH     H2 3887   0.106   0.455   1.490
 1234HOH      O 3888   2.571   0.257   1.043
 1234HOH     H1 3889   2.636   0.236   0.976
 1234HOH     H2 3890   2.489   0.265   0.995
 1235HOH      O 3891   3.779   2.453   3.768
 1235HOH     H1 3892   3.869   2.425   3.754
 1235HOH     H2 3893   3.726   2.391   3.718
 1236HOH      O 3894   0.457   1.982   3.083
 1236HOH     H1 3895   0.452   1.891   3.112
 1236HOH     H2 3896   0.368   2.016   3.096
 1237HOH      O 3897   1.340   1.060   1.139
 1237HOH     H1 3898   1.285   1.135   1.116
 1237HOH     H2 3899   1.316   0.993   1.075
 1238HOH      O 3900   0.545   2.499   0.398
 1238HOH     H1 3901   0.620   2.481   0.341
 1238HOH     H2 3902   0.502   2.415   0.408
 1239HOH      O 3903   1.461   0.102   2.419
 1239HOH     H1 3904   1.370   0.120   2.441
 1239HOH     H2 3905   1.511   0.167   2.467
 1240HOH      O 3906   0.511   0.872   3.526
 1240HOH     H1 3907   0.565   0.950   3.539
 1240HOH     H2 3908   0.567   0.811   3.479
 1241HOH      O 3909   1.922   0.465   1.030
 1241HOH     H1 3910   1.853   0.484   0.967
 1241HOH     H2 3911   1.891   0.389   1.079
 1242HOH      O 3912   0.560   2.584   2.953
 1242HOH     H1 3913   0.635   2.533   2.923
 1242HOH     H2 3914   0.486   2.549   2.903
 1243HOH      O 3915   1.518   3.005   0.090
 1243HOH     H1 3916   1.575   3.072   0.053
 1243HOH     H2 3917   1.572   2.960   0.155
 1244HOH      O 3918   0.796   3.238   2.308
 1244HOH     H1 3919   0.846   3.178   2.252
 1244HOH     H2 3920   0.757   3.301   2.247
 1245HOH      O 3921   0.748   1.485   1.222
 1245HOH     H1 3922   0.758   1.479   1.318
 1245HOH     H2 3923   0.769   1.577   1.202
 1246HOH      O 3924   2.013   0.993   3.058
 1246HOH     H1 3925   2.063   1.008   3.138
 1246HOH     H2 3926   2.058   1.044   2.991
 1247HOH      O 3927   0.233   3.460   3.823
 1247HOH     H1 3928   0.288   3.490   3.896
 1247HOH     H2 3929   0.223   3.537   3.767
 1248HOH      O 3930   0.311   2.091   2.840
 1248HOH     H1 3931   0.366   2.032   2.891
 1248HOH     H2 3932   0.237   2.037   2.813
 1249HOH      O 3933   3.318   0.326   0.497
 1249HOH     H1 3934   3.269   0.376   0.562
 1249HOH     H2 3935   3.251   0.274   0.452
 1250HOH      O 3936   1.462   2.678   0.712
 1250HOH     H1 3937   1.492   2.674   0.621
 1250HOH     H2 3938   1.450   2.586   0.736
 1251HOH      O 3939   1.212   2.919   0.270
 1251HOH     H1 3940   1.276   2.869   0.221
 1251HOH     H2 3941   1.168   2.973   0.205
 1252HOH      O 3942   1.772   1.918   3.055
 1252HOH     H1 3943   1.867   1.926   3.068
 1252HOH     H2 3944   1.753   1.974   2.981
 1253HOH      O 3945   1.229   2.939   2.138
 1253HOH     H1 3946   1.202   2.848   2.125
 1253HOH     H2 3947   1.181   2.988   2.071
 1254HOH      O 3948   3.910   1.843   2.152
 1254HOH     H1 3949   3.973   1.914   2.136
 1254HOH     H2 3950   3.887   1.811   2.065
 1255HOH      O 3951   0.655   2.447   1.688
 1255HOH     H1 3952   0.744   2.473   1.711
 1255HOH     H2 3953   0.663   2.401   1.605
 1256HOH      O 3954   2.578   0.611   0.896
 1256HOH     H1 3955   2.671   0.630   0.908
 1256HOH     H2 3956   2.574   0.516   0.886
 1257HOH      O 3957   0.336   1.290   0.878
 1257HOH     H1 3958   0.274   1.252   0.940
 1257HOH     H2 3959   0.421   1.252   0.901
 1258HOH      O 3960   2.580   3.420   2.977
 1258HOH     H1 3961   2.660   3.370   2.990
 1258HOH     H2 3962   2.525   3.364   2.922
 1259HOH      O 3963   1.163   2.793   0.635
 1259HOH     H1 3964   1.248   2.798   0.593
 1259HOH     H2 3965   1.101   2.827   0.570
 1260HOH      O 3966   4.008   2.272   0.148
 1260HOH     H1 3967   4.005   2.366   0.161
 1260HOH     H2 3968   3.916   2.244   0.149
 1261HOH      O 3969   0.086   0.248   1.894
 1261HOH     H1 3970   0.105   0.162   1.932
 1261HOH     H2 3971   0.103   0.310   1.966
 1262HOH      O 3972   3.505   1.679   2.694
 1262HOH     H1 3973   3.542   1.646   2.612
 1262HOH     H2 3974   3.536   1.770   2.698
 1263HOH      O 3975   3.754   3.913   1.606
 1263HOH     H1 3976   3.753   3.825   1.642
 1263HOH     H2 3977   3.832   3.954   1.644
 1264HOH      O 3978   1.979   0.500   1.405
 1264HOH     H1 3979   2.063   0.462   1.430
 1264HOH     H2 3980   1.940   0.528   1.487
 1265HOH      O 3981   2.754   3.626   0.047
 1265HOH     H1 3982   2.758   3.684   0.124
 1265HOH     H2 3983   2.661   3.624   0.024
 1266HOH      O 3984   2.491   0.105   3.893
 1266HOH     H1 3985   2.451   0.075   3.811
 1266HOH     H2 3986   2.557   0.039   3.913
 1267HOH      O 3987   3.042   1.803   0.501
 1267HOH     H1 3988   3.120   1.836   0.456
 1267HOH     H2 3989   3.020   1.871   0.565
 1268HOH      O 3990   1.530   1.635   1.521
 1268HOH     H1 3991   1.588   1.560   1.532
 1268HOH     H2 3992   1.588   1.706   1.493
 1269HOH      O 3993   1.613   1.722   3.089
 1269HOH     H1 3994   1.672   1.796   3.076
 1269HOH     H2 3995   1.645   1.655   3.027
 1270HOH      O 3996   3.061   1.377   0.334
 1270HOH     H1 3997   3.108   1.311   0.284
 1270HOH     H2 3998   3.009   1.425   0.269
 1271HOH      O 3999   0.471   3.885   3.250
 1271HOH     H1 4000   0.489   3.844   3.165
 1271HOH     H2 4001   0.390   3.844   3.279
 1272HOH      O 4002   1.164   0.310   3.469
 1272HOH     H1 4003   1.185   0.307   3.376
 1272HOH     H2 4004   1.085   0.363   3.475
 1273HOH      O 4005   1.984   0.371   0.196
 1273HOH     H1 4006   2.034   0.291   0.206
 1273HOH     H2 4007   2.048   0.441   0.205
 1274HOH      O 4008   2.461   1.637   1.257
 1274HOH     H1 4009   2.372   1.640   1.292
 1274HOH     H2 4010   2.462   1.558   1.203
 1275HOH      O 4011   1.745   2.915   1.616
 1275HOH     H1 4012   1.767   3.005   1.639
 1275HOH     H2 4013   1.753   2.913   1.520
 1276HOH      O 4014   1.981   0.816   2.393
 1276HOH     H1 4015   1.911   0.802   2.329
 1276HOH     H2 4016   1.938   0.860   2.466
 1277HOH      O 4017   3.936   1.336   2.369
 1277HOH     H1 4018   3.889   1.404   2.320
 1277HOH     H2 4019   3.997   1.384   2.424
 1278HOH      O 4020   2.733   1.909   1.694
 1278HOH     H1 4021   2.638   1.893   1.691
 1278HOH     H2 4022   2.741   1.999   1.724
 1279HOH      O 4023   0.288   2.485   1.273
 1279HOH     H1 4024   0.208   2.510   1.226
 1279HOH     H2 4025   0.271   2.396   1.304
 1280HOH      O 4026   1.336   2.657   0.440
 1280HOH     H1 4027   1.369   2.572   0.412
 1280HOH     H2 4028   1.352   2.715   0.365
 1281HOH      O 4029   3.713   2.984   2.743
 1281HOH     H1 4030   3.779   3.053   2.750
 1281HOH     H2 4031   3.730   2.944   2.657
 1282HOH      O 4032   2.320   3.624   1.167
 1282HOH     H1 4033   2.264   3.702   1.177
 1282HOH     H2 4034   2.271   3.567   1.107
 1283HOH      O 4035   1.480   3.855   3.991
 1283HOH     H1 4036   1.406   3.914   3.976
 1283HOH     H2 4037   1.510   3.832   3.903
 1284HOH      O 4038   0.880   2.524   3.471
 1284HOH     H1 4039   0.850   2.433   3.467
 1284HOH     H2 4040   0.904   2.538   3.563
 1285HOH      O 4041   2.827   3.078   1.236
 1285HOH     H1 4042   2.847   2.988   1.261
 1285HOH     H2 4043   2.836   3.128   1.317
 1286HOH      O 4044   2.792   0.344   2.359
 1286HOH     H1 4045   2.765   0.423   2.406
 1286HOH     H2 4046   2.860   0.374   2.298
 1287HOH      O 4047   3.122   1.352   1.358
 1287HOH     H1 4048   3.064   1.364   1.283
 1287HOH     H2 4049   3.192   1.416   1.344
 1288HOH      O 4050   0.702   0.525   2.802
 1288HOH     H1 4051   0.681   0.440   2.839
 1288HOH     H2 4052   0.656   0.527   2.718
 1289HOH      O 4053   3.586   3.365   3.305
 1289HOH     H1 4054   3.579   3.295   3.240
 1289HOH     H2 4055   3.496   3.398   3.314
 1290HOH      O 4056   3.753   3.465   3.763
 1290HOH     H1 4057   3.835   3.420   3.740
 1290HOH     H2 4058   3.724   3.504   3.680
 1291HOH      O 4059   1.605   1.299   2.676
 1291HOH     H1 4060   1.681   1.254   2.639
 1291HOH     H2 4061   1.554   1.229   2.717
 1292HOH      O 4062   1.655   1.000   3.561
 1292HOH     H1 4063   1.559   1.011   3.562
 1292HOH     H2 4064   1.686   1.058   3.630
 1293HOH      O 4065   2.403   2.535   1.605
 1293HOH     H1 4066   2.376   2.443   1.602
 1293HOH     H2 4067   2.395   2.559   1.697
 1294HOH      O 4068   1.897   0.529   3.292
 1294HOH     H1 4069   1.932   0.467   3.228
 1294HOH     H2 4070   1.947   0.609   3.279
 1295HOH      O 4071  -0.008   1.751   0.553
 1295HOH     H1 4072   0.080   1.780   0.528
 1295HOH     H2 4073   0.006   1.666   0.595
 1296HOH      O 4074   3.675   0.172   3.907
 1296HOH     H1 4075   3.738   0.190   3.838
 1296HOH     H2 4076   3.658   0.257   3.947
 1297HOH      O 4077   3.047   0.585   1.384
 1297HOH     H1 4078   3.044   0.663   1.440
 1297HOH     H2 4079   3.129   0.541   1.409
 1298HOH      O 4080   0.014   1.116   3.268
 1298HOH     H1 4081  -0.018   1.060   3.197
 1298HOH     H2 4082   0.069   1.182   3.224
 1299HOH      O 4083   2.398   0.802   2.081
 1299HOH     H1 4084   2.434   0.726   2.127
 1299HOH     H2 4085   2.312   0.816   2.122
 1300HOH      O 4086   1.294   0.650   3.349
 1300HOH     H1 4087   1.314   0.740   3.323
 1300HOH     H2 4088   1.201   0.651   3.370
 1301HOH      O 4089   0.846   0.282   2.987
 1301HOH     H1 4090   0.889   0.299   3.071
 1301HOH     H2 4091   0.911   0.232   2.937
 1302HOH      O 4092   0.026   0.238   0.272
 1302HOH     H1 4093   0.105   0.191   0.244
 1302HOH     H2 4094   0.022   0.224   0.366
 1303HOH      O 4095   2.215   2.968   0.021
 1303HOH     H1 4096   2.257   2.905   0.081
 1303HOH     H2 4097   2.247   2.943  -0.066
 1304HOH      O 4098   0.201   3.042   2.648
 1304HOH     H1 4099   0.253   3.093   2.711
 1304HOH     H2 4100   0.216   2.951   2.672
 1305HOH      O 4101   2.276   3.103   1.660
 1305HOH     H1 4102   2.330   3.025   1.670
 1305HOH     H2 4103   2.337   3.176   1.671
 1306HOH      O 4104   3.660   3.609   3.537
 1306HOH     H1 4105   3.616   3.594   3.454
 1306HOH     H2 4106   3.708   3.691   3.525
 1307HOH      O 4107   3.132   2.960   0.169
 1307HOH     H1 4108   3.214   2.918   0.143
 1307HOH     H2 4109   3.089   2.981   0.086
 1308HOH      O 4110   1.401   1.968   3.507
 1308HOH     H1 4111   1.473   1.986   3.446
 1308HOH     H2 4112   1.393   1.873   3.507
 1309HOH      O 4113   2.703   3.527   2.359
 1309HOH     H1 4114   2.618   3.562   2.334
 1309HOH     H2 4115   2.687   3.435   2.378
 1310HOH      O 4116   1.664   0.300   2.506
 1310HOH     H1 4117   1.748   0.274   2.545
 1310HOH     H2 4118   1.680   0.388   2.472
 1311HOH      O 4119   1.514   0.843   0.245
 1311HOH     H1 4120   1.461   0.765   0.228
 1311HOH     H2 4121   1.463   0.893   0.308
 1312HOH      O 4122   1.628   0.869   1.052
 1312HOH     H1 4123   1.638   0.855   1.146
 1312HOH     H2 4124   1.713   0.845   1.015
 1313HOH      O 4125   2.160   0.782   0.324
 1313HOH     H1 4126   2.208   0.705   0.294
 1313HOH     H2 4127   2.108   0.750   0.398
 1314HOH      O 4128   3.901   3.983   1.322
 1314HOH     H1 4129   3.968   3.933   1.371
 1314HOH     H2 4130   3.898   4.068   1.366
 1315HOH      O 4131   3.682   3.473   0.297
 1315HOH     H1 4132   3.622   3.473   0.223
 1315HOH     H2 4133   3.757   3.421   0.268
 1316HOH      O 4134   2.130   3.831   1.173
 1316HOH     H1 4135   2.050   3.779   1.161
 1316HOH     H2 4136   2.122   3.867   1.261
 1317HOH      O 4137   0.752   2.467   0.229
 1317HOH     H1 4138   0.778   2.406   0.160
 1317HOH     H2 4139   0.766   2.553   0.190
 1318HOH      O 4140   1.957   3.889   3.067
 1318HOH     H1 4141   1.878   3.928   3.105
 1318HOH     H2 4142   1.928   3.804   3.035
 1319HOH      O 4143   3.331   0.518   1.469
 1319HOH     H1 4144   3.345   0.469   1.549
 1319HOH     H2 4145   3.338   0.610   1.495
 1320HOH      O 4146   3.444   2.784   2.160
 1320HOH     H1 4147   3.522   2.757   2.207
 1320HOH     H2 4148   3.375   2.725   2.191
 1321HOH      O 4149   1.367   2.994   2.767
 1321HOH     H1 4150   1.355   3.087   2.751
 1321HOH     H2 4151   1.353   2.984   2.861
 1322HOH      O 4152   3.928   0.681   2.305
 1322HOH     H1 4153   3.978   0.735   2.244
 1322HOH     H2 4154   3.984   0.671   2.382
 1323HOH      O 4155   3.673   3.232   0.095
 1323HOH     H1 4156   3.631   3.176   0.029
 1323HOH     H2 4157   3.701   3.309   0.047
 1324HOH      O 4158   2.575   1.658   2.093
 1324HOH     H1 4159   2.487   1.687   2.116
 1324HOH     H2 4160   2.569   1.633   2.001
 1325HOH      O 4161   0.880   2.585   1.760
 1325HOH     H1 4162   0.962   2.617   1.796
 1325HOH     H2 4163   0.823   2.662   1.758
 1326HOH      O 4164   3.155   3.828   1.540
 1326HOH     H1 4165   3.163   3.924   1.538
 1326HOH     H2 4166   3.060   3.813   1.535
 1327HOH      O 4167   3.730   3.502   2.307
 1327HOH     H1 4168   3.663   3.451   2.262
 1327HOH     H2 4169   3.714   3.485   2.400
 1328HOH      O 4170   3.013   3.068   3.952
 1328HOH     H1 4171   2.931   3.041   3.911
 1328HOH     H2 4172   2.992   3.149   3.998
 1329HOH      O 4173   2.049   0.873   1.979
 1329HOH     H1 4174   2.091   0.940   1.925
 1329HOH     H2 4175   2.060   0.904   2.068
 1330HOH      O 4176   2.407   3.034   0.921
 1330HOH     H1 4177   2.314   3.050   0.910
 1330HOH     H2 4178   2.420   3.034   1.016
 1331HOH      O 4179   1.828   2.306   3.095
 1331HOH     H1 4180   1.910   2.338   3.132
 1331HOH     H2 4181   1.802   2.235   3.153
 1332HOH      O 4182   1.055   2.801   1.452
 1332HOH     H1 4183   1.018   2.833   1.370
 1332HOH     H2 4184   0.985   2.813   1.516
 1333HOH      O 4185   1.615   2.658   2.503
 1333HOH     H1 4186   1.584   2.740   2.463
 1333HOH     H2 4187   1.541   2.627   2.555
 1334HOH      O 4188   1.533   3.171   2.936
 1334HOH     H1 4189   1.437   3.166   2.943
 1334HOH     H2 4190   1.564   3.098   2.990
 1335HOH      O 4191   2.844   3.370   0.455
 1335HOH     H1 4192   2.751   3.351   0.443
 1335HOH     H2 4193   2.847   3.424   0.534
 1336HOH      O 4194   3.464   0.489   1.203
 1336HOH     H1 4195   3.415   0.509   1.283
 1336HOH     H2 4196   3.538   0.436   1.233
 1337HOH      O 4197   0.084   0.000   3.472
 1337HOH     H1 4198   0.118   0.050   3.397
 1337HOH     H2 4199   0.096   0.058   3.547
 1338HOH      O 4200   0.647   3.572   1.880
 1338HOH     H1 4201   0.619   3.598   1.968
 1338HOH     H2 4202   0.734   3.612   1.871
 1339HOH      O 4203   1.061   1.657   0.642
 1339HOH     H1 4204   1.125   1.606   0.593
 1339HOH     H2 4205   1.026   1.719   0.578
 1340HOH      O 4206   1.446   3.145   1.337
 1340HOH     H1 4207   1.400   3.229   1.342
 1340HOH     H2 4208   1.506   3.146   1.411
 1341HOH      O 4209   0.453   3.973   1.304
 1341HOH     H1 4210   0.419   4.005   1.388
 1341HOH     H2 4211   0.395   3.901   1.280
 1342HOH      O 4212   0.763   1.955   0.282
 1342HOH     H1 4213   0.732   2.042   0.308
 1342HOH     H2 4214   0.809   1.970   0.200
 1343HOH      O 4215   0.304   2.657   0.264
 1343HOH     H1 4216   0.391   2.634   0.296
 1343HOH     H2 4217   0.318   2.676   0.171
 1344HOH      O 4218   1.899   2.653   3.478
 1344HOH     H1 4219   1.981   2.682   3.518
 1344HOH     H2 4220   1.835   2.660   3.548
 1345HOH      O 4221   1.823   3.923   1.227
 1345HOH     H1 4222   1.861   3.836   1.212
 1345HOH     H2 4223   1.797   3.921   1.319
 1346HOH      O 4224   2.424   0.080   0.493
 1346HOH     H1 4225   2.492   0.137   0.456
 1346HOH     H2 4226   2.472   0.021   0.551
 1347HOH      O 4227   3.864   1.604   0.840
 1347HOH     H1 4228   3.910   1.604   0.756
 1347HOH     H2 4229   3.851   1.511   0.860
 1348HOH      O 4230   1.091   2.430   1.627
 1348HOH     H1 4231   1.013   2.482   1.646
 1348HOH     H2 4232   1.097   2.431   1.531
 1349HOH      O 4233   3.011   2.832   0.690
 1349HOH     H1 4234   3.009   2.809   0.783
 1349HOH     H2 4235   2.949   2.772   0.650
 1350HOH      O 4236   1.880   3.217   1.594
 1350HOH     H1 4237   1.935   3.212   1.516
 1350HOH     H2 4238   1.937   3.187   1.665
 1351HOH      O 4239   3.984   0.692   1.291
 1351HOH     H1 4240   4.028   0.618   1.334
 1351HOH     H2 4241   3.953   0.746   1.364
 1352HOH      O 4242   1.623   0.714   3.594
 1352HOH     H1 4243   1.604   0.797   3.638
 1352HOH     H2 4244   1.680   0.738   3.521
 1353HOH      O 4245   2.530   2.277   2.032
 1353HOH     H1 4246   2.582   2.333   1.975
 1353HOH     H2 4247   2.545   2.310   2.120
 1354HOH      O 4248   1.100   1.460   1.390
 1354HOH     H1 4249   1.164   1.390   1.379
 1354HOH     H2 4250   1.019   1.426   1.351
 1355HOH      O 4251   0.158   0.027   0.397
 1355HOH     H1 4252   0.088   0.045   0.459
 1355HOH     H2 4253   0.225   0.093   0.416
 1356HOH      O 4254   0.513   0.368   0.080
 1356HOH     H1 4255   0.448   0.350   0.011
 1356HOH     H2 4256   0.556   0.284   0.094
 1357HOH      O 4257   1.712   1.017   2.981
 1357HOH     H1 4258   1.781   0.992   3.042
 1357HOH     H2 4259   1.703   1.112   2.992
 1358HOH      O 4260   3.672   1.545   2.048
 1358HOH     H1 4261   3.591   1.591   2.071
 1358HOH     H2 4262   3.688   1.569   1.957
 1359HOH      O 4263   1.319   1.044   0.710
 1359HOH     H1 4264   1.388   1.109   0.721
 1359HOH     H2 4265   1.343   0.973   0.770
 1360HOH      O 4266   0.188   1.990   2.097
 1360HOH     H1 4267   0.277   2.011   2.069
 1360HOH     H2 4268   0.195   1.904   2.137
 1361HOH      O 4269   0.092   3.534   1.178
 1361HOH     H1 4270   0.117   3.539   1.085
 1361HOH     H2 4271   0.150   3.466   1.213
 1362HOH      O 4272   3.481   1.907   4.008
 1362HOH     H1 4273   3.544   1.842   4.041
 1362HOH     H2 4274   3.527   1.990   4.013
 1363HOH      O 4275   2.102   1.567   0.529
 1363HOH     H1 4276   2.060   1.583   0.614
 1363HOH     H2 4277   2.109   1.472   0.523
 1364HOH      O 4278   2.787   0.228   2.844
 1364HOH     H1 4279   2.747   0.313   2.826
 1364HOH     H2 4280   2.799   0.188   2.758
 1365HOH      O 4281   2.200   3.447   3.486
 1365HOH     H1 4282   2.227   3.359   3.512
 1365HOH     H2 4283   2.272   3.504   3.514
 1366HOH      O 4284   0.679   0.660   2.290
 1366HOH     H1 4285   0.616   0.724   2.258
 1366HOH     H2 4286   0.663   0.582   2.237
 1367HOH      O 4287   3.476   2.619   0.086
 1367HOH     H1 4288   3.556   2.612   0.033
 1367HOH     H2 4289   3.415   2.558   0.045
 1368HOH      O 4290   2.017   3.383   2.371
 1368HOH     H1 4291   2.065   3.427   2.442
 1368HOH     H2 4292   1.989   3.300   2.409
 1369HOH      O 4293   1.058   1.342   3.377
 1369HOH     H1 4294   1.015   1.400   3.440
 1369HOH     H2 4295   0.991   1.325   3.310
 1370HOH      O 4296   0.325   0.289   3.907
 1370HOH     H1 4297   0.376   0.250   3.836
 1370HOH     H2 4298   0.265   0.220   3.935
 1371HOH      O 4299   2.729   3.496   1.475
 1371HOH     H1 4300   2.747   3.561   1.543
 1371HOH     H2 4301   2.681   3.544   1.408
 1372HOH      O 4302   0.942   1.741   2.785
 1372HOH     H1 4303   0.936   1.803   2.858
 1372HOH     H2 4304   1.016   1.684   2.807
 1373HOH      O 4305   3.548   3.904   0.576
 1373HOH     H1 4306   3.581   3.854   0.501
 1373HOH     H2 4307   3.613   3.973   0.589
 1374HOH      O 4308   0.624   2.736   1.696
 1374HOH     H1 4309   0.529   2.747   1.688
 1374HOH     H2 4310   0.638   2.643   1.678
 1375HOH      O 4311   1.679   1.991   2.506
 1375HOH     H1 4312   1.709   2.050   2.437
 1375HOH     H2 4313   1.616   2.042   2.556
 1376HOH      O 4314   3.644   3.212   3.783
 1376HOH     H1 4315   3.621   3.304   3.796
 1376HOH     H2 4316   3.610   3.191   3.696
 1377HOH      O 4317   3.477   0.857   3.388
 1377HOH     H1 4318   3.521   0.848   3.304
 1377HOH     H2 4319   3.384   0.859   3.367
 1378HOH      O 4320   3.046   2.275   0.263
 1378HOH     H1 4321   3.114   2.332   0.228
 1378HOH     H2 4322   3.027   2.311   0.350
 1379HOH      O 4323   1.610   1.928   1.161
 1379HOH     H1 4324   1.590   1.897   1.073
 1379HOH     H2 4325   1.577   2.018   1.164
 1380HOH      O 4326   2.484   3.359   1.394
 1380HOH     H1 4327   2.399   3.380   1.435
 1380HOH     H2 4328   2.547   3.413   1.441
 1381HOH      O 4329   0.148   3.577   2.850
 1381HOH     H1 4330   0.078   3.519   2.822
 1381HOH     H2 4331   0.106   3.641   2.908
 1382HOH      O 4332   2.231   2.858   2.279
 1382HOH     H1 4333   2.301   2.797   2.303
 1382HOH     H2 4334   2.151   2.805   2.286
 1383HOH      O 4335   3.336   1.737   2.361
 1383HOH     H1 4336   3.352   1.700   2.274
 1383HOH     H2 4337   3.340   1.831   2.348
 1384HOH      O 4338   2.651   3.863   3.396
 1384HOH     H1 4339   2.569   3.907   3.377
 1384HOH     H2 4340   2.667   3.808   3.319
 1385HOH      O 4341   2.535   0.310   2.084
 1385HOH     H1 4342   2.598   0.241   2.066
 1385HOH     H2 4343   2.461   0.291   2.027
 1386HOH      O 4344   0.364   0.895   2.410
 1386HOH     H1 4345   0.378   0.801   2.394
 1386HOH     H2 4346   0.374   0.905   2.505
 1387HOH      O 4347   0.692   3.297   3.965
 1387HOH     H1 4348   0.710   3.390   3.956
 1387HOH     H2 4349   0.628   3.278   3.896
 1388HOH      O 4350   1.047   3.817   2.124
 1388HOH     H1 4351   1.114   3.882   2.105
 1388HOH     H2 4352   1.075   3.776   2.205
 1389HOH      O 4353   3.111   3.443   0.736
 1389HOH     H1 4354   3.051   3.496   0.682
 1389HOH     H2 4355   3.198   3.469   0.707
 1390HOH      O 4356   3.102   3.105   1.012
 1390HOH     H1 4357   3.022   3.157   1.022
 1390HOH     H2 4358   3.148   3.147   0.939
 1391HOH      O 4359   1.407   3.709   3.533
 1391HOH     H1 4360   1.432   3.634   3.586
 1391HOH     H2 4361   1.311   3.705   3.530
 1392HOH      O 4362   0.862   3.900   3.256
 1392HOH     H1 4363   0.809   3.861   3.327
 1392HOH     H2 4364   0.806   3.968   3.219
 1393HOH      O 4365   0.507   1.246   2.733
 1393HOH     H1 4366   0.598   1.226   2.755
 1393HOH     H2 4367   0.457   1.174   2.773
 1394HOH      O 4368   0.033   3.373   0.648
 1394HOH     H1 4369   0.033   3.345   0.556
 1394HOH     H2 4370  -0.026   3.312   0.692
 1395HOH      O 4371   1.713   0.064   0.702
 1395HOH     H1 4372   1.693   0.104   0.787
 1395HOH     H2 4373   1.639   0.005   0.686
 1396HOH      O 4374   0.115   2.674   2.461
 1396HOH     H1 4375   0.091   2.620   2.537
 1396HOH     H2 4376   0.184   2.732   2.494
 1397HOH      O 4377   1.021   2.773   3.061
 1397HOH     H1 4378   0.940   2.757   3.108
 1397HOH     H2 4379   1.073   2.829   3.119
 1398HOH      O 4380   1.726   3.029   0.269
 1398HOH     H1 4381   1.748   3.112   0.311
 1398HOH     H2 4382   1.808   2.998   0.232
 1399HOH      O 4383   3.476   3.730   0.245
 1399HOH     H1 4384   3.487   3.730   0.150
 1399HOH     H2 4385   3.566   3.725   0.279
 1400HOH      O 4386   1.931   3.231   2.025
 1400HOH     H1 4387   1.876   3.184   2.087
 1400HOH     H2 4388   1.922   3.182   1.943
 1401HOH      O 4389   1.701   2.474   2.784
 1401HOH     H1 4390   1.611   2.504   2.795
 1401HOH     H2 4391   1.713   2.470   2.689
 1402HOH      O 4392   2.963   1.066   3.056
 1402HOH     H1 4393   3.054   1.065   3.030
 1402HOH     H2 4394   2.919   1.118   2.989
 1403HOH      O 4395   0.974   3.553   0.092
 1403HOH     H1 4396   1.054   3.518   0.133
 1403HOH     H2 4397   1.006   3.617   0.028
 1404HOH      O 4398   0.932   1.682   3.205
 1404HOH     H1 4399   0.952   1.611   3.144
 1404HOH     H2 4400   1.017   1.710   3.239
 1405HOH      O 4401   0.049   1.166   1.429
 1405HOH     H1 4402   0.051   1.199   1.519
 1405HOH     H2 4403  -0.042   1.141   1.414
 1406HOH      O 4404   1.468   0.992   0.014
 1406HOH     H1 4405   1.409   1.062   0.043
 1406HOH     H2 4406   1.508   0.959   0.094
 1407HOH      O 4407   0.745   2.718   0.051
 1407HOH     H1 4408   0.706   2.793   0.096
 1407HOH     H2 4409   0.839   2.732   0.059
 1408HOH      O 4410   2.798   0.706   3.379
 1408HOH     H1 4411   2.795   0.769   3.452
 1408HOH     H2 4412   2.805   0.761   3.301
 1409HOH      O 4413   1.599   2.807   0.419
 1409HOH     H1 4414   1.629   2.727   0.375
 1409HOH     H2 4415   1.639   2.878   0.368
 1410HOH      O 4416   1.380   2.181   2.990
 1410HOH     H1 4417   1.430   2.200   3.069
 1410HOH     H2 4418   1.292   2.161   3.021
 1411HOH      O 4419   1.448   2.715   3.531
 1411HOH     H1 4420   1.432   2.682   3.620
 1411HOH     H2 4421   1.484   2.802   3.544
 1412HOH      O 4422   1.117   0.347   1.261
 1412HOH     H1 4423   1.192   0.299   1.297
 1412HOH     H2 4424   1.041   0.307   1.302
 1413HOH      O 4425   3.800   4.018   1.929
 1413HOH     H1 4426   3.844   4.080   1.987
 1413HOH     H2 4427   3.841   3.934   1.947
 1414HOH      O 4428   4.007   0.607   1.601
 1414HOH     H1 4429   3.949   0.668   1.556
 1414HOH     H2 4430   3.972   0.602   1.690
 1415HOH      O 4431   2.575   0.969   1.668
 1415HOH     H1 4432   2.639   1.004   1.730
 1415HOH     H2 4433   2.619   0.973   1.583
 1416HOH      O 4434   0.832   2.573   0.907
 1416HOH     H1 4435   0.906   2.571   0.846
 1416HOH     H2 4436   0.790   2.658   0.891
 1417HOH      O 4437   3.017   0.456   3.641
 1417HOH     H1 4438   3.095   0.431   3.591
 1417HOH     H2 4439   2.983   0.533   3.595
 1418HOH      O 4440   0.922   0.868   2.563
 1418HOH     H1 4441   0.833   0.902   2.579
 1418HOH     H2 4442   0.914   0.774   2.576
 1419HOH      O 4443   0.906   3.806   1.696
 1419HOH     H1 4444   0.957   3.774   1.770
 1419HOH     H2 4445   0.951   3.886   1.668
 1420HOH      O 4446   1.906   1.518   0.078
 1420HOH     H1 4447   1.998   1.500   0.056
 1420HOH     H2 4448   1.887   1.600   0.033
 1421HOH      O 4449   0.260   0.765   3.162
 1421HOH     H1 4450   0.186   0.707   3.182
 1421HOH     H2 4451   0.335   0.725   3.205
 1422HOH      O 4452   0.710   1.672   2.680
 1422HOH     H1 4453   0.672   1.640   2.762
 1422HOH     H2 4454   0.795   1.707   2.705
 1423HOH      O 4455   0.612   0.509   3.848
 1423HOH     H1 4456   0.544   0.536   3.910
 1423HOH     H2 4457   0.674   0.459   3.901
 1424HOH      O 4458   1.084   0.434   1.769
 1424HOH     H1 4459   1.053   0.517   1.808
 1424HOH     H2 4460   1.159   0.459   1.715
 1425HOH      O 4461   1.006   2.105   1.244
 1425HOH     H1 4462   0.951   2.060   1.308
 1425HOH     H2 4463   1.083   2.048   1.235
 1426HOH      O 4464   1.933   2.090   0.680
 1426HOH     H1 4465   1.941   2.177   0.641
 1426HOH     H2 4466   2.023   2.060   0.690
 1427HOH      O 4467   0.468   1.820   0.962
 1427HOH     H1 4468   0.462   1.796   0.870
 1427HOH     H2 4469   0.466   1.916   0.962
 1428HOH      O 4470   2.902   3.270   1.061
 1428HOH     H1 4471   2.927   3.335   1.126
 1428HOH     H2 4472   2.856   3.203   1.111
 1429HOH      O 4473   1.417   1.373   1.166
 1429HOH     H1 4474   1.486   1.335   1.220
 1429HOH     H2 4475   1.455   1.377   1.078
 1430HOH      O 4476   0.870   3.425   0.418
 1430HOH     H1 4477   0.867   3.412   0.324
 1430HOH     H2 4478   0.937   3.492   0.431
 1431HOH      O 4479   3.178   1.319   0.735
 1431HOH     H1 4480   3.108   1.263   0.767
 1431HOH     H2 4481   3.136   1.374   0.669
 1432HOH      O 4482   3.504   0.795   3.696
 1432HOH     H1 4483   3.463   0.709   3.681
 1432HOH     H2 4484   3.536   0.821   3.610
 1433HOH      O 4485   2.441   3.197   0.168
 1433HOH     H1 4486   2.378   3.203   0.240
 1433HOH     H2 4487   2.504   3.266   0.187
 1434HOH      O 4488   0.446   0.619   2.997
 1434HOH     H1 4489   0.422   0.529   2.977
 1434HOH     H2 4490   0.533   0.612   3.037
 1435HOH      O 4491   0.561   1.272   1.579
 1435HOH     H1 4492   0.478   1.285   1.533
 1435HOH     H2 4493   0.545   1.303   1.668
 1436HOH      O 4494   0.531   0.203   2.225
 1436HOH     H1 4495   0.458   0.189   2.165
 1436HOH     H2 4496   0.497   0.178   2.311
 1437HOH      O 4497   1.840   3.442   2.721
 1437HOH     H1 4498   1.885   3.360   2.700
 1437HOH     H2 4499   1.877   3.468   2.805
 1438HOH      O 4500   3.893   2.314   0.868
 1438HOH     H1 4501   3.800   2.328   0.888
 1438HOH     H2 4502   3.919   2.391   0.817
 1439HOH      O 4503   0.831   1.713   0.837
 1439HOH     H1 4504   0.767   1.642   0.844
 1439HOH     H2 4505   0.894   1.683   0.773
 1440HOH      O 4506   1.161   3.987   2.407
 1440HOH     H1 4507   1.072   4.004   2.375
 1440HOH     H2 4508   1.186   4.069   2.450
 1441HOH      O 4509   1.367   2.678   3.824
 1441HOH     H1 4510   1.284   2.661   3.869
 1441HOH     H2 4511   1.421   2.602   3.846
 1442HOH      O 4512   3.300   2.823   0.924
 1442HOH     H1 4513   3.359   2.825   0.999
 1442HOH     H2 4514   3.214   2.806   0.961
 1443HOH      O 4515   0.567   0.233   2.877
 1443HOH     H1 4516   0.645   0.178   2.879
 1443HOH     H2 4517   0.535   0.227   2.787
 1444HOH      O 4518   0.798   3.314   2.857
 1444HOH     H1 4519   0.837   3.252   2.918
 1444HOH     H2 4520   0.718   3.272   2.827
 1445HOH      O 4521   2.737   3.627   0.772
 1445HOH     H1 4522   2.792   3.559   0.733
 1445HOH     H2 4523   2.648   3.605   0.747
 1446HOH      O 4524   3.895   2.818   0.797
 1446HOH     H1 4525   3.877   2.871   0.875
 1446HOH     H2 4526   3.974   2.769   0.819
 1447HOH      O 4527   1.761   3.522   1.969
 1447HOH     H1 4528   1.684   3.579   1.971
 1447HOH     H2 4529   1.756   3.471   2.050
 1448HOH      O 4530   3.906   2.109   3.505
 1448HOH     H1 4531   3.849   2.046   3.549
 1448HOH     H2 4532   3.875   2.195   3.534
 1449HOH      O 4533   2.676   2.358   3.775
 1449HOH     H1 4534   2.592   2.403   3.788
 1449HOH     H2 4535   2.688   2.357   3.680
 1450HOH      O 4536   1.774   2.957   1.986
 1450HOH     H1 4537   1.721   2.922   1.915
 1450HOH     H2 4538   1.710   2.994   2.048
 1451HOH      O 4539   2.358   0.336   2.676
 1451HOH     H1 4540   2.265   0.319   2.688
 1451HOH     H2 4541   2.390   0.358   2.763
 1452HOH      O 4542   1.599   3.187   1.543
 1452HOH     H1 4543   1.691   3.214   1.549
 1452HOH     H2 4544   1.557   3.229   1.618
 1453HOH      O 4545   0.644   0.565   0.539
 1453HOH     H1 4546   0.732   0.560   0.577
 1453HOH     H2 4547   0.591   0.605   0.608
 1454HOH      O 4548   3.921   1.735   3.513
 1454HOH     H1 4549   3.990   1.677   3.483
 1454HOH     H2 4550   3.850   1.724   3.450
 1455HOH      O 4551   2.940   1.407   1.159
 1455HOH     H1 4552   2.887   1.482   1.133
 1455HOH     H2 4553   2.877   1.335   1.165
 1456HOH      O 4554   0.349   3.392   1.254
 1456HOH     H1 4555   0.298   3.377   1.333
 1456HOH     H2 4556   0.440   3.397   1.284
 1457HOH      O 4557   0.587   2.011   2.624
 1457HOH     H1 4558   0.580   2.091   2.676
 1457HOH     H2 4559   0.681   1.992   2.623
 1458HOH      O 4560  -0.009   0.923   2.734
 1458HOH     H1 4561   0.049   0.955   2.803
 1458HOH     H2 4562   0.050   0.895   2.664
 1459HOH      O 4563   2.918   2.398   3.872
 1459HOH     H1 4564   2.996   2.343   3.859
 1459HOH     H2 4565   2.846   2.344   3.840
 1460HOH      O 4566   0.702   3.568   0.077
 1460HOH     H1 4567   0.797   3.563   0.085
 1460HOH     H2 4568   0.669   3.530   0.159
 1461HOH      O 4569   2.983   3.012   1.588
 1461HOH     H1 4570   3.072   3.025   1.556
 1461HOH     H2 4571   2.936   3.091   1.561
 1462HOH      O 4572   1.775   2.123   0.120
 1462HOH     H1 4573   1.847   2.163   0.168
 1462HOH     H2 4574   1.804   2.121   0.029
 1463HOH      O 4575   0.422   0.914   2.687
 1463HOH     H1 4576   0.430   0.962   2.769
 1463HOH     H2 4577   0.379   0.832   2.712
 1464HOH      O 4578   3.286   0.303   2.985
 1464HOH     H1 4579   3.220   0.252   2.940
 1464HOH     H2 4580   3.257   0.304   3.077
 1465HOH      O 4581   3.903   3.901   2.729
 1465HOH     H1 4582   3.981   3.860   2.693
 1465HOH     H2 4583   3.836   3.889   2.661
 1466HOH      O 4584   3.027   0.703   1.654
 1466HOH     H1 4585   3.032   0.621   1.703
 1466HOH     H2 4586   2.998   0.768   1.718
 1467HOH      O 4587   0.354   0.075   1.549
 1467HOH     H1 4588   0.284   0.139   1.562
 1467HOH     H2 4589   0.398   0.070   1.634
 1468HOH      O 4590   0.235   3.797   1.642
 1468HOH     H1 4591   0.181   3.796   1.563
 1468HOH     H2 4592   0.236   3.888   1.669
 1469HOH      O 4593   0.898   2.946   3.395
 1469HOH     H1 4594   0.939   2.889   3.460
 1469HOH     H2 4595   0.842   2.887   3.344
 1470HOH      O 4596   3.744   2.216  -0.001
 1470HOH     H1 4597   3.711   2.216   0.089
 1470HOH     H2 4598   3.665   2.219  -0.055
 1471HOH      O 4599   0.679   3.704   3.401
 1471HOH     H1 4600   0.587   3.678   3.402
 1471HOH     H2 4601   0.719   3.647   3.335
 1472HOH      O 4602   3.261   2.246   1.386
 1472HOH     H1 4603   3.271   2.163   1.340
 1472HOH     H2 4604   3.178   2.237   1.434
 1473HOH      O 4605   1.552   2.327   3.631
 1473HOH     H1 4606   1.613   2.268   3.586
 1473HOH     H2 4607   1.481   2.339   3.569
 1474HOH      O 4608   1.825   1.356   0.319
 1474HOH     H1 4609   1.800   1.382   0.231
 1474HOH     H2 4610   1.899   1.412   0.341
 1475HOH      O 4611   3.706   3.739   0.411
 1475HOH     H1 4612   3.729   3.646   0.409
 1475HOH     H2 4613   3.790   3.785   0.417
 1476HOH      O 4614   1.124  -0.030   1.278
 1476HOH     H1 4615   1.190   0.020   1.327
 1476HOH     H2 4616   1.045   0.025   1.282
 1477HOH      O 4617   3.190   3.797   3.956
 1477HOH     H1 4618   3.130   3.854   3.909
 1477HOH     H2 4619   3.135   3.725   3.988
 1478HOH      O 4620   2.851   2.163   2.032
 1478HOH     H1 4621   2.777   2.106   2.052
 1478HOH     H2 4622   2.895   2.174   2.117
 1479HOH      O 4623   0.220   1.237   3.107
 1479HOH     H1 4624   0.233   1.229   3.012
 1479HOH     H2 4625   0.289   1.183   3.145
 1480HOH      O 4626   3.904   2.198   3.793
 1480HOH     H1 4627   3.852   2.220   3.871
 1480HOH     H2 4628   3.863   2.119   3.759
 1481HOH      O 4629   2.243   1.580   3.770
 1481HOH     H1 4630   2.217   1.545   3.684
 1481HOH     H2 4631   2.186   1.656   3.782
 1482HOH      O 4632   3.748   2.945   3.381
 1482HOH     H1 4633   3.808   2.946   3.306
 1482HOH     H2 4634   3.772   2.866   3.430
 1483HOH      O 4635   0.784   3.231   3.384
 1483HOH     H1 4636   0.772   3.232   3.479
 1483HOH     H2 4637   0.840   3.155   3.368
 1484HOH      O 4638   2.042   0.333   1.744
 1484HOH     H1 4639   2.001   0.396   1.803
 1484HOH     H2 4640   2.135   0.356   1.745
 1485HOH      O 4641   2.051   0.553   2.466
 1485HOH     H1 4642   2.142   0.525   2.457
 1485HOH     H2 4643   2.047   0.635   2.416
 1486HOH      O 4644   1.417   3.766   0.913
 1486HOH     H1 4645   1.486   3.747   0.977
 1486HOH     H2 4646   1.392   3.681   0.878
 1487HOH      O 4647   0.544   3.018   1.395
 1487HOH     H1 4648   0.581   3.003   1.308
 1487HOH     H2 4649   0.564   3.110   1.414
 1488HOH      O 4650   0.007   0.255   0.545
 1488HOH     H1 4651   0.033   0.344   0.523
 1488HOH     H2 4652   0.006   0.253   0.641
 1489HOH      O 4653   2.923   2.628   1.810
 1489HOH     H1 4654   2.911   2.720   1.833
 1489HOH     H2 4655   3.000   2.627   1.754
 1490HOH      O 4656   2.014   2.246   0.942
 1490HOH     H1 4657   2.042   2.177   0.882
 1490HOH     H2 4658   2.049   2.219   1.027
 1491HOH      O 4659   3.539   2.183   3.837
 1491HOH     H1 4660   3.524   2.277   3.823
 1491HOH     H2 4661   3.457   2.141   3.812
 1492HOH      O 4662   2.409   3.772   1.955
 1492HOH     H1 4663   2.324   3.775   1.998
 1492HOH     H2 4664   2.456   3.703   2.000
 1493HOH      O 4665   0.150   0.470   2.030
 1493HOH     H1 4666   0.109   0.506   2.109
 1493HOH     H2 4667   0.237   0.509   2.028
 1494HOH      O 4668   1.103   1.227   1.172
 1494HOH     H1 4669   1.022   1.175   1.167
 1494HOH     H2 4670   1.085   1.304   1.118
 1495HOH      O 4671   3.427   3.989   0.141
 1495HOH     H1 4672   3.514   4.007   0.104
 1495HOH     H2 4673   3.438   3.907   0.188
 1496HOH      O 4674   0.259   3.378   3.005
 1496HOH     H1 4675   0.221   3.391   3.092
 1496HOH     H2 4676   0.225   3.451   2.954
 1497HOH      O 4677   0.045   2.883   1.362
 1497HOH     H1 4678   0.063   2.923   1.277
 1497HOH     H2 4679   0.129   2.885   1.407
 1498HOH      O 4680   3.561   0.179   3.217
 1498HOH     H1 4681   3.634   0.124   3.187
 1498HOH     H2 4682   3.483   0.126   3.198
 1499HOH      O 4683   1.641   3.513   3.492
 1499HOH     H1 4684   1.636   3.608   3.479
 1499HOH     H2 4685   1.709   3.501   3.558
 1500HOH      O 4686   1.777   2.139   2.881
 1500HOH     H1 4687   1.766   2.211   2.818
 1500HOH     H2 4688   1.807   2.181   2.961
 1501HOH      O 4689   0.465   0.195   3.287
 1501HOH     H1 4690   0.432   0.139   3.218
 1501HOH     H2 4691   0.527   0.254   3.243
 1502HOH      O 4692   2.138   3.476   0.945
 1502HOH     H1 4693   2.073   3.432   0.891
 1502HOH     H2 4694   2.151   3.561   0.904
 1503HOH      O 4695   0.740   2.402   1.138
 1503HOH     H1 4696   0.645   2.413   1.140
 1503HOH     H2 4697   0.757   2.356   1.056
 1504HOH      O 4698   1.803   3.669   3.202
 1504HOH     H1 4699   1.816   3.578   3.228
 1504HOH     H2 4700   1.796   3.716   3.285
 1505HOH      O 4701   2.129   1.417   4.003
 1505HOH     H1 4702   2.198   1.461   3.954
 1505HOH     H2 4703   2.061   1.398   3.937
 1506HOH      O 4704   0.651   1.601   2.422
 1506HOH     H1 4705   0.658   1.633   2.512
 1506HOH     H2 4706   0.672   1.677   2.368
 1507HOH      O 4707   0.016   0.729   3.514
 1507HOH     H1 4708  -0.032   0.655   3.552
 1507HOH     H2 4709   0.088   0.745   3.575
 1508HOH      O 4710   1.669   0.455   3.161
 1508HOH     H1 4711   1.761   0.475   3.178
 1508HOH     H2 4712   1.647   0.508   3.085
 1509HOH      O 4713   2.078   1.042   2.595
 1509HOH     H1 4714   2.107   0.978   2.659
 1509HOH     H2 4715   2.007   1.089   2.639
 1510HOH      O 4716   2.983   0.838   3.193
 1510HOH     H1 4717   2.986   0.762   3.135
 1510HOH     H2 4718   2.972   0.912   3.134
 1511HOH      O 4719   1.756   0.899   1.341
 1511HOH     H1 4720   1.778   0.990   1.322
 1511HOH     H2 4721   1.841   0.857   1.360
 1512HOH      O 4722   3.317   3.104   1.180
 1512HOH     H1 4723   3.369   3.036   1.137
 1512HOH     H2 4724   3.238   3.112   1.127
 1513HOH      O 4725   0.130   2.208   3.969
 1513HOH     H1 4726   0.081   2.243   4.043
 1513HOH     H2 4727   0.064   2.165   3.914
 1514HOH      O 4728   3.683   1.243   0.605
 1514HOH     H1 4729   3.590   1.225   0.591
 1514HOH     H2 4730   3.708   1.299   0.532
 1515HOH      O 4731   1.203   2.613   2.377
 1515HOH     H1 4732   1.175   2.567   2.456
 1515HOH     H2 4733   1.239   2.695   2.409
 1516HOH      O 4734   1.029   2.615   0.368
 1516HOH     H1 4735   0.979   2.690   0.400
 1516HOH     H2 4736   1.120   2.645   0.368
 1517HOH      O 4737   3.065   0.201   2.899
 1517HOH     H1 4738   3.046   0.113   2.933
 1517HOH     H2 4739   2.985   0.250   2.915
 1518HOH      O 4740   2.625   0.546   0.543
 1518HOH     H1 4741   2.551   0.517   0.491
 1518HOH     H2 4742   2.612   0.640   0.554
 1519HOH      O 4743   1.206   3.446   0.220
 1519HOH     H1 4744   1.278   3.508   0.209
 1519HOH     H2 4745   1.249   3.361   0.233
 1520HOH      O 4746   3.251   3.820   2.282
 1520HOH     H1 4747   3.214   3.879   2.217
 1520HOH     H2 4748   3.252   3.735   2.239
 1521HOH      O 4749   0.826   3.095   0.402
 1521HOH     H1 4750   0.797   3.146   0.478
 1521HOH     H2 4751   0.831   3.160   0.332
 1522HOH      O 4752   2.188   2.583   3.954
 1522HOH     H1 4753   2.211   2.597   4.046
 1522HOH     H2 4754   2.095   2.563   3.956
 1523HOH      O 4755   0.665   0.424   2.169
 1523HOH     H1 4756   0.621   0.423   2.084
 1523HOH     H2 4757   0.649   0.337   2.205
 1524HOH      O 4758   3.325   3.466   0.332
 1524HOH     H1 4759   3.335   3.547   0.281
 1524HOH     H2 4760   3.320   3.397   0.266
 1525HOH      O 4761   3.699   1.569   0.582
 1525HOH     H1 4762   3.713   1.534   0.494
 1525HOH     H2 4763   3.774   1.626   0.598
 1526HOH      O 4764   2.291   0.349   1.491
 1526HOH     H1 4765   2.359   0.375   1.428
 1526HOH     H2 4766   2.335   0.353   1.576
 1527HOH      O 4767   3.437   3.699   3.996
 1527HOH     H1 4768   3.349   3.732   3.984
 1527HOH     H2 4769   3.492   3.752   3.938
 1528HOH      O 4770   3.979   3.818   0.401
 1528HOH     H1 4771   4.038   3.748   0.428
 1528HOH     H2 4772   3.999   3.891   0.461
 1529HOH      O 4773   1.761   0.529   0.798
 1529HOH     H1 4774   1.844   0.576   0.799
 1529HOH     H2 4775   1.762   0.481   0.715
 1530HOH      O 4776   2.549   1.380   0.955
 1530HOH     H1 4777   2.596   1.304   0.921
 1530HOH     H2 4778   2.485   1.343   1.017
 1531HOH      O 4779   0.224   2.928   1.977
 1531HOH     H1 4780   0.239   2.852   2.032
 1531HOH     H2 4781   0.157   2.979   2.023
 1532HOH      O 4782   2.544   1.534   1.840
 1532HOH     H1 4783   2.592   1.484   1.774
 1532HOH     H2 4784   2.452   1.523   1.817
 1533HOH      O 4785   1.573   3.855   1.372
 1533HOH     H1 4786   1.583   3.780   1.312
 1533HOH     H2 4787   1.605   3.930   1.322
 1534HOH      O 4788   3.877   3.127   3.866
 1534HOH     H1 4789   3.853   3.037   3.845
 1534HOH     H2 4790   3.804   3.179   3.835
 1535HOH      O 4791   0.171   2.338   3.363
 1535HOH     H1 4792   0.210   2.416   3.324
 1535HOH     H2 4793   0.090   2.369   3.405
 1536HOH      O 4794   2.076   2.326   0.110
 1536HOH     H1 4795   2.158   2.375   0.113
 1536HOH     H2 4796   2.021   2.375   0.049
 1537HOH      O 4797   1.359   0.224   3.683
 1537HOH     H1 4798   1.383   0.204   3.593
 1537HOH     H2 4799   1.281   0.279   3.675
 1538HOH      O 4800   2.471   0.579   3.590
 1538HOH     H1 4801   2.534   0.648   3.609
 1538HOH     H2 4802   2.486   0.513   3.658
 1539HOH      O 4803   1.857   1.216   1.979
 1539HOH     H1 4804   1.798   1.170   2.038
 1539HOH     H2 4805   1.937   1.229   2.030
 1540HOH      O 4806   4.044   2.110   2.595
 1540HOH     H1 4807   3.959   2.151   2.606
 1540HOH     H2 4808   4.063   2.070   2.680
 1541HOH      O 4809   1.188   1.703   3.277
 1541HOH     H1 4810   1.264   1.663   3.235
 1541HOH     H2 4811   1.196   1.678   3.369
 1542HOH      O 4812   2.160   3.850   0.619
 1542HOH     H1 4813   2.241   3.896   0.595
 1542HOH     H2 4814   2.092   3.916   0.610
 1543HOH      O 4815   3.919   2.639   1.312
 1543HOH     H1 4816   3.943   2.693   1.388
 1543HOH     H2 4817   3.824   2.649   1.304
 1544HOH      O 4818   0.870   0.567   1.555
 1544HOH     H1 4819   0.809   0.638   1.578
 1544HOH     H2 4820   0.951   0.589   1.601
 1545HOH      O 4821   0.585   1.892   1.947
 1545HOH     H1 4822   0.656   1.922   2.005
 1545HOH     H2 4823   0.620   1.904   1.859
 1546HOH      O 4824   0.386   3.682   0.586
 1546HOH     H1 4825   0.473   3.684   0.545
 1546HOH     H2 4826   0.356   3.773   0.583
 1547HOH      O 4827   0.130   3.602   0.466
 1547HOH     H1 4828   0.197   3.597   0.398
 1547HOH     H2 4829   0.179   3.600   0.548
 1548HOH      O 4830   0.797   3.281   3.661
 1548HOH     H1 4831   0.885   3.275   3.697
 1548HOH     H2 4832   0.757   3.355   3.706
 1549HOH      O 4833   0.277   2.158   1.661
 1549HOH     H1 4834   0.356   2.111   1.634
 1549HOH     H2 4835   0.227   2.093   1.710
 1550HOH      O 4836   0.409   3.987   2.464
 1550HOH     H1 4837   0.461   3.916   2.428
 1550HOH     H2 4838   0.320   3.971   2.432
 1551HOH      O 4839   3.594   2.967   0.312
 1551HOH     H1 4840   3.514   2.969   0.261
 1551HOH     H2 4841   3.567   2.996   0.399
 1552HOH      O 4842   0.460   1.676   3.137
 1552HOH     H1 4843   0.536   1.701   3.189
 1552HOH     H2 4844   0.420   1.604   3.185
 1553HOH      O 4845   0.886   2.507   1.447
 1553HOH     H1 4846   0.816   2.572   1.436
 1553HOH     H2 4847   0.936   2.512   1.365
 1554HOH      O 4848   0.211   1.730   1.797
 1554HOH     H1 4849   0.258   1.732   1.880
 1554HOH     H2 4850   0.241   1.809   1.751
 1555HOH      O 4851   1.161   3.279   3.322
 1555HOH     H1 4852   1.248   3.243   3.340
 1555HOH     H2 4853   1.139   3.247   3.235
 1556HOH      O 4854   1.915   2.567   3.229
 1556HOH     H1 4855   1.946   2.487   3.271
 1556HOH     H2 4856   1.912   2.632   3.300
 1557HOH      O 4857   2.945   1.201   0.491
 1557HOH     H1 4858   3.017   1.140   0.504
 1557HOH     H2 4859   2.983   1.273   0.440
 1558HOH      O 4860   2.969   1.151   1.460
 1558HOH     H1 4861   2.948   1.175   1.550
 1558HOH     H2 4862   3.040   1.210   1.435
 1559HOH      O 4863   3.395   2.723   1.626
 1559HOH     H1 4864   3.462   2.660   1.599
 1559HOH     H2 4865   3.441   2.787   1.680
 1560HOH      O 4866   1.692   1.418   1.846
 1560HOH     H1 4867   1.601   1.405   1.820
 1560HOH     H2 4868   1.718   1.334   1.885
 1561HOH      O 4869   2.491   0.235   3.261
 1561HOH     H1 4870   2.526   0.226   3.172
 1561HOH     H2 4871   2.551   0.296   3.304
 1562HOH      O 4872   3.456   1.985   1.534
 1562HOH     H1 4873   3.375   1.947   1.500
 1562HOH     H2 4874   3.426   2.050   1.599
 1563HOH      O 4875   3.367   0.141   2.608
 1563HOH     H1 4876   3.390   0.145   2.515
 1563HOH     H2 4877   3.272   0.149   2.609
 1564HOH      O 4878   3.652   1.430   3.934
 1564HOH     H1 4879   3.732   1.483   3.924
 1564HOH     H2 4880   3.607   1.470   4.009
 1565HOH      O 4881   1.476   2.441   3.895
 1565HOH     H1 4882   1.413   2.375   3.927
 1565HOH     H2 4883   1.544   2.390   3.852
 1566HOH      O 4884   1.155   3.502   0.654
 1566HOH     H1 4885   1.101   3.429   0.685
 1566HOH     H2 4886   1.102   3.545   0.587
 1567HOH      O 4887   3.713   2.787   3.748
 1567HOH     H1 4888   3.741   2.729   3.819
 1567HOH     H2 4889   3.633   2.746   3.714
 1568HOH      O 4890   2.120   1.311   3.665
 1568HOH     H1 4891   2.093   1.221   3.679
 1568HOH     H2 4892   2.041   1.357   3.638
 1569HOH      O 4893   2.463   0.612   2.795
 1569HOH     H1 4894   2.422   0.660   2.723
 1569HOH     H2 4895   2.452   0.670   2.871
 1570HOH      O 4896   2.375   3.315   2.387
 1570HOH     H1 4897   2.310   3.250   2.415
 1570HOH     H2 4898   2.451   3.299   2.443
 1571HOH      O 4899   2.636   0.816   2.292
 1571HOH     H1 4900   2.607   0.885   2.233
 1571HOH     H2 4901   2.583   0.740   2.268
 1572HOH      O 4902   3.911   1.254   2.096
 1572HOH     H1 4903   3.966   1.287   2.167
 1572HOH     H2 4904   3.914   1.322   2.030
 1573HOH      O 4905   1.517   2.191   1.150
 1573HOH     H1 4906   1.474   2.213   1.067
 1573HOH     H2 4907   1.452   2.209   1.217
 1574HOH      O 4908   2.735   2.489   3.014
 1574HOH     H1 4909   2.753   2.579   2.988
 1574HOH     H2 4910   2.643   2.490   3.041
 1575HOH      O 4911   0.122   3.758   2.162
 1575HOH     H1 4912   0.178   3.758   2.084
 1575HOH     H2 4913   0.058   3.689   2.146
 1576HOH      O 4914   0.878   1.182   3.255
 1576HOH     H1 4915   0.815   1.142   3.315
 1576HOH     H2 4916   0.960   1.135   3.271
 1577HOH      O 4917   3.744   1.215   2.981
 1577HOH     H1 4918   3.779   1.134   2.943
 1577HOH     H2 4919   3.673   1.240   2.922
 1578HOH      O 4920   0.238   3.385   2.423
 1578HOH     H1 4921   0.277   3.326   2.358
 1578HOH     H2 4922   0.144   3.369   2.417
 1579HOH      O 4923   1.673   2.952   1.335
 1579HOH     H1 4924   1.606   2.945   1.266
 1579HOH     H2 4925   1.666   3.043   1.365
 1580HOH      O 4926   1.045   0.862   0.437
 1580HOH     H1 4927   1.112   0.800   0.408
 1580HOH     H2 4928   1.023   0.834   0.526
 1581HOH      O 4929   2.978   3.420   1.682
 1581HOH     H1 4930   3.042   3.410   1.612
 1581HOH     H2 4931   2.893   3.408   1.639
 1582HOH      O 4932   1.803   2.997   1.076
 1582HOH     H1 4933   1.869   2.929   1.091
 1582HOH     H2 4934   1.770   3.018   1.163
 1583HOH      O 4935   2.146   2.766   1.592
 1583HOH     H1 4936   2.130   2.814   1.673
 1583HOH     H2 4937   2.159   2.675   1.620
 1584HOH      O 4938   0.448   2.604   0.797
 1584HOH     H1 4939   0.517   2.580   0.734
 1584HOH     H2 4940   0.447   2.700   0.795
 1585HOH      O 4941   1.737   2.160   3.486
 1585HOH     H1 4942   1.696   2.081   3.449
 1585HOH     H2 4943   1.806   2.126   3.543
 1586HOH      O 4944   0.596   1.864   0.711
 1586HOH     H1 4945   0.664   1.807   0.747
 1586HOH     H2 4946   0.540   1.804   0.661
 1587HOH      O 4947   0.980   2.543   1.172
 1587HOH     H1 4948   0.969   2.631   1.136
 1587HOH     H2 4949   0.898   2.498   1.150
 1588HOH      O 4950   2.683   1.402   3.858
 1588HOH     H1 4951   2.712   1.466   3.793
 1588HOH     H2 4952   2.683   1.319   3.810
 1589HOH      O 4953   2.249   3.106   1.363
 1589HOH     H1 4954   2.171   3.139   1.319
 1589HOH     H2 4955   2.233   3.119   1.456
 1590HOH      O 4956   1.804   3.447   3.693
 1590HOH     H1 4957   1.781   3.357   3.672
 1590HOH     H2 4958   1.805   3.450   3.789
 1591HOH      O 4959   2.554   3.151   3.822
 1591HOH     H1 4960   2.635   3.177   3.777
 1591HOH     H2 4961   2.584   3.108   3.902
 1592HOH      O 4962   1.733   1.302   0.020
 1592HOH     H1 4963   1.781   1.381   0.046
 1592HOH     H2 4964   1.642   1.331   0.014
 1593HOH      O 4965   0.093   2.724   0.397
 1593HOH     H1 4966   0.135   2.746   0.480
 1593HOH     H2 4967   0.166   2.702   0.339
 1594HOH      O 4968   0.213   1.343   3.499
 1594HOH     H1 4969   0.235   1.329   3.591
 1594HOH     H2 4970   0.180   1.258   3.469
 1595HOH      O 4971   3.261   0.958   1.264
 1595HOH     H1 4972   3.177   0.913   1.254
 1595HOH     H2 4973   3.250   1.041   1.217
 1596HOH      O 4974   3.921   3.602   2.158
 1596HOH     H1 4975   3.862   3.572   2.227
 1596HOH     H2 4976   3.886   3.564   2.077
 1597HOH      O 4977   0.819   3.520   3.828
 1597HOH     H1 4978   0.795   3.580   3.899
 1597HOH     H2 4979   0.876   3.572   3.771
 1598HOH      O 4980   3.779   0.245   0.240
 1598HOH     H1 4981   3.871   0.220   0.250
 1598HOH     H2 4982   3.755   0.283   0.324
 1599HOH      O 4983   1.702   2.627   1.456
 1599HOH     H1 4984   1.649   2.567   1.510
 1599HOH     H2 4985   1.651   2.638   1.376
 1600HOH      O 4986   1.447   0.171   3.431
 1600HOH     H1 4987   1.447   0.259   3.394
 1600HOH     H2 4988   1.534   0.136   3.411
 1601HOH      O 4989   0.375   0.481   1.309
 1601HOH     H1 4990   0.394   0.388   1.314
 1601HOH     H2 4991   0.383   0.502   1.215
 1602HOH      O 4992   1.062   0.081   3.887
 1602HOH     H1 4993   1.066   0.122   3.973
 1602HOH     H2 4994   1.027   0.149   3.830
 1603HOH      O 4995   2.180   1.127   1.523
 1603HOH     H1 4996   2.155   1.218   1.505
 1603HOH     H2 4997   2.253   1.110   1.463
 1604HOH      O 4998   3.386   2.911   0.071
 1604HOH     H1 4999   3.393   2.816   0.080
 1604HOH     H2 5000   3.461   2.935   0.016
 1605HOH      O 5001   1.667   0.806   3.941
 1605HOH     H1 5002   1.746   0.845   3.904
 1605HOH     H2 5003   1.607   0.880   3.952
 1606HOH      O 5004   1.057   3.658   0.415
 1606HOH     H1 5005   1.143   3.648   0.375
 1606HOH     H2 5006   1.042   3.753   0.419
 1607HOH      O 5007   0.704   0.623   3.152
 1607HOH     H1 5008   0.765   0.678   3.104
 1607HOH     H2 5009   0.723   0.639   3.244
 1608HOH      O 5010   3.651   0.417   2.941
 1608HOH     H1 5011   3.688   0.362   3.009
 1608HOH     H2 5012   3.601   0.357   2.885
 1609HOH      O 5013   2.638   3.440   2.055
 1609HOH     H1 5014   2.646   3.493   1.976
 1609HOH     H2 5015   2.693   3.484   2.120
 1610HOH      O 5016   1.367   3.179   3.667
 1610HOH     H1 5017   1.272   3.193   3.666
 1610HOH     H2 5018   1.381   3.115   3.737
 1611HOH      O 5019   1.397   0.318  -0.007
 1611HOH     H1 5020   1.323   0.314   0.053
 1611HOH     H2 5021   1.474   0.325   0.050
 1612HOH      O 5022   1.720   2.221   0.987
 1612HOH     H1 5023   1.804   2.236   1.029
 1612HOH     H2 5024   1.659   2.206   1.059
 1613HOH      O 5025   0.124   1.494   0.970
 1613HOH     H1 5026   0.077   1.555   0.914
 1613HOH     H2 5027   0.086   1.507   1.057
 1614HOH      O 5028   2.848   0.743   3.735
 1614HOH     H1 5029   2.784   0.722   3.804
 1614HOH     H2 5030   2.915   0.675   3.743
 1615HOH      O 5031   0.926   2.097   2.347
 1615HOH     H1 5032   0.910   2.172   2.404
 1615HOH     H2 5033   0.920   2.021   2.405
 1616HOH      O 5034   3.818   1.104   3.726
 1616HOH     H1 5035   3.756   1.152   3.671
 1616HOH     H2 5036   3.843   1.029   3.673
 1617HOH      O 5037   0.528   0.634   0.759
 1617HOH     H1 5038   0.510   0.557   0.812
 1617HOH     H2 5039   0.449   0.687   0.766
 1618HOH      O 5040   0.024   2.482   0.658
 1618HOH     H1 5041   0.079   2.560   0.659
 1618HOH     H2 5042   0.053   2.433   0.581
 1619HOH      O 5043   2.139   3.536   1.372
 1619HOH     H1 5044   2.175   3.539   1.283
 1619HOH     H2 5045   2.101   3.624   1.385
 1620HOH      O 5046   1.494   0.000   3.707
 1620HOH     H1 5047   1.408  -0.041   3.701
 1620HOH     H2 5048   1.476   0.094   3.708
 1621HOH      O 5049   1.108   2.445   0.163
 1621HOH     H1 5050   1.085   2.499   0.239
 1621HOH     H2 5051   1.045   2.373   0.165
 1622HOH      O 5052   1.144   0.578   3.093
 1622HOH     H1 5053   1.207   0.593   3.022
 1622HOH     H2 5054   1.198   0.572   3.172
 1623HOH      O 5055   2.693   1.995   0.306
 1623HOH     H1 5056   2.757   2.066   0.310
 1623HOH     H2 5057   2.715   1.946   0.227
 1624HOH      O 5058   2.244   0.390   1.983
 1624HOH     H1 5059   2.225   0.359   2.072
 1624HOH     H2 5060   2.176   0.455   1.965
 1625HOH      O 5061   3.295   2.557   1.328
 1625HOH     H1 5062   3.324   2.467   1.341
 1625HOH     H2 5063   3.271   2.561   1.235
 1626HOH      O 5064   3.006   3.457   1.950
 1626HOH     H1 5065   2.914   3.480   1.961
 1626HOH     H2 5066   3.017   3.449   1.855
 1627HOH      O 5067   3.403   2.286   0.424
 1627HOH     H1 5068   3.460   2.297   0.500
 1627HOH     H2 5069   3.345   2.362   0.427
 1628HOH      O 5070   0.834   0.921   3.591
 1628HOH     H1 5071   0.747   0.885   3.609
 1628HOH     H2 5072   0.818   1.013   3.571
 1629HOH      O 5073   2.351   2.379   0.333
 1629HOH     H1 5074   2.346   2.298   0.282
 1629HOH     H2 5075   2.353   2.351   0.424
 1630HOH      O 5076   2.332   2.680   0.463
 1630HOH     H1 5077   2.286   2.708   0.385
 1630HOH     H2 5078   2.285   2.721   0.535
 1631HOH      O 5079   0.041   3.802   1.430
 1631HOH     H1 5080   0.026   3.709   1.444
 1631HOH     H2 5081   0.096   3.806   1.352
 1632HOH      O 5082   1.257   1.876   2.355
 1632HOH     H1 5083   1.289   1.961   2.385
 1632HOH     H2 5084   1.324   1.814   2.384
 1633HOH      O 5085   1.183   1.950   0.836
 1633HOH     H1 5086   1.093   1.982   0.844
 1633HOH     H2 5087   1.217   1.951   0.926
 1634HOH      O 5088   2.976   1.501   1.841
 1634HOH     H1 5089   2.941   1.533   1.758
 1634HOH     H2 5090   2.943   1.563   1.906
 1635HOH      O 5091   3.161   2.564   1.060
 1635HOH     H1 5092   3.104   2.641   1.051
 1635HOH     H2 5093   3.102   2.493   1.083
 1636HOH      O 5094   2.189   0.684   3.617
 1636HOH     H1 5095   2.146   0.606   3.582
 1636HOH     H2 5096   2.267   0.650   3.662
 1637HOH      O 5097   1.917   3.320   0.829
 1637HOH     H1 5098   1.891   3.228   0.821
 1637HOH     H2 5099   1.843   3.368   0.790
 1638HOH      O 5100   0.278   1.211   2.252
 1638HOH     H1 5101   0.229   1.283   2.211
 1638HOH     H2 5102   0.323   1.168   2.179
 1639HOH      O 5103   3.237   3.328   3.729
 1639HOH     H1 5104   3.277   3.290   3.808
 1639HOH     H2 5105   3.310   3.371   3.684
 1640HOH      O 5106   2.819   3.424   3.290
 1640HOH     H1 5107   2.781   3.511   3.295
 1640HOH     H2 5108   2.781   3.376   3.363
 1641HOH      O 5109   0.175   1.492   1.673
 1641HOH     H1 5110   0.213   1.415   1.715
 1641HOH     H2 5111   0.215   1.566   1.718
 1642HOH      O 5112   1.791   0.472   1.864
 1642HOH     H1 5113   1.872   0.518   1.886
 1642HOH     H2 5114   1.740   0.473   1.945
 1643HOH      O 5115   1.864   0.813   0.924
 1643HOH     H1 5116   1.944   0.765   0.945
 1643HOH     H2 5117   1.863   0.819   0.829
 1644HOH      O 5118   1.159   1.408   0.061
 1644HOH     H1 5119   1.090   1.342   0.059
 1644HOH     H2 5120   1.181   1.422  -0.031
 1645HOH      O 5121   3.497   3.247   1.343
 1645HOH     H1 5122   3.478   3.209   1.430
 1645HOH     H2 5123   3.430   3.208   1.286
 1646HOH      O 5124   2.870   2.814   0.017
 1646HOH     H1 5125   2.921   2.869  -0.042
 1646HOH     H2 5126   2.913   2.824   0.102
 1647HOH      O 5127   4.011   1.508   3.381
 1647HOH     H1 5128   3.972   1.461   3.307
 1647HOH     H2 5129   4.045   1.439   3.438
 1648HOH      O 5130   0.858   3.074   2.982
 1648HOH     H1 5131   0.898   3.017   2.916
 1648HOH     H2 5132   0.765   3.050   2.982
 1649HOH      O 5133   2.337   0.498   2.461
 1649HOH     H1 5134   2.362   0.445   2.537
 1649HOH     H2 5135   2.343   0.589   2.493
 1650HOH      O 5136   0.282   3.179   1.010
 1650HOH     H1 5137   0.321   3.225   0.935
 1650HOH     H2 5138   0.282   3.243   1.081
 1651HOH      O 5139   3.631   3.201   1.114
 1651HOH     H1 5140   3.572   3.165   1.048
 1651HOH     H2 5141   3.598   3.167   1.197
 1652HOH      O 5142   0.412   2.811   1.137
 1652HOH     H1 5143   0.455   2.891   1.108
 1652HOH     H2 5144   0.478   2.742   1.126
 1653HOH      O 5145   3.332   3.402   0.593
 1653HOH     H1 5146   3.413   3.444   0.622
 1653HOH     H2 5147   3.332   3.411   0.498
 1654HOH      O 5148   1.950   1.674   0.968
 1654HOH     H1 5149   1.977   1.726   1.044
 1654HOH     H2 5150   1.885   1.613   1.003
 1655HOH      O 5151   3.491   0.415   0.926
 1655HOH     H1 5152   3.456   0.448   1.009
 1655HOH     H2 5153   3.561   0.355   0.951
 1656HOH      O 5154   0.662   1.762   3.301
 1656HOH     H1 5155   0.637   1.695   3.365
 1656HOH     H2 5156   0.750   1.737   3.274
 1657HOH      O 5157   0.572   0.339   0.371
 1657HOH     H1 5158   0.588   0.407   0.437
 1657HOH     H2 5159   0.559   0.386   0.289
 1658HOH      O 5160   0.247   1.305   3.789
 1658HOH     H1 5161   0.210   1.264   3.866
 1658HOH     H2 5162   0.312   1.243   3.757
 1659HOH      O 5163   0.425   2.082   2.040
 1659HOH     H1 5164   0.480   2.004   2.041
 1659HOH     H2 5165   0.462   2.137   1.971
 1660HOH      O 5166   3.093   3.628   2.569
 1660HOH     H1 5167   3.182   3.599   2.586
 1660HOH     H2 5168   3.067   3.582   2.489
 1661HOH      O 5169   1.179   2.662   2.129
 1661HOH     H1 5170   1.232   2.593   2.089
 1661HOH     H2 5171   1.200   2.657   2.222
 1662HOH      O 5172   3.071   0.217   1.414
 1662HOH     H1 5173   3.151   0.187   1.457
 1662HOH     H2 5174   3.093   0.216   1.321
 1663HOH      O 5175   1.774   2.475   1.902
 1663HOH     H1 5176   1.760   2.523   1.984
 1663HOH     H2 5177   1.791   2.542   1.837
 1664HOH      O 5178   2.742   3.727   3.142
 1664HOH     H1 5179   2.770   3.711   3.051
 1664HOH     H2 5180   2.657   3.684   3.148
 1665HOH      O 5181   1.610   2.611   4.057
 1665HOH     H1 5182   1.554   2.550   4.008
 1665HOH     H2 5183   1.664   2.652   3.989
 1666HOH      O 5184   3.883   1.889   1.880
 1666HOH     H1 5185   3.858   1.965   1.828
 1666HOH     H2 5186   3.847   1.814   1.833
 1667HOH      O 5187   1.383   2.768   1.029
 1667HOH     H1 5188   1.366   2.861   1.043
 1667HOH     H2 5189   1.357   2.752   0.938
 1668HOH      O 5190   2.364   0.981   0.591
 1668HOH     H1 5191   2.322   0.898   0.614
 1668HOH     H2 5192   2.321   1.046   0.647
 1669HOH      O 5193   1.760   3.412   3.277
 1669HOH     H1 5194   1.717   3.444   3.356
 1669HOH     H2 5195   1.826   3.351   3.309
 1670HOH      O 5196   3.858   3.816   0.146
 1670HOH     H1 5197   3.793   3.885   0.134
 1670HOH     H2 5198   3.872   3.812   0.241
 1671HOH      O 5199   3.122   2.001   3.890
 1671HOH     H1 5200   3.171   1.944   3.949
 1671HOH     H2 5201   3.041   1.954   3.872
 1672HOH      O 5202   0.386   1.060   2.030
 1672HOH     H1 5203   0.381   0.965   2.021
 1672HOH     H2 5204   0.479   1.078   2.041
 1673HOH      O 5205   1.573   1.486   3.434
 1673HOH     H1 5206   1.496   1.441   3.399
 1673HOH     H2 5207   1.644   1.423   3.422
 1674HOH      O 5208   1.762   1.244   2.391
 1674HOH     H1 5209   1.804   1.319   2.350
 1674HOH     H2 5210   1.749   1.182   2.320
 1675HOH      O 5211   1.593   1.503   0.531
 1675HOH     H1 5212   1.626   1.503   0.621
 1675HOH     H2 5213   1.671   1.497   0.476
 1676HOH      O 5214   0.937   2.858   0.492
 1676HOH     H1 5215   0.858   2.863   0.546
 1676HOH     H2 5216   0.934   2.938   0.439
 1677HOH      O 5217   1.255   1.979   0.275
 1677HOH     H1 5218   1.206   2.028   0.342
 1677HOH     H2 5219   1.215   1.892   0.276
 1678HOH      O 5220   3.240   2.582   0.717
 1678HOH     H1 5221   3.327   2.621   0.730
 1678HOH     H2 5222   3.222   2.594   0.624
 1679HOH      O 5223   3.707   1.899   1.463
 1679HOH     H1 5224   3.752   1.955   1.399
 1679HOH     H2 5225   3.626   1.945   1.483
 1680HOH      O 5226   2.223   3.816   3.182
 1680HOH     H1 5227   2.264   3.830   3.096
 1680HOH     H2 5228   2.130   3.828   3.166
 1681HOH      O 5229   2.676   3.151   1.991
 1681HOH     H1 5230   2.596   3.115   2.030
 1681HOH     H2 5231   2.671   3.244   2.009
 1682HOH      O 5232   1.605   0.159   0.957
 1682HOH     H1 5233   1.655   0.183   1.035
 1682HOH     H2 5234   1.573   0.242   0.923
 1683HOH      O 5235   1.490   0.172   1.938
 1683HOH     H1 5236   1.489   0.267   1.928
 1683HOH     H2 5237   1.545   0.156   2.015
 1684HOH      O 5238   0.661   3.552   0.717
 1684HOH     H1 5239   0.619   3.593   0.793
 1684HOH     H2 5240   0.703   3.624   0.671
 1685HOH      O 5241   0.593   1.232   0.998
 1685HOH     H1 5242   0.680   1.272   1.002
 1685HOH     H2 5243   0.553   1.254   1.082
 1686HOH      O 5244   0.119   3.036   0.460
 1686HOH     H1 5245   0.112   3.130   0.470
 1686HOH     H2 5246   0.035   3.002   0.492
 1687HOH      O 5247   0.382   2.062   3.959
 1687HOH     H1 5248   0.350   2.038   3.873
 1687HOH     H2 5249   0.333   2.141   3.983
 1688HOH      O 5250   3.683   0.805   2.218
 1688HOH     H1 5251   3.660   0.758   2.138
 1688HOH     H2 5252   3.753   0.753   2.257
 1689HOH      O 5253   2.137   1.796   1.200
 1689HOH     H1 5254   2.202   1.837   1.143
 1689HOH     H2 5255   2.063   1.857   1.199
 1690HOH      O 5256   3.079   3.496   3.060
 1690HOH     H1 5257   3.145   3.565   3.065
 1690HOH     H2 5258   3.039   3.506   2.974
 1691HOH      O 5259   1.274   0.634   0.828
 1691HOH     H1 5260   1.344   0.581   0.866
 1691HOH     H2 5261   1.246   0.585   0.751
 1692HOH      O 5262   0.437   3.325   1.541
 1692HOH     H1 5263   0.515   3.378   1.560
 1692HOH     H2 5264   0.380   3.340   1.616
 1693HOH      O 5265   0.121   1.461   2.494
 1693HOH     H1 5266   0.133   1.393   2.561
 1693HOH     H2 5267   0.200   1.514   2.501
 1694HOH      O 5268   1.860   1.454   1.134
 1694HOH     H1 5269   1.870   1.509   1.212
 1694HOH     H2 5270   1.794   1.390   1.159
 1695HOH      O 5271   0.501   0.174   2.627
 1695HOH     H1 5272   0.447   0.245   2.593
 1695HOH     H2 5273   0.467   0.096   2.584
 1696HOH      O 5274   0.581   2.460   3.637
 1696HOH     H1 5275   0.656   2.404   3.656
 1696HOH     H2 5276   0.594   2.487   3.546
 1697HOH      O 5277   1.125   0.062   0.574
 1697HOH     H1 5278   1.083   0.028   0.494
 1697HOH     H2 5279   1.118  -0.009   0.637
 1698HOH      O 5280   3.528   0.315   3.464
 1698HOH     H1 5281   3.525   0.250   3.534
 1698HOH     H2 5282   3.536   0.264   3.384
 1699HOH      O 5283   0.925   0.488   2.210
 1699HOH     H1 5284   0.935   0.584   2.214
 1699HOH     H2 5285   0.832   0.476   2.193
 1700HOH      O 5286   0.979   2.917   2.801
 1700HOH     H1 5287   1.028   2.879   2.874
 1700HOH     H2 5288   1.009   2.869   2.724
 1701HOH      O 5289   0.178   3.176   1.640
 1701HOH     H1 5290   0.186   3.223   1.557
 1701HOH     H2 5291   0.099   3.211   1.680
 1702HOH      O 5292   3.964   3.503   1.887
 1702HOH     H1 5293   4.026   3.574   1.871
 1702HOH     H2 5294   4.013   3.423   1.870
 1703HOH      O 5295   0.776   0.445   1.332
 1703HOH     H1 5296   0.818   0.360   1.344
 1703HOH     H2 5297   0.803   0.495   1.409
 1704HOH      O 5298   1.177   0.934   3.101
 1704HOH     H1 5299   1.206   0.932   3.192
 1704HOH     H2 5300   1.242   0.883   3.053
 1705HOH      O 5301   2.605   0.987   3.322
 1705HOH     H1 5302   2.647   0.964   3.405
 1705HOH     H2 5303   2.558   1.068   3.341
 1706HOH      O 5304   1.853   2.105   1.813
 1706HOH     H1 5305   1.875   2.107   1.906
 1706HOH     H2 5306   1.769   2.150   1.807
 1707HOH      O 5307   2.033   2.046   2.026
 1707HOH     H1 5308   2.073   2.126   2.060
 1707HOH     H2 5309   2.103   2.004   1.975
 1708HOH      O 5310   0.146   3.316   1.973
 1708HOH     H1 5311   0.117   3.360   2.053
 1708HOH     H2 5312   0.097   3.234   1.971
 1709HOH      O 5313   2.734   3.401   3.850
 1709HOH     H1 5314   2.749   3.352   3.931
 1709HOH     H2 5315   2.821   3.423   3.818
 1710HOH      O 5316   2.506   3.601   3.151
 1710HOH     H1 5317   2.550   3.554   3.080
 1710HOH     H2 5318   2.444   3.538   3.187
 1711HOH      O 5319   0.332   1.526   0.388
 1711HOH     H1 5320   0.268   1.461   0.417
 1711HOH     H2 5321   0.401   1.524   0.455
 1712HOH      O 5322   3.086   0.918   0.111
 1712HOH     H1 5323   3.081   0.934   0.017
 1712HOH     H2 5324   3.130   0.833   0.119
 1713HOH      O 5325   0.146   1.825   0.044
 1713HOH     H1 5326   0.090   1.830   0.121
 1713HOH     H2 5327   0.103   1.879  -0.022
 1714HOH      O 5328   1.043   0.863   2.321
 1714HOH     H1 5329   1.131   0.840   2.350
 1714HOH     H2 5330   0.987   0.843   2.397
 1715HOH      O 5331   1.887   3.386   1.099
 1715HOH     H1 5332   1.925   3.359   1.016
 1715HOH     H2 5333   1.793   3.370   1.089
 1716HOH      O 5334   1.838   0.146   1.727
 1716HOH     H1 5335   1.918   0.198   1.717
 1716HOH     H2 5336   1.771   0.194   1.679
 1717HOH      O 5337   1.870   0.830   3.757
 1717HOH     H1 5338   1.932   0.764   3.791
 1717HOH     H2 5339   1.851   0.800   3.668
 1718HOH      O 5340   3.940   1.625   2.790
 1718HOH     H1 5341   4.001   1.678   2.842
 1718HOH     H2 5342   3.933   1.672   2.707
 1719HOH      O 5343   0.514   1.453   2.222
 1719HOH     H1 5344   0.423   1.432   2.240
 1719HOH     H2 5345   0.542   1.504   2.298
 1720HOH      O 5346   2.036   0.357   0.713
 1720HOH     H1 5347   2.075   0.273   0.735
 1720HOH     H2 5348   1.944   0.336   0.694
 1721HOH      O 5349   0.039   0.707   0.652
 1721HOH     H1 5350  -0.056   0.697   0.659
 1721HOH     H2 5351   0.053   0.801   0.654
 1722HOH      O 5352   2.804  -0.009   3.591
 1722HOH     H1 5353   2.788   0.085   3.583
 1722HOH     H2 5354   2.748  -0.048   3.524
 1723HOH      O 5355   2.335   3.495   2.839
 1723HOH     H1 5356   2.411   3.532   2.883
 1723HOH     H2 5357   2.363   3.407   2.813
 1724HOH      O 5358   0.288   3.344   0.757
 1724HOH     H1 5359   0.296   3.414   0.823
 1724HOH     H2 5360   0.227   3.378   0.692
 1725HOH      O 5361   0.461   0.354   0.836
 1725HOH     H1 5362   0.546   0.329   0.802
 1725HOH     H2 5363   0.404   0.280   0.816
 1726HOH      O 5364   0.592   1.760   1.628
 1726HOH     H1 5365   0.515   1.721   1.589
 1726HOH     H2 5366   0.666   1.717   1.585
 1727HOH      O 5367   2.601   1.124   3.720
 1727HOH     H1 5368   2.553   1.206   3.709
 1727HOH     H2 5369   2.535   1.061   3.749
 1728HOH      O 5370   3.607   2.560   1.630
 1728HOH     H1 5371   3.653   2.534   1.709
 1728HOH     H2 5372   3.552   2.485   1.609
 1729HOH      O 5373   1.845   0.094   3.468
 1729HOH     H1 5374   1.883   0.058   3.548
 1729HOH     H2 5375   1.824   0.185   3.491
 1730HOH      O 5376   1.010   2.402   2.123
 1730HOH     H1 5377   1.075   2.333   2.136
 1730HOH     H2 5378   1.062   2.480   2.103
 1731HOH      O 5379   1.523   1.874   0.900
 1731HOH     H1 5380   1.498   1.807   0.835
 1731HOH     H2 5381   1.570   1.940   0.849
 1732HOH      O 5382   2.192   0.585   1.655
 1732HOH     H1 5383   2.272   0.559   1.701
 1732HOH     H2 5384   2.212   0.572   1.562
 1733HOH      O 5385   3.956   3.164   3.288
 1733HOH     H1 5386   3.962   3.080   3.243
 1733HOH     H2 5387   3.930   3.142   3.377
 1734HOH      O 5388   2.801   0.547   1.541
 1734HOH     H1 5389   2.799   0.549   1.445
 1734HOH     H2 5390   2.894   0.544   1.562
 1735HOH      O 5391   0.673   2.968   0.205
 1735HOH     H1 5392   0.727   2.986   0.282
 1735HOH     H2 5393   0.606   3.036   0.207
 1736HOH      O 5394   1.407   1.545   3.174
 1736HOH     H1 5395   1.474   1.612   3.189
 1736HOH     H2 5396   1.421   1.517   3.084
 1737HOH      O 5397   3.848   3.418   3.278
 1737HOH     H1 5398   3.886   3.330   3.269
 1737HOH     H2 5399   3.754   3.403   3.276
 1738HOH      O 5400   0.180   0.774   1.137
 1738HOH     H1 5401   0.104   0.726   1.170
 1738HOH     H2 5402   0.156   0.866   1.148
 1739HOH      O 5403   0.202   0.107   1.193
 1739HOH     H1 5404   0.238   0.150   1.271
 1739HOH     H2 5405   0.200   0.176   1.127
 1740HOH      O 5406   3.840   2.219   2.967
 1740HOH     H1 5407   3.861   2.153   3.033
 1740HOH     H2 5408   3.744   2.218   2.961
 1741HOH      O 5409   0.805   2.112   0.706
 1741HOH     H1 5410   0.844   2.109   0.793
 1741HOH     H2 5411   0.718   2.072   0.717
 1742HOH      O 5412   0.145   0.994   2.315
 1742HOH     H1 5413   0.176   1.078   2.282
 1742HOH     H2 5414   0.215   0.963   2.372
 1743HOH      O 5415   0.699   2.701   1.387
 1743HOH     H1 5416   0.709   2.784   1.434
 1743HOH     H2 5417   0.621   2.661   1.425
 1744HOH      O 5418   2.337   0.909   0.140
 1744HOH     H1 5419   2.315   0.876   0.227
 1744HOH     H2 5420   2.299   0.844   0.080
 1745HOH      O 5421   2.580   0.713   1.226
 1745HOH     H1 5422   2.674   0.707   1.211
 1745HOH     H2 5423   2.555   0.625   1.256
 1746HOH      O 5424   1.640   1.363   1.557
 1746HOH     H1 5425   1.717   1.343   1.610
 1746HOH     H2 5426   1.574   1.299   1.586
 1747HOH      O 5427   3.673   3.203   2.975
 1747HOH     H1 5428   3.660   3.252   2.893
 1747HOH     H2 5429   3.586   3.198   3.014
 1748HOH      O 5430   0.935   3.136   0.897
 1748HOH     H1 5431   0.947   3.127   0.991
 1748HOH     H2 5432   0.942   3.230   0.881
 1749HOH      O 5433   1.222   0.847   0.983
 1749HOH     H1 5434   1.146   0.823   1.036
 1749HOH     H2 5435   1.248   0.766   0.939
 1750HOH      O 5436   3.819   0.010   0.653
 1750HOH     H1 5437   3.914  -0.001   0.666
 1750HOH     H2 5438   3.811   0.097   0.614
 1751HOH      O 5439   3.070   3.409   1.240
 1751HOH     H1 5440   3.111   3.387   1.156
 1751HOH     H2 5441   3.114   3.491   1.266
 1752HOH      O 5442   3.959   3.378   3.601
 1752HOH     H1 5443   3.933   3.402   3.513
 1752HOH     H2 5444   4.021   3.306   3.589
 1753HOH      O 5445   3.486   0.483   0.330
 1753HOH     H1 5446   3.398   0.448   0.343
 1753HOH     H2 5447   3.543   0.423   0.378
 1754HOH      O 5448   2.356   3.807   3.953
 1754HOH     H1 5449   2.382   3.721   3.921
 1754HOH     H2 5450   2.429   3.835   4.008
 1755HOH      O 5451   2.567   3.401   0.271
 1755HOH     H1 5452   2.563   3.494   0.291
 1755HOH     H2 5453   2.581   3.358   0.355
 1756HOH      O 5454   0.744   3.703   0.521
 1756HOH     H1 5455   0.710   3.772   0.464
 1756HOH     H2 5456   0.828   3.679   0.483
 1757HOH      O 5457   1.295   2.320   0.672
 1757HOH     H1 5458   1.254   2.264   0.606
 1757HOH     H2 5459   1.381   2.341   0.635
 1758HOH      O 5460   1.518   2.308   1.519
 1758HOH     H1 5461   1.571   2.267   1.587
 1758HOH     H2 5462   1.511   2.243   1.450
 1759HOH      O 5463   2.378   1.234   3.917
 1759HOH     H1 5464   2.306   1.248   3.978
 1759HOH     H2 5465   2.446   1.190   3.968
 1760HOH      O 5466   2.310   0.585   3.337
 1760HOH     H1 5467   2.278   0.497   3.358
 1760HOH     H2 5468   2.387   0.596   3.392
 1761HOH      O 5469   1.994   3.749   0.355
 1761HOH     H1 5470   2.083   3.725   0.379
 1761HOH     H2 5471   1.999   3.771   0.262
 1762HOH      O 5472   1.382   0.379   3.053
 1762HOH     H1 5473   1.320   0.307   3.059
 1762HOH     H2 5474   1.441   0.367   3.128
 1763HOH      O 5475   1.279   0.909   1.524
 1763HOH     H1 5476   1.207   0.878   1.468
 1763HOH     H2 5477   1.354   0.914   1.465
 1764HOH      O 5478   2.041   3.514   2.912
 1764HOH     H1 5479   2.135   3.524   2.931
 1764HOH     H2 5480   2.009   3.459   2.983
 1765HOH      O 5481   1.655   0.207   3.888
 1765HOH     H1 5482   1.628   0.120   3.918
 1765HOH     H2 5483   1.746   0.195   3.859
 1766HOH      O 5484   3.840   2.037   1.257
 1766HOH     H1 5485   3.776   2.072   1.195
 1766HOH     H2 5486   3.919   2.022   1.204
 1767HOH      O 5487   3.619   3.891   3.815
 1767HOH     H1 5488   3.692   3.832   3.796
 1767HOH     H2 5489   3.661   3.972   3.844
 1768HOH      O 5490   1.236   3.521   3.043
 1768HOH     H1 5491   1.172   3.586   3.072
 1768HOH     H2 5492   1.307   3.527   3.107
 1769HOH      O 5493   1.821   4.050   2.262
 1769HOH     H1 5494   1.841   4.000   2.342
 1769HOH     H2 5495   1.871   4.005   2.193
 1770HOH      O 5496   1.875   0.135   2.711
 1770HOH     H1 5497   1.873   0.143   2.615
 1770HOH     H2 5498   1.822   0.058   2.729
 1771HOH      O 5499   0.013   3.306   2.214
 1771HOH     H1 5500   0.065   3.255   2.277
 1771HOH     H2 5501  -0.042   3.362   2.268
 1772HOH      O 5502   1.016   3.923   0.366
 1772HOH     H1 5503   0.943   3.943   0.308
 1772HOH     H2 5504   1.092   3.916   0.307
 1773HOH      O 5505   1.485   1.256   0.424
 1773HOH     H1 5506   1.478   1.245   0.329
 1773HOH     H2 5507   1.500   1.350   0.435
 1774HOH      O 5508   1.821   1.445   0.729
 1774HOH     H1 5509   1.833   1.536   0.700
 1774HOH     H2 5510   1.874   1.438   0.808
 1775HOH      O 5511   2.984   1.039   3.888
 1775HOH     H1 5512   2.976   1.103   3.817
 1775HOH     H2 5513   2.974   0.954   3.845
 1776HOH      O 5514   1.081   0.810   0.722
 1776HOH     H1 5515   1.144   0.743   0.750
 1776HOH     H2 5516   1.090   0.880   0.786
 1777HOH      O 5517   0.448   3.040   1.666
 1777HOH     H1 5518   0.440   3.135   1.662
 1777HOH     H2 5519   0.486   3.016   1.581
 1778HOH      O 5520   2.980   2.051   1.520
 1778HOH     H1 5521   2.913   2.041   1.452
 1778HOH     H2 5522   2.939   2.109   1.585
 1779HOH      O 5523   2.146   3.844   3.664
 1779HOH     H1 5524   2.237   3.813   3.656
 1779HOH     H2 5525   2.093   3.766   3.647
 1780HOH      O 5526   3.261   3.739   0.710
 1780HOH     H1 5527   3.194   3.808   0.705
 1780HOH     H2 5528   3.312   3.749   0.630
 1781HOH      O 5529   2.350   1.242   2.684
 1781HOH     H1 5530   2.317   1.152   2.678
 1781HOH     H2 5531   2.371   1.266   2.594
 1782HOH      O 5532   3.654   2.271   2.288
 1782HOH     H1 5533   3.593   2.291   2.217
 1782HOH     H2 5534   3.736   2.313   2.263
 1783HOH      O 5535   0.441   2.681   1.979
 1783HOH     H1 5536   0.476   2.639   2.057
 1783HOH     H2 5537   0.461   2.774   1.991
 1784HOH      O 5538   2.169   1.223   0.214
 1784HOH     H1 5539   2.167   1.127   0.224
 1784HOH     H2 5540   2.148   1.238   0.122
 1785HOH      O 5541   2.715   1.651   3.689
 1785HOH     H1 5542   2.623   1.674   3.679
 1785HOH     H2 5543   2.762   1.734   3.678
 1786HOH      O 5544   1.366   0.418   1.021
 1786HOH     H1 5545   1.300   0.475   1.062
 1786HOH     H2 5546   1.434   0.409   1.087
 1787HOH      O 5547   1.523   3.605   2.551
 1787HOH     H1 5548   1.442   3.555   2.543
 1787HOH     H2 5549   1.496   3.696   2.541
 1788HOH      O 5550   0.992   1.892   3.023
 1788HOH     H1 5551   0.981   1.831   3.097
 1788HOH     H2 5552   0.992   1.978   3.064
 1789HOH      O 5553   3.537   0.663   2.960
 1789HOH     H1 5554   3.446   0.650   2.988
 1789HOH     H2 5555   3.575   0.575   2.961
 1790HOH      O 5556   0.876   1.960   2.604
 1790HOH     H1 5557   0.886   2.011   2.685
 1790HOH     H2 5558   0.916   1.875   2.624
 1791HOH      O 5559   3.018   3.193   2.688
 1791HOH     H1 5560   3.038   3.100   2.681
 1791HOH     H2 5561   2.941   3.206   2.634
 1792HOH      O 5562   0.450   1.127   3.733
 1792HOH     H1 5563   0.459   1.067   3.807
 1792HOH     H2 5564   0.533   1.174   3.730
 1793HOH      O 5565   0.138   3.122   3.728
 1793HOH     H1 5566   0.165   3.170   3.807
 1793HOH     H2 5567   0.133   3.030   3.756
 1794HOH      O 5568   1.434   3.046   1.089
 1794HOH     H1 5569   1.418   3.081   1.176
 1794HOH     H2 5570   1.391   3.109   1.030
 1795HOH      O 5571   3.740   1.498   3.599
 1795HOH     H1 5572   3.699   1.574   3.639
 1795HOH     H2 5573   3.776   1.530   3.516
 1796HOH      O 5574   0.686   0.247   0.758
 1796HOH     H1 5575   0.674   0.208   0.672
 1796HOH     H2 5576   0.781   0.252   0.769
 1797HOH      O 5577   1.918   3.991   0.226
 1797HOH     H1 5578   1.841   4.000   0.171
 1797HOH     H2 5579   1.885   3.954   0.308
 1798HOH      O 5580   2.106   0.436   3.531
 1798HOH     H1 5581   2.021   0.392   3.532
 1798HOH     H2 5582   2.169   0.366   3.513
 1799HOH      O 5583   3.556   2.580   0.337
 1799HOH     H1 5584   3.472   2.598   0.379
 1799HOH     H2 5585   3.538   2.585   0.243
 1800HOH      O 5586   2.551   0.335   0.710
 1800HOH     H1 5587   2.605   0.383   0.648
 1800HOH     H2 5588   2.462   0.367   0.695
 1801HOH      O 5589   4.003   3.136   0.935
 1801HOH     H1 5590   3.978   3.049   0.965
 1801HOH     H2 5591   4.098   3.138   0.942
 1802HOH      O 5592   1.861   3.787   0.855
 1802HOH     H1 5593   1.797   3.846   0.815
 1802HOH     H2 5594   1.899   3.739   0.782
 1803HOH      O 5595   1.106   1.505   2.467
 1803HOH     H1 5596   1.185   1.514   2.520
 1803HOH     H2 5597   1.067   1.592   2.467
 1804HOH      O 5598   3.038   1.549   2.548
 1804HOH     H1 5599   3.101   1.620   2.544
 1804HOH     H2 5600   2.964   1.580   2.494
 1805HOH      O 5601   0.387   0.771   0.086
 1805HOH     H1 5602   0.453   0.840   0.090
 1805HOH     H2 5603   0.410   0.712   0.157
 1806HOH      O 5604   0.895   0.294   1.554
 1806HOH     H1 5605   0.851   0.379   1.557
 1806HOH     H2 5606   0.980   0.309   1.595
 1807HOH      O 5607   2.813   0.348   3.864
 1807HOH     H1 5608   2.886   0.408   3.849
 1807HOH     H2 5609   2.855   0.263   3.876
 1808HOH      O 5610   0.962   3.941   2.715
 1808HOH     H1 5611   1.049   3.901   2.707
 1808HOH     H2 5612   0.932   3.952   2.625
 1809HOH      O 5613   3.748   0.644   2.800
 1809HOH     H1 5614   3.674   0.700   2.822
 1809HOH     H2 5615   3.738   0.568   2.857
 1810HOH      O 5616   2.030   3.606   3.609
 1810HOH     H1 5617   1.957   3.549   3.633
 1810HOH     H2 5618   2.094   3.547   3.569
 1811HOH      O 5619   3.504   1.905   0.771
 1811HOH     H1 5620   3.535   1.826   0.815
 1811HOH     H2 5621   3.581   1.938   0.725
 1812HOH      O 5622   2.041   1.365   0.924
 1812HOH     H1 5623   2.098   1.441   0.910
 1812HOH     H2 5624   1.993   1.385   1.004
 1813HOH      O 5625   3.324   2.477   3.447
 1813HOH     H1 5626   3.378   2.401   3.462
 1813HOH     H2 5627   3.237   2.451   3.477
 1814HOH      O 5628   3.652   2.333   3.582
 1814HOH     H1 5629   3.561   2.305   3.568
 1814HOH     H2 5630   3.689   2.337   3.494
 1815HOH      O 5631   2.347   2.782   1.146
 1815HOH     H1 5632   2.306   2.770   1.232
 1815HOH     H2 5633   2.393   2.865   1.153
 1816HOH      O 5634   1.369   3.226   0.171
 1816HOH     H1 5635   1.420   3.149   0.146
 1816HOH     H2 5636   1.332   3.257   0.088
 1817HOH      O 5637   0.324   2.802   2.597
 1817HOH     H1 5638   0.411   2.839   2.580
 1817HOH     H2 5639   0.341   2.710   2.617
 1818HOH      O 5640   1.379   0.410   2.595
 1818HOH     H1 5641   1.446   0.370   2.651
 1818HOH     H2 5642   1.320   0.454   2.656
 1819HOH      O 5643   1.086   2.954   3.816
 1819HOH     H1 5644   1.040   2.968   3.898
 1819HOH     H2 5645   1.179   2.947   3.841
 1820HOH      O 5646   1.290   1.562   0.426
 1820HOH     H1 5647   1.229   1.495   0.457
 1820HOH     H2 5648   1.330   1.523   0.348
 1821HOH      O 5649   2.982   0.286   2.149
 1821HOH     H1 5650   2.915   0.327   2.095
 1821HOH     H2 5651   3.026   0.360   2.192
 1822HOH      O 5652   3.352   3.000   2.441
 1822HOH     H1 5653   3.325   3.056   2.514
 1822HOH     H2 5654   3.281   2.936   2.432
 1823HOH      O 5655   0.097   3.778   2.644
 1823HOH     H1 5656   0.086   3.693   2.686
 1823HOH     H2 5657   0.096   3.758   2.550
 1824HOH      O 5658   1.635   2.440   0.822
 1824HOH     H1 5659   1.660   2.360   0.867
 1824HOH     H2 5660   1.671   2.510   0.877
 1825HOH      O 5661   0.857   2.030   0.042
 1825HOH     H1 5662   0.783   2.013  -0.017
 1825HOH     H2 5663   0.928   1.975   0.008
 1826HOH      O 5664   3.183   1.072   1.721
 1826HOH     H1 5665   3.201   1.163   1.746
 1826HOH     H2 5666   3.250   1.052   1.654
 1827HOH      O 5667   2.513   0.553   2.235
 1827HOH     H1 5668   2.497   0.509   2.319
 1827HOH     H2 5669   2.554   0.486   2.180
 1828HOH      O 5670   0.653   0.703   1.300
 1828HOH     H1 5671   0.689   0.616   1.316
 1828HOH     H2 5672   0.712   0.741   1.235
 1829HOH      O 5673   2.291   0.603   0.157
 1829HOH     H1 5674   2.257   0.643   0.076
 1829HOH     H2 5675   2.384   0.588   0.138
 1830HOH      O 5676   0.222   3.000   0.006
 1830HOH     H1 5677   0.147   3.005   0.064
 1830HOH     H2 5678   0.272   3.080   0.023
 1831HOH      O 5679   0.189   1.057   1.236
 1831HOH     H1 5680   0.132   1.093   1.304
 1831HOH     H2 5681   0.169   1.109   1.159
 1832HOH      O 5682   4.054   0.373   2.866
 1832HOH     H1 5683   3.967   0.348   2.836
 1832HOH     H2 5684   4.044   0.463   2.896
 1833HOH      O 5685   0.532   2.717   2.227
 1833HOH     H1 5686   0.512   2.810   2.224
 1833HOH     H2 5687   0.582   2.706   2.308
 1834HOH      O 5688   0.461   1.078   0.095
 1834HOH     H1 5689   0.536   1.038   0.051
 1834HOH     H2 5690   0.387   1.059   0.037
 1835HOH      O 5691   0.518   2.021   1.614
 1835HOH     H1 5692   0.607   2.054   1.631
 1835HOH     H2 5693   0.528   1.925   1.615
 1836HOH      O 5694   1.634   0.522   3.931
 1836HOH     H1 5695   1.640   0.617   3.932
 1836HOH     H2 5696   1.725   0.492   3.938
 1837HOH      O 5697   3.173   1.422   0.996
 1837HOH     H1 5698   3.079   1.436   1.002
 1837HOH     H2 5699   3.191   1.409   0.903
 1838HOH      O 5700   3.152   0.071   3.616
 1838HOH     H1 5701   3.134   0.029   3.532
 1838HOH     H2 5702   3.233   0.029   3.647
 1839HOH      O 5703   3.018   0.871   1.429
 1839HOH     H1 5704   3.019   0.834   1.517
 1839HOH     H2 5705   3.007   0.965   1.443
 1840HOH      O 5706   2.551   3.122   2.307
 1840HOH     H1 5707   2.476   3.110   2.365
 1840HOH     H2 5708   2.514   3.117   2.219
 1841HOH      O 5709   0.765   0.028   3.684
 1841HOH     H1 5710   0.696  -0.015   3.633
 1841HOH     H2 5711   0.847  -0.001   3.642
 1842HOH      O 5712   2.647   0.071   0.714
 1842HOH     H1 5713   2.613   0.160   0.727
 1842HOH     H2 5714   2.712   0.081   0.645
 1843HOH      O 5715   2.355   3.948   3.393
 1843HOH     H1 5716   2.276   3.963   3.444
 1843HOH     H2 5717   2.323   3.928   3.305
 1844HOH      O 5718   1.934   3.199   2.596
 1844HOH     H1 5719   2.026   3.192   2.622
 1844HOH     H2 5720   1.911   3.111   2.567
 1845HOH      O 5721   0.252   3.638   2.399
 1845HOH     H1 5722   0.169   3.667   2.361
 1845HOH     H2 5723   0.241   3.544   2.410
 1846HOH      O 5724   3.321   3.901   2.973
 1846HOH     H1 5725   3.226   3.895   2.960
 1846HOH     H2 5726   3.356   3.921   2.886
 1847HOH      O 5727   2.979   2.350   1.401
 1847HOH     H1 5728   2.929   2.268   1.399
 1847HOH     H2 5729   2.978   2.380   1.311
 1848HOH      O 5730   2.621   1.297   1.452
 1848HOH     H1 5731   2.649   1.383   1.421
 1848HOH     H2 5732   2.603   1.309   1.545
 1849HOH      O 5733   1.052   2.826   1.134
 1849HOH     H1 5734   1.146   2.811   1.124
 1849HOH     H2 5735   1.018   2.823   1.044
 1850HOH      O 5736   0.502   3.738   2.435
 1850HOH     H1 5737   0.547   3.659   2.462
 1850HOH     H2 5738   0.409   3.719   2.448
 1851HOH      O 5739   0.259   2.173   2.296
 1851HOH     H1 5740   0.240   2.097   2.242
 1851HOH     H2 5741   0.355   2.173   2.305
 1852HOH      O 5742   0.288   2.892   1.480
 1852HOH     H1 5743   0.308   2.959   1.414
 1852HOH     H2 5744   0.339   2.816   1.454
 1853HOH      O 5745   0.985   0.046   1.609
 1853HOH     H1 5746   0.925   0.108   1.567
 1853HOH     H2 5747   1.070   0.064   1.571
 1854HOH      O 5748   1.055   1.987   1.799
 1854HOH     H1 5749   1.103   1.905   1.787
 1854HOH     H2 5750   1.047   1.996   1.894
 1855HOH      O 5751   2.527   2.751   0.795
 1855HOH     H1 5752   2.485   2.792   0.871
 1855HOH     H2 5753   2.531   2.821   0.730
 1856HOH      O 5754   2.860   2.881   1.801
 1856HOH     H1 5755   2.920   2.921   1.739
 1856HOH     H2 5756   2.773   2.907   1.769
 1857HOH      O 5757   1.164   0.958   0.026
 1857HOH     H1 5758   1.177   0.993   0.114
 1857HOH     H2 5759   1.230   0.888   0.019
 1858HOH      O 5760   0.761   3.945   2.885
 1858HOH     H1 5761   0.680   3.946   2.834
 1858HOH     H2 5762   0.827   3.978   2.826
 1859HOH      O 5763   2.879   2.712   1.198
 1859HOH     H1 5764   2.786   2.690   1.188
 1859HOH     H2 5765   2.893   2.711   1.293
 1860HOH      O 5766   0.607   1.707   0.265
 1860HOH     H1 5767   0.659   1.780   0.298
 1860HOH     H2 5768   0.521   1.745   0.248
 1861HOH      O 5769   3.959   1.488   3.811
 1861HOH     H1 5770   3.879   1.473   3.761
 1861HOH     H2 5771   3.962   1.583   3.823
 1862HOH      O 5772   1.954   0.370   3.096
 1862HOH     H1 5773   2.004   0.290   3.083
 1862HOH     H2 5774   1.885   0.366   3.030
 1863HOH      O 5775   3.221   0.319   2.005
 1863HOH     H1 5776   3.131   0.299   2.031
 1863HOH     H2 5777   3.270   0.317   2.087
 1864HOH      O 5778   2.343   0.613   3.067
 1864HOH     H1 5779   2.257   0.633   3.031
 1864HOH     H2 5780   2.329   0.608   3.161
 1865HOH      O 5781   0.739   1.474   0.324
 1865HOH     H1 5782   0.728   1.470   0.419
 1865HOH     H2 5783   0.674   1.539   0.295
 1866HOH      O 5784   0.831   3.777   3.644
 1866HOH     H1 5785   0.771   3.725   3.590
 1866HOH     H2 5786   0.908   3.790   3.588
 1867HOH      O 5787   3.013   0.465   1.774
 1867HOH     H1 5788   2.958   0.452   1.851
 1867HOH     H2 5789   2.979   0.405   1.708
 1868HOH      O 5790   1.972   3.280   3.399
 1868HOH     H1 5791   1.999   3.193   3.371
 1868HOH     H2 5792   2.053   3.324   3.424
 1869HOH      O 5793   0.465   0.785   1.134
 1869HOH     H1 5794   0.377   0.748   1.132
 1869HOH     H2 5795   0.517   0.720   1.181
 1870HOH      O 5796   3.546   0.204   2.348
 1870HOH     H1 5797   3.455   0.180   2.329
 1870HOH     H2 5798   3.597   0.161   2.280
 1871HOH      O 5799   1.356   1.734   2.075
 1871HOH     H1 5800   1.416   1.748   2.001
 1871HOH     H2 5801   1.412   1.744   2.153
 1872HOH      O 5802   0.225   1.053   3.979
 1872HOH     H1 5803   0.209   1.030   3.887
 1872HOH     H2 5804   0.138   1.057   4.018
 1873HOH      O 5805   2.123   0.124   0.221
 1873HOH     H1 5806   2.141   0.102   0.130
 1873HOH     H2 5807   2.067   0.053   0.253
 1874HOH      O 5808   3.156   1.360   1.672
 1874HOH     H1 5809   3.137   1.403   1.588
 1874HOH     H2 5810   3.144   1.429   1.737
 1875HOH      O 5811   1.492   2.901   2.080
 1875HOH     H1 5812   1.406   2.936   2.103
 1875HOH     H2 5813   1.485   2.878   1.987
 1876HOH      O 5814   1.395   2.446   2.925
 1876HOH     H1 5815   1.376   2.352   2.930
 1876HOH     H2 5816   1.471   2.459   2.981
 1877HOH      O 5817   0.177   3.798   3.351
 1877HOH     H1 5818   0.133   3.864   3.405
 1877HOH     H2 5819   0.108   3.738   3.324
 1878HOH      O 5820   3.760   3.379   1.587
 1878HOH     H1 5821   3.771   3.390   1.493
 1878HOH     H2 5822   3.671   3.409   1.605
 1879HOH      O 5823   1.502   1.397   3.952
 1879HOH     H1 5824   1.480   1.374   3.862
 1879HOH     H2 5825   1.514   1.492   3.951
 1880HOH      O 5826   2.750   1.138   1.278
 1880HOH     H1 5827   2.829   1.120   1.329
 1880HOH     H2 5828   2.698   1.196   1.334
 1881HOH      O 5829   3.610   4.059   1.424
 1881HOH     H1 5830   3.554   3.982   1.411
 1881HOH     H2 5831   3.681   4.028   1.481
 1882HOH      O 5832   2.916   2.704   2.138
 1882HOH     H1 5833   2.866   2.689   2.218
 1882HOH     H2 5834   2.856   2.753   2.081
 1883HOH      O 5835   2.744   3.276   3.508
 1883HOH     H1 5836   2.821   3.245   3.557
 1883HOH     H2 5837   2.711   3.199   3.463
 1884HOH      O 5838   2.948   3.602   0.579
 1884HOH     H1 5839   2.969   3.615   0.487
 1884HOH     H2 5840   2.905   3.684   0.605
 1885HOH      O 5841   2.373   2.769   1.457
 1885HOH     H1 5842   2.286   2.787   1.493
 1885HOH     H2 5843   2.402   2.691   1.503
 1886HOH      O 5844   0.337   0.346   2.978
 1886HOH     H1 5845   0.290   0.268   3.009
 1886HOH     H2 5846   0.424   0.313   2.954
 1887HOH      O 5847   0.721   3.420   1.172
 1887HOH     H1 5848   0.726   3.515   1.165
 1887HOH     H2 5849   0.798   3.388   1.125
 1888HOH      O 5850   3.932   3.442   0.150
 1888HOH     H1 5851   3.966   3.531   0.148
 1888HOH     H2 5852   3.981   3.396   0.082
 1889HOH      O 5853   3.033   3.610   0.014
 1889HOH     H1 5854   2.940   3.628   0.010
 1889HOH     H2 5855   3.043   3.552   0.090
 1890HOH      O 5856   1.093   3.267   3.651
 1890HOH     H1 5857   1.094   3.265   3.555
 1890HOH     H2 5858   1.121   3.356   3.673
 1891HOH      O 5859   0.671   3.904   0.330
 1891HOH     H1 5860   0.586   3.872   0.301
 1891HOH     H2 5861   0.721   3.916   0.248
 1892HOH      O 5862   2.772   0.061   2.272
 1892HOH     H1 5863   2.755   0.043   2.180
 1892HOH     H2 5864   2.787   0.156   2.276
 1893HOH      O 5865   3.509   0.146   3.672
 1893HOH     H1 5866   3.470   0.121   3.756
 1893HOH     H2 5867   3.600   0.117   3.678
 1894HOH      O 5868   1.656   3.779   2.291
 1894HOH     H1 5869   1.678   3.855   2.237
 1894HOH     H2 5870   1.739   3.733   2.304
 1895HOH      O 5871   1.597   1.760   2.205
 1895HOH     H1 5872   1.627   1.677   2.169
 1895HOH     H2 5873   1.647   1.827   2.157
 1896HOH      O 5874   3.223   3.382   2.563
 1896HOH     H1 5875   3.206   3.295   2.599
 1896HOH     H2 5876   3.263   3.365   2.477
 1897HOH      O 5877   0.972   3.507   3.100
 1897HOH     H1 5878   1.030   3.443   3.059
 1897HOH     H2 5879   0.949   3.568   3.029
 1898HOH      O 5880   0.893   3.900   3.895
 1898HOH     H1 5881   0.955   3.971   3.877
 1898HOH     H2 5882   0.851   3.882   3.811
 1899HOH      O 5883   0.845   2.309   0.030
 1899HOH     H1 5884   0.796   2.309  -0.052
 1899HOH     H2 5885   0.863   2.216   0.047
 1900HOH      O 5886   2.240   0.749   0.714
 1900HOH     H1 5887   2.273   0.764   0.803
 1900HOH     H2 5888   2.238   0.654   0.705
 1901HOH      O 5889   3.873   2.407   1.458
 1901HOH     H1 5890   3.904   2.452   1.379
 1901HOH     H2 5891   3.779   2.396   1.444
 1902HOH      O 5892   1.208   0.182   3.029
 1902HOH     H1 5893   1.171   0.163   2.943
 1902HOH     H2 5894   1.232   0.096   3.064
 1903HOH      O 5895   0.806   0.347   3.976
 1903HOH     H1 5896   0.848   0.300   4.048
 1903HOH     H2 5897   0.814   0.288   3.901
 1904HOH      O 5898   3.659   3.950   2.318
 1904HOH     H1 5899   3.628   3.909   2.238
 1904HOH     H2 5900   3.584   3.950   2.377
 1905HOH      O 5901   2.574   1.362   2.156
 1905HOH     H1 5902   2.648   1.332   2.103
 1905HOH     H2 5903   2.556   1.450   2.124
 1906HOH      O 5904   0.450   0.528   3.497
 1906HOH     H1 5905   0.419   0.614   3.525
 1906HOH     H2 5906   0.370   0.481   3.473
 1907HOH      O 5907   0.072   2.568   1.136
 1907HOH     H1 5908   0.008   2.608   1.196
 1907HOH     H2 5909   0.036   2.481   1.117
 1908HOH      O 5910   2.561   0.565   0.110
 1908HOH     H1 5911   2.590   0.582   0.200
 1908HOH     H2 5912   2.574   0.471   0.098
 1909HOH      O 5913   3.813   1.896   2.927
 1909HOH     H1 5914   3.756   1.891   2.850
 1909HOH     H2 5915   3.760   1.938   2.994
 1910HOH      O 5916   3.954   0.576   1.875
 1910HOH     H1 5917   4.022   0.582   1.943
 1910HOH     H2 5918   3.929   0.483   1.876
 1911HOH      O 5919   2.462   1.701   3.680
 1911HOH     H1 5920   2.423   1.788   3.683
 1911HOH     H2 5921   2.413   1.650   3.744
 1912HOH      O 5922   0.289   3.102   3.140
 1912HOH     H1 5923   0.377   3.134   3.157
 1912HOH     H2 5924   0.249   3.168   3.084
 1913HOH      O 5925   1.195   1.219   3.055
 1913HOH     H1 5926   1.196   1.127   3.081
 1913HOH     H2 5927   1.285   1.238   3.028
 1914HOH      O 5928   3.556   1.933   3.056
 1914HOH     H1 5929   3.487   1.875   3.024
 1914HOH     H2 5930   3.545   2.014   3.006
 1915HOH      O 5931   3.335   0.115   1.447
 1915HOH     H1 5932   3.431   0.107   1.453
 1915HOH     H2 5933   3.318   0.135   1.356
 1916HOH      O 5934   1.180   1.432   3.800
 1916HOH     H1 5935   1.159   1.507   3.744
 1916HOH     H2 5936   1.275   1.435   3.809
 1917HOH      O 5937   2.317   0.096   2.985
 1917HOH     H1 5938   2.373   0.170   3.009
 1917HOH     H2 5939   2.348   0.070   2.899
 1918HOH      O 5940   2.545   3.043   0.696
 1918HOH     H1 5941   2.503   3.051   0.782
 1918HOH     H2 5942   2.638   3.040   0.715
 1919HOH      O 5943   0.109   1.182   1.013
 1919HOH     H1 5944   0.024   1.144   1.032
 1919HOH     H2 5945   0.090   1.255   0.954
 1920HOH      O 5946   1.658   3.155   3.941
 1920HOH     H1 5947   1.641   3.174   3.849
 1920HOH     H2 5948   1.740   3.201   3.960
 1921HOH      O 5949   0.734   2.303   2.023
 1921HOH     H1 5950   0.804   2.367   2.024
 1921HOH     H2 5951   0.661   2.346   2.067
 1922HOH      O 5952   3.311   1.633   0.319
 1922HOH     H1 5953   3.340   1.624   0.409
 1922HOH     H2 5954   3.313   1.728   0.303
 1923HOH      O 5955   0.974   2.082   2.820
 1923HOH     H1 5956   0.959   2.155   2.880
 1923HOH     H2 5957   1.032   2.023   2.869
 1924HOH      O 5958   0.996   2.804   0.113
 1924HOH     H1 5959   0.997   2.890   0.071
 1924HOH     H2 5960   0.962   2.821   0.201
 1925HOH      O 5961   0.095   1.835   0.929
 1925HOH     H1 5962   0.085   1.853   1.023
 1925HOH     H2 5963   0.008   1.809   0.900
 1926HOH      O 5964   3.435   1.586   2.925
 1926HOH     H1 5965   3.484   1.628   2.855
 1926HOH     H2 5966   3.343   1.605   2.905
 1927HOH      O 5967   2.687   3.764   2.136
 1927HOH     H1 5968   2.616   3.802   2.187
 1927HOH     H2 5969   2.764   3.771   2.193
 1928HOH      O 5970   3.017   0.032   2.440
 1928HOH     H1 5971   2.923   0.016   2.444
 1928HOH     H2 5972   3.038   0.072   2.524
 1929HOH      O 5973   3.777   3.654   1.720
 1929HOH     H1 5974   3.689   3.621   1.700
 1929HOH     H2 5975   3.820   3.582   1.765
 1930HOH      O 5976   1.796   3.289   3.004
 1930HOH     H1 5977   1.784   3.329   3.091
 1930HOH     H2 5978   1.826   3.200   3.023
 1931HOH      O 5979   3.579   2.975   3.916
 1931HOH     H1 5980   3.617   2.910   3.856
 1931HOH     H2 5981   3.573   3.055   3.864
 1932HOH      O 5982   3.273   1.150   3.465
 1932HOH     H1 5983   3.318   1.156   3.381
 1932HOH     H2 5984   3.185   1.118   3.443
 1933HOH      O 5985   2.004   0.931   1.515
 1933HOH     H1 5986   2.069   0.883   1.465
 1933HOH     H2 5987   2.037   1.021   1.517
 1934HOH      O 5988   2.337   1.502   0.305
 1934HOH     H1 5989   2.358   1.411   0.284
 1934HOH     H2 5990   2.255   1.496   0.355
 1935HOH      O 5991   3.076   0.837   3.583
 1935HOH     H1 5992   3.103   0.843   3.674
 1935HOH     H2 5993   2.980   0.841   3.587
 1936HOH      O 5994   1.920   2.418   1.449
 1936HOH     H1 5995   1.971   2.470   1.511
 1936HOH     H2 5996   1.845   2.474   1.427
 1937HOH      O 5997   3.610   0.367   0.056
 1937HOH     H1 5998   3.518   0.372   0.082
 1937HOH     H2 5999   3.651   0.313   0.123
 1938HOH      O 6000   0.724   1.371   2.575
 1938HOH     H1 6001   0.633   1.346   2.592
 1938HOH     H2 6002   0.723   1.406   2.486
 1939HOH      O 6003   3.194   2.894   1.808
 1939HOH     H1 6004   3.172   2.835   1.880
 1939HOH     H2 6005   3.182   2.842   1.729
 1940HOH      O 6006   2.371   0.068   2.641
 1940HOH     H1 6007   2.450   0.031   2.602
 1940HOH     H2 6008   2.370   0.159   2.612
 1941HOH      O 6009   3.127   0.360   3.984
 1941HOH     H1 6010   3.099   0.281   3.937
 1941HOH     H2 6011   3.178   0.409   3.920
 1942HOH      O 6012   0.660   0.985   0.854
 1942HOH     H1 6013   0.605   1.042   0.907
 1942HOH     H2 6014   0.615   0.980   0.770
 1943HOH      O 6015   3.703   2.493   2.659
 1943HOH     H1 6016   3.747   2.518   2.578
 1943HOH     H2 6017   3.614   2.472   2.633
 1944HOH      O 6018   3.834   3.736   3.897
 1944HOH     H1 6019   3.867   3.756   3.985
 1944HOH     H2 6020   3.868   3.649   3.878
 1945HOH      O 6021   1.446   1.294   2.937
 1945HOH     H1 6022   1.450   1.367   2.876
 1945HOH     H2 6023   1.508   1.230   2.902
 1946HOH      O 6024   1.644   3.226   3.618
 1946HOH     H1 6025   1.645   3.220   3.522
 1946HOH     H2 6026   1.552   3.238   3.641
 1947HOH      O 6027   3.559   2.674   0.818
 1947HOH     H1 6028   3.622   2.630   0.760
 1947HOH     H2 6029   3.579   2.768   0.806
 1948HOH      O 6030   3.346   2.115   1.845
 1948HOH     H1 6031   3.323   2.203   1.873
 1948HOH     H2 6032   3.382   2.074   1.924
 1949HOH      O 6033   0.650   3.084   0.880
 1949HOH     H1 6034   0.630   3.162   0.828
 1949HOH     H2 6035   0.746   3.078   0.878
 1950HOH      O 6036   1.476   3.262   0.611
 1950HOH     H1 6037   1.430   3.184   0.581
 1950HOH     H2 6038   1.447   3.331   0.551
 1951HOH      O 6039   1.152   2.983   3.271
 1951HOH     H1 6040   1.219   3.021   3.327
 1951HOH     H2 6041   1.069   3.016   3.307
 1952HOH      O 6042   3.237   0.682   2.285
 1952HOH     H1 6043   3.283   0.599   2.273
 1952HOH     H2 6044   3.305   0.743   2.315
 1953HOH      O 6045   0.786   2.996   3.951
 1953HOH     H1 6046   0.791   3.090   3.934
 1953HOH     H2 6047   0.704   2.984   3.997
 1954HOH      O 6048   0.432   3.021   3.415
 1954HOH     H1 6049   0.482   3.032   3.334
 1954HOH     H2 6050   0.486   2.963   3.469
 1955HOH      O 6051   3.909   0.979   3.484
 1955HOH     H1 6052   3.947   1.036   3.418
 1955HOH     H2 6053   3.975   0.912   3.499
 1956HOH      O 6054   3.761   3.795   2.521
 1956HOH     H1 6055   3.743   3.867   2.461
 1956HOH     H2 6056   3.678   3.747   2.527
 1957HOH      O 6057   0.076   3.278   1.368
 1957HOH     H1 6058   0.037   3.364   1.381
 1957HOH     H2 6059   0.011   3.228   1.319
 1958HOH      O 6060   4.013   0.142   2.584
 1958HOH     H1 6061   3.941   0.164   2.643
 1958HOH     H2 6062   4.091   0.148   2.639
 1959HOH      O 6063   2.356   1.384   1.473
 1959HOH     H1 6064   2.434   1.336   1.448
 1959HOH     H2 6065   2.333   1.436   1.396
 1960HOH      O 6066   3.158   1.167   0.185
 1960HOH     H1 6067   3.148   1.075   0.160
 1960HOH     H2 6068   3.238   1.195   0.142
 1961HOH      O 6069   3.653   0.290   1.301
 1961HOH     H1 6070   3.645   0.318   1.392
 1961HOH     H2 6071   3.636   0.196   1.304
 1962HOH      O 6072   2.971  -0.016   0.300
 1962HOH     H1 6073   2.994   0.054   0.360
 1962HOH     H2 6074   3.020   0.004   0.220
 1963HOH      O 6075   3.521   3.401   1.926
 1963HOH     H1 6076   3.548   3.318   1.887
 1963HOH     H2 6077   3.515   3.384   2.019
 1964HOH      O 6078   2.690   2.718   2.309
 1964HOH     H1 6079   2.685   2.681   2.397
 1964HOH     H2 6080   2.728   2.805   2.322
 1965HOH      O 6081   3.729   0.914   0.417
 1965HOH     H1 6082   3.724   0.819   0.411
 1965HOH     H2 6083   3.754   0.942   0.329
 1966HOH      O 6084   1.073   2.359   0.942
 1966HOH     H1 6085   1.081   2.396   0.854
 1966HOH     H2 6086   1.050   2.434   0.997
 1967HOH      O 6087   0.333   0.684   0.454
 1967HOH     H1 6088   0.328   0.761   0.511
 1967HOH     H2 6089   0.399   0.708   0.389
 1968HOH      O 6090   4.040   3.739   0.864
 1968HOH     H1 6091   3.991   3.756   0.945
 1968HOH     H2 6092   3.978   3.693   0.808
 1969HOH      O 6093   2.736   0.955   0.835
 1969HOH     H1 6094   2.711   0.865   0.855
 1969HOH     H2 6095   2.770   0.951   0.746
 1970HOH      O 6096   3.638   2.915   0.728
 1970HOH     H1 6097   3.717   2.870   0.700
 1970HOH     H2 6098   3.606   2.961   0.650
 1971HOH      O 6099   0.147   3.926   0.145
 1971HOH     H1 6100   0.072   3.866   0.155
 1971HOH     H2 6101   0.162   3.960   0.233
 1972HOH      O 6102   4.051   0.453   0.089
 1972HOH     H1 6103   4.037   0.386   0.156
 1972HOH     H2 6104   3.968   0.501   0.085
 1973HOH      O 6105   3.824   1.998   0.875
 1973HOH     H1 6106   3.846   2.088   0.897
 1973HOH     H2 6107   3.758   2.005   0.806
 1974HOH      O 6108   1.097   2.513   0.712
 1974HOH     H1 6109   1.155   2.450   0.670
 1974HOH     H2 6110   1.105   2.593   0.660
 1975HOH      O 6111   3.956   3.696   3.289
 1975HOH     H1 6112   3.878   3.745   3.315
 1975HOH     H2 6113   3.932   3.604   3.297
 1976HOH      O 6114   2.361   0.754   0.962
 1976HOH     H1 6115   2.382   0.847   0.975
 1976HOH     H2 6116   2.445   0.709   0.974
 1977HOH      O 6117   1.988   0.698   0.682
 1977HOH     H1 6118   1.966   0.748   0.603
 1977HOH     H2 6119   2.071   0.736   0.711
 1978HOH      O 6120   0.415   2.501   2.628
 1978HOH     H1 6121   0.330   2.463   2.606
 1978HOH     H2 6122   0.471   2.479   2.554
 1979HOH      O 6123   1.594   2.942   3.592
 1979HOH     H1 6124   1.673   2.980   3.632
 1979HOH     H2 6125   1.594   2.977   3.503
 1980HOH      O 6126   3.276   2.135   2.139
 1980HOH     H1 6127   3.216   2.069   2.103
 1980HOH     H2 6128   3.304   2.099   2.223
 1981HOH      O 6129   1.585   0.266   0.220
 1981HOH     H1 6130   1.630   0.211   0.155
 1981HOH     H2 6131   1.653   0.327   0.249
 1982HOH      O 6132   3.617   1.449   1.177
 1982HOH     H1 6133   3.634   1.437   1.271
 1982HOH     H2 6134   3.590   1.541   1.169
 1983HOH      O 6135   0.860   1.175   2.393
 1983HOH     H1 6136   0.855   1.269   2.376
 1983HOH     H2 6137   0.806   1.161   2.471
 1984HOH      O 6138   2.902   3.610   1.026
 1984HOH     H1 6139   2.941   3.525   1.047
 1984HOH     H2 6140   2.838   3.590   0.958
 1985HOH      O 6141   2.766   3.248   2.467
 1985HOH     H1 6142   2.721   3.206   2.393
 1985HOH     H2 6143   2.698   3.254   2.535
 1986HOH      O 6144   2.327   0.334   0.967
 1986HOH     H1 6145   2.280   0.375   1.039
 1986HOH     H2 6146   2.287   0.248   0.958
 1987HOH      O 6147   0.126   1.902   2.441
 1987HOH     H1 6148   0.057   1.842   2.468
 1987HOH     H2 6149   0.108   1.983   2.488
 1988HOH      O 6150   3.871   2.397   2.152
 1988HOH     H1 6151   3.930   2.403   2.077
 1988HOH     H2 6152   3.928   2.380   2.226
 1989HOH      O 6153   2.834   3.296   3.020
 1989HOH     H1 6154   2.882   3.267   3.097
 1989HOH     H2 6155   2.901   3.307   2.952
 1990HOH      O 6156   0.425   0.703   1.462
 1990HOH     H1 6157   0.404   0.629   1.405
 1990HOH     H2 6158   0.508   0.736   1.429
 1991HOH      O 6159   0.050   2.512   2.666
 1991HOH     H1 6160  -0.028   2.501   2.720
 1991HOH     H2 6161   0.088   2.425   2.661
 1992HOH      O 6162   3.004   0.738   0.554
 1992HOH     H1 6163   2.960   0.783   0.481
 1992HOH     H2 6164   3.082   0.699   0.514
 1993HOH      O 6165   1.115   2.640   3.969
 1993HOH     H1 6166   1.056   2.704   4.009
 1993HOH     H2 6167   1.123   2.571   4.034
 1994HOH      O 6168   2.735   3.575   1.841
 1994HOH     H1 6169   2.739   3.665   1.874
 1994HOH     H2 6170   2.695   3.582   1.754
 1995HOH      O 6171   0.572   3.288   0.749
 1995HOH     H1 6172   0.480   3.314   0.746
 1995HOH     H2 6173   0.619   3.362   0.711
 1996HOH      O 6174   1.211   0.242   1.544
 1996HOH     H1 6175   1.295   0.197   1.558
 1996HOH     H2 6176   1.230   0.334   1.564
 1997HOH      O 6177   0.886   0.914   1.500
 1997HOH     H1 6178   0.827   0.967   1.447
 1997HOH     H2 6179   0.829   0.864   1.558
 1998HOH      O 6180   3.709   2.620   3.966
 1998HOH     H1 6181   3.742   2.559   3.901
 1998HOH     H2 6182   3.787   2.650   4.013
 1999HOH      O 6183   3.249   1.029   2.996
 1999HOH     H1 6184   3.295   1.079   2.929
 1999HOH     H2 6185   3.275   0.938   2.980
 2000HOH      O 6186   3.458   2.337   2.078
 2000HOH     H1 6187   3.388   2.272   2.077
 2000HOH     H2 6188   3.413   2.420   2.090
 2001HOH      O 6189   1.937   2.597   2.832
 2001HOH     H1 6190   2.003   2.529   2.847
 2001HOH     H2 6191   1.853   2.552   2.837
 2002HOH      O 6192   0.754   1.768   2.246
 2002HOH     H1 6193   0.743   1.855   2.208
 2002HOH     H2 6194   0.845   1.766   2.276
 2003HOH      O 6195   2.671   3.832   0.513
 2003HOH     H1 6196   2.752   3.845   0.562
 2003HOH     H2 6197   2.603   3.823   0.579
 2004HOH      O 6198   0.329   3.690   3.595
 2004HOH     H1 6199   0.283   3.699   3.511
 2004HOH     H2 6200   0.377   3.608   3.588
 2005HOH      O 6201   3.246   3.081   1.444
 2005HOH     H1 6202   3.309   3.014   1.471
 2005HOH     H2 6203   3.264   3.094   1.351
 2006HOH      O 6204   2.079   3.410   2.117
 2006HOH     H1 6205   2.012   3.349   2.086
 2006HOH     H2 6206   2.072   3.407   2.212
 2007HOH      O 6207   2.563   3.969   2.505
 2007HOH     H1 6208   2.636   3.917   2.539
 2007HOH     H2 6209   2.558   3.947   2.412
 2008HOH      O 6210   3.507   2.612   1.943
 2008HOH     H1 6211   3.462   2.681   1.990
 2008HOH     H2 6212   3.443   2.581   1.879
 2009HOH      O 6213   3.584   1.767   0.276
 2009HOH     H1 6214   3.534   1.840   0.314
 2009HOH     H2 6215   3.671   1.776   0.314
 2010HOH      O 6216   3.911   2.781   3.533
 2010HOH     H1 6217   3.988   2.807   3.583
 2010HOH     H2 6218   3.843   2.770   3.599
 2011HOH      O 6219   2.749   0.931   3.575
 2011HOH     H1 6220   2.780   0.871   3.643
 2011HOH     H2 6221   2.721   1.009   3.622
 2012HOH      O 6222   1.975   1.333   1.486
 2012HOH     H1 6223   1.928   1.275   1.545
 2012HOH     H2 6224   1.952   1.421   1.514
 2013HOH      O 6225   0.515   2.122   0.679
 2013HOH     H1 6226   0.526   2.027   0.689
 2013HOH     H2 6227   0.431   2.132   0.635
 2014HOH      O 6228   3.715   2.394   1.118
 2014HOH     H1 6229   3.657   2.387   1.194
 2014HOH     H2 6230   3.795   2.349   1.145
 2015HOH      O 6231   1.359   2.953   3.900
 2015HOH     H1 6232   1.388   2.981   3.987
 2015HOH     H2 6233   1.381   2.860   3.896
 2016HOH      O 6234   0.382   2.341   3.124
 2016HOH     H1 6235   0.341   2.425   3.100
 2016HOH     H2 6236   0.311   2.289   3.161
 2017HOH      O 6237   2.798   2.300   0.897
 2017HOH     H1 6238   2.728   2.235   0.891
 2017HOH     H2 6239   2.757   2.382   0.869
 2018HOH      O 6240   3.199   2.162   0.792
 2018HOH     H1 6241   3.213   2.110   0.713
 2018HOH     H2 6242   3.153   2.241   0.762
 2019HOH      O 6243   3.006   1.585   3.739
 2019HOH     H1 6244   2.986   1.492   3.737
 2019HOH     H2 6245   3.102   1.589   3.743
 2020HOH      O 6246   2.940   1.506   0.121
 2020HOH     H1 6247   2.983   1.543   0.044
 2020HOH     H2 6248   2.931   1.579   0.182
 2021HOH      O 6249   2.461   1.733   2.867
 2021HOH     H1 6250   2.479   1.744   2.773
 2021HOH     H2 6251   2.544   1.704   2.904
 2022HOH      O 6252   1.648   3.979   1.840
 2022HOH     H1 6253   1.578   4.032   1.878
 2022HOH     H2 6254   1.718   4.042   1.822
 2023HOH      O 6255   2.283   0.241   3.435
 2023HOH     H1 6256   2.338   0.259   3.359
 2023HOH     H2 6257   2.212   0.187   3.401
 2024HOH      O 6258   3.732   0.093   2.884
 2024HOH     H1 6259   3.732  -0.002   2.898
 2024HOH     H2 6260   3.640   0.114   2.866
 2025HOH      O 6261   0.684   0.040   2.046
 2025HOH     H1 6262   0.608   0.081   2.088
 2025HOH     H2 6263   0.713   0.104   1.981
 2026HOH      O 6264   3.291   1.767   1.451
 2026HOH     H1 6265   3.291   1.712   1.373
 2026HOH     H2 6266   3.217   1.736   1.503
 2027HOH      O 6267   2.903   1.736   1.372
 2027HOH     H1 6268   2.975   1.744   1.311
 2027HOH     H2 6269   2.883   1.826   1.398
 2028HOH      O 6270   2.183   3.906   2.230
 2028HOH     H1 6271   2.166   3.828   2.282
 2028HOH     H2 6272   2.105   3.918   2.177
 2029HOH      O 6273   0.701   1.519   3.745
 2029HOH     H1 6274   0.701   1.560   3.832
 2029HOH     H2 6275   0.620   1.549   3.704
 2030HOH      O 6276   2.982   1.134   0.884
 2030HOH     H1 6277   3.045   1.146   0.955
 2030HOH     H2 6278   3.004   1.050   0.845
 2031HOH      O 6279   1.455   3.559   3.785
 2031HOH     H1 6280   1.455   3.577   3.879
 2031HOH     H2 6281   1.548   3.553   3.762
 2032HOH      O 6282   0.009   1.800   1.632
 2032HOH     H1 6283   0.056   1.763   1.706
 2032HOH     H2 6284   0.077   1.819   1.567
 2033HOH      O 6285   2.304   3.031   0.553
 2033HOH     H1 6286   2.256   2.950   0.573
 2033HOH     H2 6287   2.391   3.017   0.591
 2034HOH      O 6288   3.146   1.703   4.004
 2034HOH     H1 6289   3.191   1.695   3.920
 2034HOH     H2 6290   3.198   1.651   4.065
 2035HOH      O 6291   0.849   0.023   2.493
 2035HOH     H1 6292   0.837   0.107   2.537
 2035HOH     H2 6293   0.815   0.037   2.405
 2036HOH      O 6294   0.120   0.695   2.509
 2036HOH     H1 6295   0.149   0.679   2.599
 2036HOH     H2 6296   0.182   0.645   2.455
 2037HOH      O 6297   0.525   3.179   0.260
 2037HOH     H1 6298   0.505   3.152   0.350
 2037HOH     H2 6299   0.451   3.147   0.208
 2038HOH      O 6300   2.654   3.109   3.151
 2038HOH     H1 6301   2.721   3.148   3.095
 2038HOH     H2 6302   2.573   3.116   3.100
 2039HOH      O 6303   3.029   0.844   2.391
 2039HOH     H1 6304   3.083   0.773   2.356
 2039HOH     H2 6305   3.044   0.843   2.485
 2040HOH      O 6306   3.425   3.869   3.468
 2040HOH     H1 6307   3.386   3.949   3.432
 2040HOH     H2 6308   3.389   3.863   3.557
 2041HOH      O 6309   0.011   2.650   1.628
 2041HOH     H1 6310   0.103   2.635   1.648
 2041HOH     H2 6311  -0.028   2.562   1.627
 2042HOH      O 6312   0.682   1.739   1.129
 2042HOH     H1 6313   0.593   1.768   1.111
 2042HOH     H2 6314   0.728   1.747   1.045
 2043HOH      O 6315   0.698   1.126   3.484
 2043HOH     H1 6316   0.701   1.187   3.557
 2043HOH     H2 6317   0.649   1.172   3.416
 2044HOH      O 6318   3.821   2.653   1.962
 2044HOH     H1 6319   3.905   2.609   1.952
 2044HOH     H2 6320   3.813   2.707   1.884
 2045HOH      O 6321   1.128   1.515   1.764
 2045HOH     H1 6322   1.168   1.443   1.715
 2045HOH     H2 6323   1.085   1.472   1.838
 2046HOH      O 6324   1.673   0.654   2.984
 2046HOH     H1 6325   1.709   0.630   2.898
 2046HOH     H2 6326   1.747   0.696   3.029
 2047HOH      O 6327   3.654   3.486   3.999
 2047HOH     H1 6328   3.581   3.547   3.987
 2047HOH     H2 6329   3.685   3.468   3.911
 2048HOH      O 6330   0.298   0.490   1.713
 2048HOH     H1 6331   0.367   0.549   1.681
 2048HOH     H2 6332   0.250   0.542   1.778
 2049HOH      O 6333   2.475   3.837   2.268
 2049HOH     H1 6334   2.455   3.745   2.278
 2049HOH     H2 6335   2.397   3.876   2.229
 2050HOH      O 6336   3.142   2.626   1.592
 2050HOH     H1 6337   3.124   2.560   1.525
 2050HOH     H2 6338   3.237   2.636   1.591
 2051HOH      O 6339   1.202   0.026   2.035
 2051HOH     H1 6340   1.273   0.086   2.015
 2051HOH     H2 6341   1.135   0.046   1.969
 2052HOH      O 6342   1.189   0.576   1.166
 2052HOH     H1 6343   1.113   0.622   1.129
 2052HOH     H2 6344   1.153   0.492   1.196
 2053HOH      O 6345   2.865   2.906   2.429
 2053HOH     H1 6346   2.843   3.000   2.427
 2053HOH     H2 6347   2.957   2.903   2.402
 2054HOH      O 6348   1.022   0.825   3.396
 2054HOH     H1 6349   1.102   0.831   3.448
 2054HOH     H2 6350   0.954   0.860   3.454
 2055HOH      O 6351   1.893   2.964   3.554
 2055HOH     H1 6352   1.944   2.895   3.598
 2055HOH     H2 6353   1.944   2.984   3.476
 2056HOH      O 6354   2.931   1.853   1.890
 2056HOH     H1 6355   3.011   1.865   1.839
 2056HOH     H2 6356   2.861   1.858   1.825
 2057HOH      O 6357   3.399   2.399   1.590
 2057HOH     H1 6358   3.332   2.368   1.530
 2057HOH     H2 6359   3.351   2.422   1.670
 2058HOH      O 6360   1.003   3.328   1.243
 2058HOH     H1 6361   0.973   3.241   1.220
 2058HOH     H2 6362   1.028   3.322   1.335
 2059HOH      O 6363   1.509   0.538   0.402
 2059HOH     H1 6364   1.590   0.488   0.396
 2059HOH     H2 6365   1.511   0.577   0.489
 2060HOH      O 6366   1.723   0.961   0.643
 2060HOH     H1 6367   1.765   0.920   0.568
 2060HOH     H2 6368   1.750   1.053   0.640
 2061HOH      O 6369   0.577   2.236   3.911
 2061HOH     H1 6370   0.518   2.304   3.879
 2061HOH     H2 6371   0.522   2.159   3.924
 2062HOH      O 6372   0.407   3.353   1.823
 2062HOH     H1 6373   0.435   3.444   1.820
 2062HOH     H2 6374   0.311   3.358   1.830
 2063HOH      O 6375   3.900   1.062   2.368
 2063HOH     H1 6376   3.903   1.157   2.370
 2063HOH     H2 6377   3.991   1.035   2.354
 2064HOH      O 6378   1.246   3.842   2.670
 2064HOH     H1 6379   1.283   3.823   2.756
 2064HOH     H2 6380   1.322   3.847   2.612
 2065HOH      O 6381   3.108   2.306   1.955
 2065HOH     H1 6382   3.024   2.260   1.952
 2065HOH     H2 6383   3.140   2.290   2.044
 2066HOH      O 6384   1.388   1.051   3.590
 2066HOH     H1 6385   1.376   1.135   3.544
 2066HOH     H2 6386   1.327   1.055   3.664
 2067HOH      O 6387   1.370   1.560   2.548
 2067HOH     H1 6388   1.440   1.518   2.497
 2067HOH     H2 6389   1.388   1.654   2.539
 2068HOH      O 6390   3.988   2.488   3.472
 2068HOH     H1 6391   4.033   2.469   3.554
 2068HOH     H2 6392   3.994   2.583   3.463
 2069HOH      O 6393   3.803   0.809   0.822
 2069HOH     H1 6394   3.735   0.874   0.839
 2069HOH     H2 6395   3.816   0.765   0.906
 2070HOH      O 6396   2.805   1.258   0.711
 2070HOH     H1 6397   2.872   1.241   0.645
 2070HOH     H2 6398   2.842   1.221   0.792
 2071HOH      O 6399   3.672   3.136   1.854
 2071HOH     H1 6400   3.630   3.071   1.796
 2071HOH     H2 6401   3.648   3.108   1.942
 2072HOH      O 6402   3.511   3.641   3.330
 2072HOH     H1 6403   3.502   3.667   3.239
 2072HOH     H2 6404   3.450   3.698   3.377
 2073HOH      O 6405   1.542   2.977   3.123
 2073HOH     H1 6406   1.637   2.969   3.126
 2073HOH     H2 6407   1.512   2.890   3.096
 2074HOH      O 6408   2.581   3.708   2.837
 2074HOH     H1 6409   2.670   3.735   2.858
 2074HOH     H2 6410   2.590   3.662   2.753
 2075HOH      O 6411   2.348   3.631   3.672
 2075HOH     H1 6412   2.346   3.581   3.753
 2075HOH     H2 6413   2.438   3.622   3.640
 2076HOH      O 6414   2.825   2.999   3.773
 2076HOH     H1 6415   2.779   2.915   3.772
 2076HOH     H2 6416   2.838   3.020   3.681
 2077HOH      O 6417   2.268   2.287   1.524
 2077HOH     H1 6418   2.202   2.289   1.455
 2077HOH     H2 6419   2.219   2.297   1.605
 2078HOH      O 6420   0.151   1.052   1.768
 2078HOH     H1 6421   0.202   1.133   1.778
 2078HOH     H2 6422   0.185   1.013   1.687
 2079HOH      O 6423   3.062   1.594   1.532
 2079HOH     H1 6424   2.991   1.639   1.579
 2079HOH     H2 6425   3.025   1.576   1.446
 2080HOH      O 6426   3.037   0.491   2.619
 2080HOH     H1 6427   2.972   0.560   2.611
 2080HOH     H2 6428   3.115   0.534   2.654
 2081HOH      O 6429   0.997   0.033   3.533
 2081HOH     H1 6430   0.968   0.114   3.492
 2081HOH     H2 6431   1.081   0.013   3.492
 2082HOH      O 6432   1.183   3.711   2.319
 2082HOH     H1 6433   1.125   3.648   2.363
 2082HOH     H2 6434   1.180   3.789   2.374
 2083HOH      O 6435   3.682   3.845   3.342
 2083HOH     H1 6436   3.596   3.864   3.381
 2083HOH     H2 6437   3.661   3.805   3.258
 2084HOH      O 6438   2.955   1.111   2.335
 2084HOH     H1 6439   2.982   1.028   2.375
 2084HOH     H2 6440   2.976   1.100   2.242
 2085HOH      O 6441   0.651   0.983   2.571
 2085HOH     H1 6442   0.571   0.973   2.622
 2085HOH     H2 6443   0.621   0.993   2.481
 2086HOH      O 6444   2.018   2.161   0.314
 2086HOH     H1 6445   1.980   2.216   0.383
 2086HOH     H2 6446   2.045   2.223   0.247
 2087HOH      O 6447   1.554   2.363   0.560
 2087HOH     H1 6448   1.609   2.287   0.539
 2087HOH     H2 6449   1.595   2.400   0.639
 2088HOH      O 6450   3.867   1.391   2.688
 2088HOH     H1 6451   3.857   1.486   2.701
 2088HOH     H2 6452   3.779   1.361   2.666
 2089HOH      O 6453   0.264   3.055   0.702
 2089HOH     H1 6454   0.264   3.151   0.706
 2089HOH     H2 6455   0.204   3.035   0.630
 2090HOH      O 6456   1.033   1.812   0.410
 2090HOH     H1 6457   1.020   1.733   0.358
 2090HOH     H2 6458   0.947   1.854   0.413
 2091HOH      O 6459   3.696   1.715   3.358
 2091HOH     H1 6460   3.716   1.678   3.273
 2091HOH     H2 6461   3.605   1.745   3.351
 2092HOH      O 6462   2.797   1.292   1.992
 2092HOH     H1 6463   2.819   1.384   2.007
 2092HOH     H2 6464   2.870   1.243   2.031
 2093HOH      O 6465   1.215   3.604   1.616
 2093HOH     H1 6466   1.299   3.635   1.583
 2093HOH     H2 6467   1.150   3.648   1.562
 2094HOH      O 6468   3.066   3.731   0.340
 2094HOH     H1 6469   3.030   3.805   0.291
 2094HOH     H2 6470   3.149   3.764   0.375
 2095HOH      O 6471   2.950   0.216   1.634
 2095HOH     H1 6472   3.009   0.155   1.679
 2095HOH     H2 6473   2.992   0.232   1.550
 2096HOH      O 6474   1.272   3.285   3.954
 2096HOH     H1 6475   1.248   3.358   3.897
 2096HOH     H2 6476   1.325   3.228   3.898
 2097HOH      O 6477   1.617   0.638   2.455
 2097HOH     H1 6478   1.674   0.632   2.532
 2097HOH     H2 6479   1.673   0.674   2.387
 2098HOH      O 6480   3.540   1.320   2.826
 2098HOH     H1 6481   3.477   1.255   2.794
 2098HOH     H2 6482   3.487   1.385   2.871
 2099HOH      O 6483   2.578   3.299   0.521
 2099HOH     H1 6484   2.483   3.301   0.509
 2099HOH     H2 6485   2.593   3.223   0.578
 2100HOH      O 6486   2.439   3.306   1.717
 2100HOH     H1 6487   2.428   3.349   1.802
 2100HOH     H2 6488   2.386   3.358   1.657
 2101HOH      O 6489   1.527   0.906   2.512
 2101HOH     H1 6490   1.443   0.936   2.547
 2101HOH     H2 6491   1.523   0.811   2.519
 2102HOH      O 6492   1.351   3.095   3.414
 2102HOH     H1 6493   1.362   3.112   3.507
 2102HOH     H2 6494   1.437   3.110   3.376
 2103HOH      O 6495   1.262   2.265   3.406
 2103HOH     H1 6496   1.200   2.335   3.390
 2103HOH     H2 6497   1.210   2.193   3.441
 2104HOH      O 6498   3.996   3.455   2.460
 2104HOH     H1 6499   4.007   3.545   2.432
 2104HOH     H2 6500   3.972   3.462   2.553
 2105HOH      O 6501   1.974   2.904   0.185
 2105HOH     H1 6502   2.064   2.919   0.215
 2105HOH     H2 6503   1.985   2.863   0.099
 2106HOH      O 6504   0.348   3.594   0.283
 2106HOH     H1 6505   0.428   3.543   0.292
 2106HOH     H2 6506   0.322   3.581   0.191
 2107HOH      O 6507   3.395   1.910   3.728
 2107HOH     H1 6508   3.377   1.912   3.822
 2107HOH     H2 6509   3.371   1.997   3.697
 2108HOH      O 6510   3.807   0.594   0.047
 2108HOH     H1 6511   3.770   0.662  -0.010
 2108HOH     H2 6512   3.760   0.514   0.023
 2109HOH      O 6513   3.725   0.942   3.272
 2109HOH     H1 6514   3.793   0.940   3.339
 2109HOH     H2 6515   3.685   1.028   3.282
 2110HOH      O 6516   3.460   1.378   1.920
 2110HOH     H1 6517   3.407   1.300   1.938
 2110HOH     H2 6518   3.543   1.361   1.966
 2111HOH      O 6519   2.569   1.864   1.361
 2111HOH     H1 6520   2.542   1.789   1.307
 2111HOH     H2 6521   2.488   1.896   1.401
   4.02727   4.02727   4.02727   0.00000   0.00000   0.00000   0.00000   0.00000   0.00000
