Generated with MDTraj, t= 1884.0
 6521
    1MOL     O1    1   2.591   1.006   3.043
    1MOL     O2    2   2.566   1.204   2.955
    1MOL     N1    3   2.608   1.090   2.956
    1MOL     C1    4   2.683   1.044   2.834
    1MOL     C2    5   2.714   0.907   2.813
    1MOL     C3    6   2.740   1.135   2.742
    1MOL     C4    7   2.789   0.857   2.701
    1MOL     C5    8   2.819   1.088   2.636
    1MOL     C6    9   2.842   0.953   2.610
    1MOL     C7   10   2.827   0.709   2.688
    1MOL     O3   11   2.773   0.624   2.758
    1MOL     O4   12   2.920   0.681   2.615
    1MOL     H1   13   2.682   0.840   2.892
    1MOL     H2   14   2.732   1.243   2.745
    1MOL     H3   15   2.866   1.163   2.573
    1MOL     H4   16   2.910   0.926   2.530
    2OCB     C1   17   2.994   2.694   2.994
    2OCB     C2   18   2.872   2.643   2.752
    2OCB     C3   19   2.880   2.765   2.964
    2OCB     C4   20   3.045   2.600   2.911
    2OCB     C5   21   2.981   2.575   2.791
    2OCB     C6   22   2.823   2.745   2.838
    2OCB     O1   23   2.800   2.596   2.648
    2OCB     C7   24   2.695   2.827   2.800
    2OCB     C8   25   2.675   2.522   2.668
    2OCB     O2   26   2.565   2.615   2.661
    2OCB     C9   27   2.502   2.664   2.771
    2OCB    C10   28   2.564   2.753   2.853
    2OCB    C11   29   2.507   2.788   2.972
    2OCB    C12   30   2.400   2.588   2.825
    2OCB    C13   31   2.405   2.714   3.027
    2OCB    C14   32   2.349   2.610   2.950
    2OCB     O3   33   2.259   2.518   2.997
    2OCB    C15   34   2.357   2.746   3.164
    2OCB    C16   35   2.427   2.649   3.267
    2OCB    C17   36   2.375   2.525   3.302
    2OCB    C18   37   2.300   2.425   3.097
    2OCB     O4   38   2.278   2.465   3.230
    2OCB     O5   39   3.150   2.512   2.947
    2OCB    C19   40   3.077   2.733   3.122
    2OCB    C20   41   3.024   2.645   3.236
    2OCB     O6   42   3.171   2.455   3.182
    2OCB    C21   43   3.074   2.512   3.261
    2OCB    C22   44   2.435   2.439   3.395
    2OCB    C23   45   2.554   2.480   3.457
    2OCB    C24   46   3.025   2.430   3.363
    2OCB    C25   47   2.921   2.475   3.440
    2OCB     O7   48   2.623   2.388   3.537
    2OCB     O8   49   2.862   2.391   3.524
    2OCB    C26   50   2.735   2.322   3.479
    2OCB    C27   51   2.914   2.680   3.310
    2OCB    C28   52   2.873   2.606   3.421
    2OCB    C29   53   2.549   2.689   3.328
    2OCB    C30   54   2.745   2.649   3.499
    2OCB    C31   55   2.617   2.609   3.424
    2OCB    C32   56   3.123   2.414   3.051
    2OCB    C33   57   2.348   2.895   3.209
    2OCB    C34   58   2.273   2.917   3.343
    2OCB    C35   59   2.227   3.056   3.366
    2OCB     O9   60   2.309   3.146   3.339
    2OCB    C36   61   2.709   2.974   2.835
    2OCB    C37   62   2.598   3.056   2.757
    2OCB    C38   63   2.627   3.202   2.782
    2OCB    O10   64   2.727   3.259   2.749
    2OCB    C39   65   3.078   2.880   3.166
    2OCB    C40   66   3.176   2.956   3.076
    2OCB    C41   67   3.169   3.101   3.104
    2OCB    O11   68   3.135   3.182   3.019
    2OCB    C42   69   2.750   2.797   3.548
    2OCB    C43   70   2.627   2.837   3.629
    2OCB    C44   71   2.622   2.789   3.774
    2OCB    O12   72   2.513   2.767   3.823
    2OCB    C45   73   2.657   2.405   2.566
    2OCB    C46   74   2.641   2.206   2.378
    2OCB    C47   75   2.531   2.360   2.522
    2OCB    C48   76   2.771   2.345   2.515
    2OCB    C49   77   2.766   2.241   2.425
    2OCB    C50   78   2.523   2.259   2.426
    2OCB    C51   79   3.163   2.271   3.008
    2OCB    C52   80   3.229   2.000   2.959
    2OCB    C53   81   3.204   2.180   3.111
    2OCB    C54   82   3.153   2.219   2.878
    2OCB    C55   83   3.188   2.085   2.852
    2OCB    C56   84   3.243   2.046   3.084
    2OCB    C57   85   2.735   2.175   3.516
    2OCB    C58   86   2.740   1.897   3.561
    2OCB    C59   87   2.615   2.104   3.530
    2OCB    C60   88   2.859   2.112   3.533
    2OCB    C61   89   2.858   1.975   3.563
    2OCB    C62   90   2.618   1.962   3.554
    2OCB    C63   91   2.252   2.286   3.066
    2OCB    C64   92   2.151   2.029   3.014
    2OCB    C65   93   2.243   2.191   3.170
    2OCB    C66   94   2.233   2.244   2.931
    2OCB    C67   95   2.181   2.118   2.910
    2OCB    C68   96   2.190   2.068   3.144
    2OCB    O13   97   3.176   2.029   2.728
    2OCB    O14   98   2.981   1.908   3.570
    2OCB    O15   99   2.506   1.889   3.558
    2OCB    O16  100   2.883   2.172   2.385
    2OCB    O17  101   2.398   2.208   2.379
    2OCB    O18  102   2.152   1.975   3.241
    2OCB    O19  103   2.148   2.074   2.777
    2OCB    C69  104   3.095   1.949   3.503
    2OCB    C70  105   3.325   2.058   3.396
    2OCB    C71  106   3.106   1.951   3.368
    2OCB    C72  107   3.182   2.020   3.581
    2OCB    C73  108   3.299   2.077   3.534
    2OCB    C74  109   3.231   1.994   3.318
    2OCB    O20  110   3.264   1.958   3.186
    2OCB    C75  111   3.014   2.167   2.439
    2OCB    C76  112   3.256   2.191   2.571
    2OCB    C77  113   3.111   2.250   2.389
    2OCB    C78  114   3.031   2.090   2.549
    2OCB    C79  115   3.155   2.097   2.614
    2OCB    C80  116   3.231   2.268   2.459
    2OCB    C81  117   2.378   1.943   3.524
    2OCB    C82  118   2.107   1.975   3.469
    2OCB    C83  119   2.284   1.952   3.627
    2OCB    C84  120   2.341   1.952   3.395
    2OCB    C85  121   2.201   1.974   3.364
    2OCB    C86  122   2.148   1.964   3.606
    2OCB    C87  123   2.050   1.975   3.724
    2OCB    O21  124   2.092   2.040   3.815
    2OCB    C88  125   2.012   2.473   2.515
    2OCB    O22  126   2.043   2.544   2.423
    2OCB    C89  127   3.330   2.366   2.409
    2OCB    O23  128   3.289   2.452   2.333
    2OCB    O24  129   2.123   3.087   3.417
    2OCB    O25  130   2.722   2.785   3.846
    2OCB    O26  131   3.205   3.140   3.211
    2OCB    C90  132   3.395   2.155   3.624
    2OCB    O27  133   3.480   2.229   3.579
    2OCB    O28  134   1.930   2.507   2.599
    2OCB    O29  135   1.933   1.947   3.718
    2OCB    O30  136   3.362   2.165   3.737
    2OCB    O31  137   3.447   2.363   2.430
    2OCB    O32  138   2.538   3.269   2.834
    2OCB    C91  139   2.288   2.217   2.463
    2OCB    C92  140   2.088   2.270   2.645
    2OCB    C93  141   2.276   2.141   2.577
    2OCB    C94  142   2.198   2.319   2.440
    2OCB    C95  143   2.100   2.352   2.537
    2OCB    C96  144   2.169   2.156   2.662
    2OCB    C97  145   2.391   2.049   2.624
    2OCB    C98  146   2.926   2.002   2.612
    2OCB    C99  147   3.000   1.884   3.274
    2OCB      C  148   2.436   1.934   3.279
    2OCB     H1  149   2.838   2.826   3.044
    2OCB     H2  150   3.028   2.505   2.722
    2OCB     H3  151   2.687   2.816   2.692
    2OCB     H4  152   2.681   2.481   2.769
    2OCB     H5  153   2.558   2.856   3.039
    2OCB     H6  154   2.371   2.502   2.765
    2OCB     H7  155   2.252   2.717   3.156
    2OCB     H8  156   2.410   2.422   3.095
    2OCB     H9  157   3.182   2.705   3.112
    2OCB    H10  158   2.398   2.340   3.422
    2OCB    H11  159   3.065   2.331   3.381
    2OCB    H12  160   2.731   2.319   3.369
    2OCB    H13  161   2.848   2.760   3.277
    2OCB    H14  162   2.591   2.786   3.305
    2OCB    H15  163   2.738   2.596   3.594
    2OCB    H16  164   3.015   2.418   3.072
    2OCB    H17  165   2.444   2.947   3.218
    2OCB    H18  166   2.302   2.937   3.120
    2OCB    H19  167   2.203   2.833   3.335
    2OCB    H20  168   2.342   2.891   3.424
    2OCB    H21  169   2.808   3.018   2.819
    2OCB    H22  170   2.698   2.986   2.943
    2OCB    H23  171   2.607   3.027   2.652
    2OCB    H24  172   2.498   3.025   2.791
    2OCB    H25  173   2.978   2.923   3.161
    2OCB    H26  174   3.101   2.902   3.271
    2OCB    H27  175   3.279   2.918   3.071
    2OCB    H28  176   3.156   2.941   2.970
    2OCB    H29  177   2.836   2.805   3.615
    2OCB    H30  178   2.755   2.870   3.468
    2OCB    H31  179   2.627   2.946   3.633
    2OCB    H32  180   2.532   2.816   3.581
    2OCB    H33  181   2.637   2.131   2.299
    2OCB    H34  182   2.443   2.413   2.558
    2OCB    H35  183   2.866   2.380   2.554
    2OCB    H36  184   3.247   1.895   2.936
    2OCB    H37  185   3.219   2.219   3.211
    2OCB    H38  186   3.122   2.291   2.802
    2OCB    H39  187   2.746   1.789   3.575
    2OCB    H40  188   2.520   2.156   3.527
    2OCB    H41  189   2.956   2.162   3.538
    2OCB    H42  190   2.120   1.928   2.986
    2OCB    H43  191   2.267   2.212   3.274
    2OCB    H44  192   2.258   2.302   2.843
    2OCB    H45  193   3.422   2.085   3.356
    2OCB    H46  194   3.162   2.044   3.686
    2OCB    H47  195   3.345   2.202   2.633
    2OCB    H48  196   3.084   2.316   2.306
    2OCB    H49  197   2.005   2.003   3.446
    2OCB    H50  198   2.322   1.930   3.727
    2OCB    H51  199   2.012   2.294   2.719
    2OCB    H52  200   2.205   2.393   2.361
    2OCB    H53  201   2.447   2.020   2.535
    2OCB    H54  202   2.467   2.097   2.687
    2OCB    H55  203   2.348   1.959   2.667
    2OCB    H56  204   2.943   1.895   2.596
    2OCB    H57  205   2.926   2.026   2.718
    2OCB    H58  206   2.829   2.018   2.565
    2OCB    H59  207   2.899   1.887   3.315
    2OCB    H60  208   2.998   1.946   3.184
    2OCB    H61  209   3.033   1.784   3.245
    2OCB    H62  210   2.401   1.866   3.201
    2OCB    H63  211   2.456   2.029   3.230
    2OCB    H64  212   2.536   1.895   3.299
    3Na+    Na+  213   1.280   1.656   0.534
    4Na+    Na+  214   3.604   2.245   2.064
    5Na+    Na+  215   0.265   2.890   1.821
    6Na+    Na+  216   1.425   0.613   3.907
    7Na+    Na+  217   0.771   2.285   3.106
    8Na+    Na+  218   3.209   0.999   3.889
    9Na+    Na+  219   3.190   3.368   3.146
   10Na+    Na+  220   2.580   2.791   0.020
   11Na+    Na+  221   2.028   2.908   2.657
   12HOH      O  222   3.895   2.399   0.180
   12HOH     H1  223   3.883   2.317   0.132
   12HOH     H2  224   3.952   2.451   0.125
   13HOH      O  225   1.947   2.686   0.610
   13HOH     H1  226   1.901   2.714   0.531
   13HOH     H2  227   1.885   2.703   0.681
   14HOH      O  228   2.480   3.062   4.003
   14HOH     H1  229   2.525   3.099   4.079
   14HOH     H2  230   2.540   3.075   3.930
   15HOH      O  231   2.392   1.632   1.579
   15HOH     H1  232   2.476   1.610   1.540
   15HOH     H2  233   2.341   1.551   1.575
   16HOH      O  234   1.296   1.126   1.361
   16HOH     H1  235   1.342   1.125   1.277
   16HOH     H2  236   1.346   1.187   1.415
   17HOH      O  237   0.583   2.419   3.926
   17HOH     H1  238   0.606   2.470   3.848
   17HOH     H2  239   0.667   2.399   3.967
   18HOH      O  240   2.955   1.601   2.008
   18HOH     H1  241   3.038   1.565   1.975
   18HOH     H2  242   2.980   1.650   2.086
   19HOH      O  243   1.664   1.262   2.764
   19HOH     H1  244   1.611   1.309   2.828
   19HOH     H2  245   1.658   1.171   2.791
   20HOH      O  246   2.418   1.905   1.517
   20HOH     H1  247   2.415   1.943   1.429
   20HOH     H2  248   2.387   1.815   1.506
   21HOH      O  249   2.047   0.985   3.096
   21HOH     H1  250   1.973   0.928   3.073
   21HOH     H2  251   2.012   1.074   3.088
   22HOH      O  252   1.965   2.804   3.128
   22HOH     H1  253   1.968   2.719   3.084
   22HOH     H2  254   1.942   2.782   3.219
   23HOH      O  255   3.305   1.662   1.018
   23HOH     H1  256   3.212   1.639   1.025
   23HOH     H2  257   3.309   1.720   0.942
   24HOH      O  258   1.482   3.433   1.523
   24HOH     H1  259   1.423   3.508   1.524
   24HOH     H2  260   1.437   3.366   1.574
   25HOH      O  261   1.935   1.113   1.923
   25HOH     H1  262   1.880   1.035   1.918
   25HOH     H2  263   2.024   1.080   1.915
   26HOH      O  264   3.969   2.002   1.165
   26HOH     H1  265   4.025   2.079   1.153
   26HOH     H2  266   3.944   2.005   1.257
   27HOH      O  267   1.571   2.379   3.746
   27HOH     H1  268   1.574   2.284   3.760
   27HOH     H2  269   1.565   2.415   3.834
   28HOH      O  270   0.927   2.142   3.207
   28HOH     H1  271   0.876   2.086   3.266
   28HOH     H2  272   1.012   2.150   3.250
   29HOH      O  273   1.343   2.747   2.620
   29HOH     H1  274   1.267   2.723   2.673
   29HOH     H2  275   1.313   2.822   2.567
   30HOH      O  276   1.424   2.803   2.933
   30HOH     H1  277   1.370   2.860   2.877
   30HOH     H2  278   1.495   2.774   2.876
   31HOH      O  279   1.927   0.544   2.894
   31HOH     H1  280   1.846   0.564   2.847
   31HOH     H2  281   1.972   0.480   2.837
   32HOH      O  282   0.801   1.269   0.055
   32HOH     H1  283   0.818   1.285   0.148
   32HOH     H2  284   0.858   1.195   0.033
   33HOH      O  285   2.544   0.161   0.716
   33HOH     H1  286   2.480   0.094   0.693
   33HOH     H2  287   2.539   0.167   0.812
   34HOH      O  288   3.419   3.392   3.100
   34HOH     H1  289   3.482   3.348   3.043
   34HOH     H2  290   3.451   3.482   3.105
   35HOH      O  291   3.843   0.244   2.391
   35HOH     H1  292   3.766   0.247   2.447
   35HOH     H2  293   3.916   0.225   2.451
   36HOH      O  294   1.247   1.394   0.211
   36HOH     H1  295   1.285   1.435   0.288
   36HOH     H2  296   1.320   1.390   0.148
   37HOH      O  297   2.345   1.607   2.684
   37HOH     H1  298   2.342   1.531   2.743
   37HOH     H2  299   2.263   1.602   2.635
   38HOH      O  300   1.623   0.501   1.196
   38HOH     H1  301   1.683   0.454   1.254
   38HOH     H2  302   1.674   0.517   1.117
   39HOH      O  303   1.869   1.325   1.122
   39HOH     H1  304   1.862   1.283   1.036
   39HOH     H2  305   1.785   1.306   1.164
   40HOH      O  306   3.807   2.227   1.329
   40HOH     H1  307   3.886   2.268   1.365
   40HOH     H2  308   3.810   2.137   1.361
   41HOH      O  309   1.009   1.288   1.507
   41HOH     H1  310   1.023   1.194   1.508
   41HOH     H2  311   1.097   1.326   1.509
   42HOH      O  312   3.921   2.447   2.628
   42HOH     H1  313   3.900   2.448   2.535
   42HOH     H2  314   4.009   2.411   2.633
   43HOH      O  315   2.488   0.643   2.794
   43HOH     H1  316   2.582   0.662   2.796
   43HOH     H2  317   2.446   0.728   2.784
   44HOH      O  318   3.922   2.413   0.618
   44HOH     H1  319   3.955   2.501   0.602
   44HOH     H2  320   3.876   2.389   0.538
   45HOH      O  321   2.180   1.028   1.300
   45HOH     H1  322   2.217   0.967   1.364
   45HOH     H2  323   2.256   1.074   1.265
   46HOH      O  324   0.437   3.153   4.008
   46HOH     H1  325   0.527   3.124   4.019
   46HOH     H2  326   0.442   3.248   4.003
   47HOH      O  327   2.774   3.238   0.926
   47HOH     H1  328   2.734   3.290   0.997
   47HOH     H2  329   2.856   3.206   0.964
   48HOH      O  330   3.456   0.510   3.858
   48HOH     H1  331   3.374   0.482   3.899
   48HOH     H2  332   3.446   0.484   3.766
   49HOH      O  333   3.829   1.983   1.424
   49HOH     H1  334   3.768   1.990   1.497
   49HOH     H2  335   3.909   1.949   1.464
   50HOH      O  336   2.999   1.226   3.229
   50HOH     H1  337   3.054   1.301   3.253
   50HOH     H2  338   2.910   1.261   3.229
   51HOH      O  339   3.320   3.456   3.641
   51HOH     H1  340   3.254   3.421   3.582
   51HOH     H2  341   3.289   3.544   3.662
   52HOH      O  342   0.202   0.436   1.617
   52HOH     H1  343   0.211   0.525   1.651
   52HOH     H2  344   0.113   0.410   1.643
   53HOH      O  345   1.774   1.726   0.342
   53HOH     H1  346   1.769   1.659   0.410
   53HOH     H2  347   1.803   1.805   0.388
   54HOH      O  348   1.830   2.037   0.384
   54HOH     H1  349   1.921   2.051   0.357
   54HOH     H2  350   1.833   2.038   0.480
   55HOH      O  351   1.677   2.428   1.317
   55HOH     H1  352   1.676   2.417   1.412
   55HOH     H2  353   1.730   2.355   1.285
   56HOH      O  354   1.398   0.743   0.454
   56HOH     H1  355   1.484   0.699   0.452
   56HOH     H2  356   1.342   0.687   0.401
   57HOH      O  357   4.011   2.703   0.554
   57HOH     H1  358   3.967   2.733   0.474
   57HOH     H2  359   4.094   2.668   0.523
   58HOH      O  360   0.682   3.084   3.253
   58HOH     H1  361   0.775   3.107   3.257
   58HOH     H2  362   0.659   3.061   3.343
   59HOH      O  363   2.242   1.299   3.966
   59HOH     H1  364   2.314   1.266   3.913
   59HOH     H2  365   2.280   1.372   4.016
   60HOH      O  366   0.533   3.505   0.628
   60HOH     H1  367   0.539   3.438   0.696
   60HOH     H2  368   0.448   3.489   0.586
   61HOH      O  369   0.594   3.549   2.443
   61HOH     H1  370   0.571   3.485   2.510
   61HOH     H2  371   0.600   3.632   2.490
   62HOH      O  372   2.166   1.672   1.737
   62HOH     H1  373   2.244   1.684   1.683
   62HOH     H2  374   2.145   1.760   1.768
   63HOH      O  375   1.552   2.451  -0.020
   63HOH     H1  376   1.531   2.544  -0.010
   63HOH     H2  377   1.611   2.431   0.052
   64HOH      O  378   3.954   0.370   0.674
   64HOH     H1  379   3.870   0.415   0.686
   64HOH     H2  380   3.995   0.372   0.760
   65HOH      O  381   3.906   0.636   1.699
   65HOH     H1  382   3.988   0.659   1.744
   65HOH     H2  383   3.841   0.697   1.734
   66HOH      O  384   3.902   1.859   3.938
   66HOH     H1  385   3.840   1.790   3.913
   66HOH     H2  386   3.986   1.830   3.904
   67HOH      O  387   1.566   1.901   3.108
   67HOH     H1  388   1.516   1.890   3.189
   67HOH     H2  389   1.559   1.994   3.087
   68HOH      O  390   0.681   3.046   1.928
   68HOH     H1  391   0.733   3.005   1.997
   68HOH     H2  392   0.739   3.112   1.890
   69HOH      O  393   2.078   1.073   0.801
   69HOH     H1  394   2.078   0.993   0.855
   69HOH     H2  395   2.109   1.141   0.861
   70HOH      O  396   2.512   2.342   3.925
   70HOH     H1  397   2.598   2.321   3.891
   70HOH     H2  398   2.456   2.270   3.896
   71HOH      O  399   2.795   2.509   1.135
   71HOH     H1  400   2.871   2.565   1.151
   71HOH     H2  401   2.723   2.554   1.179
   72HOH      O  402   2.598   3.300   2.282
   72HOH     H1  403   2.510   3.268   2.303
   72HOH     H2  404   2.584   3.389   2.251
   73HOH      O  405   0.955   1.250   1.921
   73HOH     H1  406   0.925   1.251   2.012
   73HOH     H2  407   0.914   1.173   1.882
   74HOH      O  408   2.128   1.690   2.418
   74HOH     H1  409   2.207   1.734   2.387
   74HOH     H2  410   2.091   1.750   2.483
   75HOH      O  411   1.882   3.220   1.011
   75HOH     H1  412   1.881   3.174   1.095
   75HOH     H2  413   1.830   3.165   0.953
   76HOH      O  414   1.647   1.911   1.554
   76HOH     H1  415   1.564   1.924   1.507
   76HOH     H2  416   1.705   1.978   1.518
   77HOH      O  417   1.295   1.195   1.048
   77HOH     H1  418   1.385   1.179   1.019
   77HOH     H2  419   1.256   1.108   1.055
   78HOH      O  420   0.069   0.067   3.383
   78HOH     H1  421   0.083   0.160   3.401
   78HOH     H2  422   0.126   0.049   3.309
   79HOH      O  423   1.116   1.782   0.417
   79HOH     H1  424   1.116   1.819   0.329
   79HOH     H2  425   1.028   1.745   0.428
   80HOH      O  426   1.364   1.030   2.048
   80HOH     H1  427   1.290   1.051   2.106
   80HOH     H2  428   1.423   1.105   2.057
   81HOH      O  429   0.047   0.361   0.940
   81HOH     H1  430   0.134   0.348   0.902
   81HOH     H2  431   0.032   0.283   0.993
   82HOH      O  432   0.244   0.734   1.517
   82HOH     H1  433   0.223   0.826   1.534
   82HOH     H2  434   0.337   0.735   1.495
   83HOH      O  435   2.750   2.284   0.679
   83HOH     H1  436   2.669   2.283   0.730
   83HOH     H2  437   2.785   2.371   0.692
   84HOH      O  438   3.852   3.077   2.281
   84HOH     H1  439   3.850   3.083   2.186
   84HOH     H2  440   3.760   3.063   2.306
   85HOH      O  441   2.400   1.192   3.523
   85HOH     H1  442   2.322   1.231   3.484
   85HOH     H2  443   2.392   1.098   3.505
   86HOH      O  444   2.745   3.987   3.047
   86HOH     H1  445   2.696   4.069   3.045
   86HOH     H2  446   2.702   3.931   2.983
   87HOH      O  447   3.442   1.048   3.911
   87HOH     H1  448   3.504   0.975   3.911
   87HOH     H2  449   3.481   1.113   3.970
   88HOH      O  450   3.779   2.780   3.592
   88HOH     H1  451   3.760   2.701   3.542
   88HOH     H2  452   3.715   2.844   3.561
   89HOH      O  453   3.596   2.120   2.823
   89HOH     H1  454   3.628   2.186   2.761
   89HOH     H2  455   3.559   2.171   2.894
   90HOH      O  456   2.498   3.324   1.757
   90HOH     H1  457   2.526   3.255   1.697
   90HOH     H2  458   2.404   3.309   1.769
   91HOH      O  459   2.766   2.165   0.974
   91HOH     H1  460   2.833   2.221   0.936
   91HOH     H2  461   2.684   2.195   0.935
   92HOH      O  462   2.890   0.684   1.283
   92HOH     H1  463   2.891   0.757   1.345
   92HOH     H2  464   2.799   0.680   1.253
   93HOH      O  465   2.172   0.256   0.103
   93HOH     H1  466   2.228   0.207   0.042
   93HOH     H2  467   2.094   0.202   0.113
   94HOH      O  468   3.064   3.417   3.556
   94HOH     H1  469   3.093   3.332   3.520
   94HOH     H2  470   3.020   3.394   3.638
   95HOH      O  471   1.882   3.709   2.146
   95HOH     H1  472   1.937   3.654   2.201
   95HOH     H2  473   1.871   3.659   2.065
   96HOH      O  474   0.360   2.339   1.307
   96HOH     H1  475   0.417   2.352   1.231
   96HOH     H2  476   0.341   2.427   1.339
   97HOH      O  477   3.653   3.315   3.313
   97HOH     H1  478   3.641   3.315   3.218
   97HOH     H2  479   3.582   3.260   3.346
   98HOH      O  480   3.147   0.982   1.393
   98HOH     H1  481   3.213   0.925   1.433
   98HOH     H2  482   3.064   0.952   1.430
   99HOH      O  483   3.318   0.330   2.389
   99HOH     H1  484   3.249   0.352   2.451
   99HOH     H2  485   3.273   0.288   2.316
  100HOH      O  486   3.888   3.315   1.812
  100HOH     H1  487   3.917   3.295   1.723
  100HOH     H2  488   3.960   3.288   1.868
  101HOH      O  489   0.874   2.684   3.070
  101HOH     H1  490   0.786   2.673   3.106
  101HOH     H2  491   0.929   2.700   3.147
  102HOH      O  492   0.173   1.542   2.179
  102HOH     H1  493   0.132   1.622   2.209
  102HOH     H2  494   0.102   1.491   2.139
  103HOH      O  495   1.053   3.049   1.738
  103HOH     H1  496   1.105   3.021   1.813
  103HOH     H2  497   0.965   3.062   1.773
  104HOH      O  498   3.160   0.107   0.862
  104HOH     H1  499   3.134   0.085   0.952
  104HOH     H2  500   3.086   0.156   0.827
  105HOH      O  501   2.033   3.601   0.490
  105HOH     H1  502   2.058   3.509   0.491
  105HOH     H2  503   2.108   3.646   0.451
  106HOH      O  504   1.394   2.378   0.860
  106HOH     H1  505   1.433   2.383   0.773
  106HOH     H2  506   1.349   2.461   0.871
  107HOH      O  507   1.794   1.222   0.859
  107HOH     H1  508   1.840   1.303   0.835
  107HOH     H2  509   1.863   1.158   0.873
  108HOH      O  510   3.890   1.590   1.486
  108HOH     H1  511   3.970   1.617   1.440
  108HOH     H2  512   3.921   1.553   1.569
  109HOH      O  513   3.553   0.713   0.495
  109HOH     H1  514   3.557   0.618   0.506
  109HOH     H2  515   3.642   0.743   0.513
  110HOH      O  516   0.207   3.156   2.299
  110HOH     H1  517   0.274   3.197   2.244
  110HOH     H2  518   0.128   3.207   2.281
  111HOH      O  519   3.917   2.521   1.275
  111HOH     H1  520   3.881   2.507   1.188
  111HOH     H2  521   3.851   2.485   1.334
  112HOH      O  522   1.293   2.954   2.483
  112HOH     H1  523   1.336   2.955   2.397
  112HOH     H2  524   1.270   3.046   2.499
  113HOH      O  525   1.000   3.245   0.532
  113HOH     H1  526   0.929   3.222   0.472
  113HOH     H2  527   1.034   3.328   0.499
  114HOH      O  528   0.820   2.620   1.142
  114HOH     H1  529   0.908   2.607   1.107
  114HOH     H2  530   0.782   2.689   1.087
  115HOH      O  531   1.019   2.411   3.076
  115HOH     H1  532   1.019   2.495   3.031
  115HOH     H2  533   1.029   2.433   3.168
  116HOH      O  534   2.615   2.186   1.381
  116HOH     H1  535   2.679   2.134   1.333
  116HOH     H2  536   2.666   2.228   1.451
  117HOH      O  537   3.187   0.143   3.748
  117HOH     H1  538   3.116   0.096   3.792
  117HOH     H2  539   3.266   0.108   3.789
  118HOH      O  540   2.986   1.546   2.532
  118HOH     H1  541   2.913   1.530   2.592
  118HOH     H2  542   3.040   1.611   2.577
  119HOH      O  543   1.439   4.014   2.868
  119HOH     H1  544   1.406   3.973   2.948
  119HOH     H2  545   1.531   3.988   2.864
  120HOH      O  546   2.252   2.803   0.893
  120HOH     H1  547   2.276   2.735   0.830
  120HOH     H2  548   2.170   2.772   0.932
  121HOH      O  549   1.339   2.236   1.572
  121HOH     H1  550   1.279   2.309   1.560
  121HOH     H2  551   1.398   2.265   1.641
  122HOH      O  552   3.892   2.174   3.053
  122HOH     H1  553   3.800   2.172   3.080
  122HOH     H2  554   3.940   2.136   3.127
  123HOH      O  555   2.121   2.108   0.042
  123HOH     H1  556   2.200   2.161   0.035
  123HOH     H2  557   2.113   2.065  -0.043
  124HOH      O  558   3.859   2.138   0.947
  124HOH     H1  559   3.794   2.078   0.912
  124HOH     H2  560   3.892   2.095   1.026
  125HOH      O  561   3.292   3.686   2.981
  125HOH     H1  562   3.233   3.740   2.929
  125HOH     H2  563   3.281   3.718   3.071
  126HOH      O  564   1.593   2.839   2.438
  126HOH     H1  565   1.622   2.750   2.458
  126HOH     H2  566   1.519   2.855   2.497
  127HOH      O  567   0.935   0.624   2.724
  127HOH     H1  568   0.992   0.659   2.792
  127HOH     H2  569   0.982   0.549   2.688
  128HOH      O  570   2.540   1.289   1.336
  128HOH     H1  571   2.486   1.229   1.284
  128HOH     H2  572   2.591   1.337   1.271
  129HOH      O  573   3.596   2.322   1.218
  129HOH     H1  574   3.607   2.408   1.259
  129HOH     H2  575   3.670   2.271   1.251
  130HOH      O  576   0.800   1.288   0.344
  130HOH     H1  577   0.745   1.210   0.339
  130HOH     H2  578   0.794   1.316   0.436
  131HOH      O  579   2.831   3.284   0.419
  131HOH     H1  580   2.875   3.286   0.334
  131HOH     H2  581   2.775   3.362   0.419
  132HOH      O  582   0.588   0.208   0.614
  132HOH     H1  583   0.649   0.136   0.624
  132HOH     H2  584   0.634   0.283   0.652
  133HOH      O  585   1.121   0.577   0.103
  133HOH     H1  586   1.169   0.494   0.099
  133HOH     H2  587   1.031   0.554   0.078
  134HOH      O  588   0.577   1.579   1.672
  134HOH     H1  589   0.563   1.532   1.591
  134HOH     H2  590   0.604   1.512   1.735
  135HOH      O  591   2.789   0.352   3.868
  135HOH     H1  592   2.793   0.431   3.923
  135HOH     H2  593   2.715   0.303   3.903
  136HOH      O  594   2.529   3.390   3.804
  136HOH     H1  595   2.525   3.295   3.795
  136HOH     H2  596   2.480   3.408   3.885
  137HOH      O  597   3.495   1.060   3.328
  137HOH     H1  598   3.557   1.048   3.256
  137HOH     H2  599   3.546   1.103   3.396
  138HOH      O  600   1.804   3.935   1.277
  138HOH     H1  601   1.765   3.892   1.201
  138HOH     H2  602   1.891   3.964   1.247
  139HOH      O  603   4.009   0.249   3.995
  139HOH     H1  604   3.947   0.221   4.063
  139HOH     H2  605   3.955   0.287   3.927
  140HOH      O  606   3.239   3.801   0.548
  140HOH     H1  607   3.270   3.813   0.458
  140HOH     H2  608   3.187   3.879   0.566
  141HOH      O  609   3.226   2.340   1.128
  141HOH     H1  610   3.153   2.379   1.079
  141HOH     H2  611   3.283   2.302   1.061
  142HOH      O  612   3.060   3.365   2.083
  142HOH     H1  613   3.129   3.299   2.086
  142HOH     H2  614   2.979   3.314   2.081
  143HOH      O  615   1.399   3.667   0.356
  143HOH     H1  616   1.311   3.698   0.375
  143HOH     H2  617   1.390   3.614   0.277
  144HOH      O  618   3.779   3.980   0.482
  144HOH     H1  619   3.848   4.036   0.517
  144HOH     H2  620   3.749   3.928   0.557
  145HOH      O  621   2.171   2.087   0.764
  145HOH     H1  622   2.254   2.045   0.738
  145HOH     H2  623   2.123   2.018   0.810
  146HOH      O  624   3.503   2.410   3.376
  146HOH     H1  625   3.585   2.449   3.404
  146HOH     H2  626   3.489   2.337   3.436
  147HOH      O  627   2.376   3.834   3.121
  147HOH     H1  628   2.364   3.744   3.089
  147HOH     H2  629   2.317   3.886   3.067
  148HOH      O  630   1.228   0.586   1.493
  148HOH     H1  631   1.306   0.544   1.456
  148HOH     H2  632   1.242   0.584   1.587
  149HOH      O  633   2.960   3.482   1.846
  149HOH     H1  634   2.995   3.447   1.928
  149HOH     H2  635   3.013   3.560   1.828
  150HOH      O  636   3.668   1.200   2.792
  150HOH     H1  637   3.579   1.165   2.785
  150HOH     H2  638   3.691   1.223   2.702
  151HOH      O  639   1.587   0.828   2.214
  151HOH     H1  640   1.501   0.804   2.246
  151HOH     H2  641   1.591   0.793   2.125
  152HOH      O  642   4.003   0.917   3.067
  152HOH     H1  643   3.927   0.952   3.021
  152HOH     H2  644   3.983   0.824   3.079
  153HOH      O  645   0.878   1.657   2.161
  153HOH     H1  646   0.803   1.601   2.141
  153HOH     H2  647   0.953   1.610   2.126
  154HOH      O  648   3.421   0.944   0.391
  154HOH     H1  649   3.435   0.851   0.403
  154HOH     H2  650   3.460   0.964   0.306
  155HOH      O  651   0.560   3.069   1.441
  155HOH     H1  652   0.625   3.123   1.395
  155HOH     H2  653   0.536   3.120   1.518
  156HOH      O  654   2.670   0.613   0.320
  156HOH     H1  655   2.662   0.708   0.310
  156HOH     H2  656   2.735   0.601   0.390
  157HOH      O  657   2.136   3.754   1.161
  157HOH     H1  658   2.138   3.804   1.242
  157HOH     H2  659   2.043   3.746   1.140
  158HOH      O  660   1.961   2.753   0.280
  158HOH     H1  661   2.007   2.795   0.207
  158HOH     H2  662   1.963   2.817   0.350
  159HOH      O  663   1.312   0.503   0.902
  159HOH     H1  664   1.404   0.529   0.892
  159HOH     H2  665   1.316   0.408   0.918
  160HOH      O  666   2.172   1.681   3.483
  160HOH     H1  667   2.096   1.632   3.453
  160HOH     H2  668   2.155   1.771   3.457
  161HOH      O  669   1.005   2.788   2.881
  161HOH     H1  670   1.055   2.713   2.850
  161HOH     H2  671   0.949   2.753   2.951
  162HOH      O  672   2.275   0.062   1.136
  162HOH     H1  673   2.188   0.023   1.129
  162HOH     H2  674   2.306   0.035   1.223
  163HOH      O  675   2.747   2.237   1.642
  163HOH     H1  676   2.774   2.162   1.695
  163HOH     H2  677   2.804   2.308   1.670
  164HOH      O  678   2.196   1.669   0.325
  164HOH     H1  679   2.119   1.685   0.269
  164HOH     H2  680   2.215   1.576   0.314
  165HOH      O  681   2.333   0.798   2.261
  165HOH     H1  682   2.357   0.791   2.169
  165HOH     H2  683   2.241   0.825   2.260
  166HOH      O  684   0.147   3.302   3.004
  166HOH     H1  685   0.187   3.284   3.090
  166HOH     H2  686   0.181   3.233   2.948
  167HOH      O  687   1.252   1.252   2.300
  167HOH     H1  688   1.197   1.329   2.313
  167HOH     H2  689   1.335   1.286   2.269
  168HOH      O  690   0.976   4.000   2.090
  168HOH     H1  691   1.003   4.054   2.015
  168HOH     H2  692   0.881   3.998   2.084
  169HOH      O  693   1.830   3.476   1.136
  169HOH     H1  694   1.915   3.437   1.117
  169HOH     H2  695   1.782   3.407   1.183
  170HOH      O  696   2.673   0.018   4.045
  170HOH     H1  697   2.662   0.113   4.057
  170HOH     H2  698   2.689   0.008   3.951
  171HOH      O  699   1.456   1.864   3.683
  171HOH     H1  700   1.444   1.917   3.762
  171HOH     H2  701   1.551   1.852   3.676
  172HOH      O  702   0.978   1.499   2.614
  172HOH     H1  703   0.958   1.471   2.703
  172HOH     H2  704   0.900   1.476   2.563
  173HOH      O  705   1.867   3.283   0.354
  173HOH     H1  706   1.915   3.224   0.296
  173HOH     H2  707   1.830   3.349   0.295
  174HOH      O  708   0.535   1.610   0.481
  174HOH     H1  709   0.581   1.610   0.397
  174HOH     H2  710   0.454   1.659   0.464
  175HOH      O  711   0.874   1.551   1.516
  175HOH     H1  712   0.901   1.471   1.471
  175HOH     H2  713   0.898   1.535   1.608
  176HOH      O  714   0.974   2.695   3.298
  176HOH     H1  715   0.916   2.692   3.375
  176HOH     H2  716   1.047   2.751   3.325
  177HOH      O  717   2.507   0.309   3.720
  177HOH     H1  718   2.517   0.285   3.628
  177HOH     H2  719   2.430   0.259   3.749
  178HOH      O  720   1.028   2.753   0.804
  178HOH     H1  721   1.022   2.821   0.871
  178HOH     H2  722   0.964   2.779   0.738
  179HOH      O  723   1.269   2.792   2.196
  179HOH     H1  724   1.324   2.870   2.209
  179HOH     H2  725   1.210   2.817   2.125
  180HOH      O  726   2.563   2.567   0.065
  180HOH     H1  727   2.563   2.493   0.004
  180HOH     H2  728   2.630   2.544   0.130
  181HOH      O  729   1.403   0.273   1.747
  181HOH     H1  730   1.470   0.301   1.809
  181HOH     H2  731   1.450   0.260   1.665
  182HOH      O  732   0.341   2.548   4.005
  182HOH     H1  733   0.431   2.521   3.983
  182HOH     H2  734   0.311   2.596   3.927
  183HOH      O  735   2.482   1.253   2.000
  183HOH     H1  736   2.435   1.336   1.989
  183HOH     H2  737   2.518   1.257   2.088
  184HOH      O  738   2.512   1.644   0.948
  184HOH     H1  739   2.512   1.638   1.044
  184HOH     H2  740   2.502   1.738   0.930
  185HOH      O  741   0.354   3.651   1.591
  185HOH     H1  742   0.445   3.675   1.578
  185HOH     H2  743   0.358   3.573   1.647
  186HOH      O  744   4.010   0.956   0.778
  186HOH     H1  745   4.007   1.007   0.859
  186HOH     H2  746   3.919   0.928   0.764
  187HOH      O  747   0.190   0.493   3.719
  187HOH     H1  748   0.134   0.555   3.766
  187HOH     H2  749   0.268   0.484   3.774
  188HOH      O  750   1.109   3.046   0.657
  188HOH     H1  751   1.080   3.121   0.606
  188HOH     H2  752   1.037   3.028   0.717
  189HOH      O  753   3.059   0.714   0.756
  189HOH     H1  754   2.996   0.643   0.767
  189HOH     H2  755   3.006   0.789   0.729
  190HOH      O  756   3.622   0.847   3.948
  190HOH     H1  757   3.572   0.768   3.968
  190HOH     H2  758   3.664   0.829   3.864
  191HOH      O  759   2.247   3.338   3.537
  191HOH     H1  760   2.214   3.404   3.476
  191HOH     H2  761   2.267   3.262   3.481
  192HOH      O  762   1.963   1.533   3.357
  192HOH     H1  763   1.878   1.543   3.400
  192HOH     H2  764   2.003   1.457   3.400
  193HOH      O  765   2.110   3.296   3.806
  193HOH     H1  766   2.027   3.320   3.765
  193HOH     H2  767   2.174   3.304   3.735
  194HOH      O  768   0.433   2.332   2.420
  194HOH     H1  769   0.477   2.300   2.342
  194HOH     H2  770   0.398   2.254   2.463
  195HOH      O  771   2.950   3.646   3.477
  195HOH     H1  772   2.960   3.557   3.509
  195HOH     H2  773   2.881   3.641   3.410
  196HOH      O  774   2.024   1.879   0.877
  196HOH     H1  775   2.076   1.807   0.843
  196HOH     H2  776   2.031   1.872   0.972
  197HOH      O  777   2.678   0.889   0.277
  197HOH     H1  778   2.616   0.863   0.209
  197HOH     H2  779   2.731   0.957   0.235
  198HOH      O  780   1.635   0.279   0.883
  198HOH     H1  781   1.677   0.264   0.968
  198HOH     H2  782   1.685   0.227   0.821
  199HOH      O  783   1.086   1.802   1.170
  199HOH     H1  784   1.036   1.822   1.249
  199HOH     H2  785   1.021   1.805   1.099
  200HOH      O  786   1.829   2.627   2.237
  200HOH     H1  787   1.905   2.600   2.288
  200HOH     H2  788   1.754   2.608   2.293
  201HOH      O  789   0.088   2.555   2.862
  201HOH     H1  790   0.022   2.606   2.908
  201HOH     H2  791   0.171   2.599   2.884
  202HOH      O  792   3.271   1.222   1.393
  202HOH     H1  793   3.249   1.260   1.309
  202HOH     H2  794   3.237   1.132   1.389
  203HOH      O  795   1.226   3.960   0.458
  203HOH     H1  796   1.203   4.027   0.394
  203HOH     H2  797   1.317   3.980   0.481
  204HOH      O  798   3.105   3.085   1.771
  204HOH     H1  799   3.119   3.022   1.700
  204HOH     H2  800   3.036   3.143   1.738
  205HOH      O  801   1.421   2.963   3.625
  205HOH     H1  802   1.507   2.939   3.592
  205HOH     H2  803   1.372   2.881   3.625
  206HOH      O  804   1.886   0.747   3.061
  206HOH     H1  805   1.892   0.667   3.010
  206HOH     H2  806   1.875   0.717   3.152
  207HOH      O  807   2.895   3.882   2.629
  207HOH     H1  808   2.803   3.860   2.645
  207HOH     H2  809   2.943   3.840   2.701
  208HOH      O  810   3.661   1.877   1.196
  208HOH     H1  811   3.727   1.885   1.264
  208HOH     H2  812   3.710   1.860   1.116
  209HOH      O  813   2.605   3.937   0.269
  209HOH     H1  814   2.617   3.981   0.185
  209HOH     H2  815   2.672   3.974   0.326
  210HOH      O  816   3.085   0.531   3.341
  210HOH     H1  817   3.058   0.607   3.393
  210HOH     H2  818   3.130   0.474   3.403
  211HOH      O  819   2.006   2.906   1.772
  211HOH     H1  820   2.011   2.982   1.829
  211HOH     H2  821   2.025   2.832   1.830
  212HOH      O  822   3.313   0.836   1.728
  212HOH     H1  823   3.261   0.792   1.661
  212HOH     H2  824   3.320   0.926   1.697
  213HOH      O  825   1.425   2.040   3.913
  213HOH     H1  826   1.377   2.072   3.989
  213HOH     H2  827   1.516   2.035   3.942
  214HOH      O  828   1.836   3.381   4.005
  214HOH     H1  829   1.925   3.416   4.006
  214HOH     H2  830   1.837   3.315   3.936
  215HOH      O  831   0.904   0.814   0.168
  215HOH     H1  832   0.875   0.745   0.108
  215HOH     H2  833   0.923   0.768   0.250
  216HOH      O  834   3.719   3.744   2.864
  216HOH     H1  835   3.782   3.811   2.837
  216HOH     H2  836   3.758   3.705   2.942
  217HOH      O  837   1.259   1.564   1.705
  217HOH     H1  838   1.333   1.568   1.645
  217HOH     H2  839   1.211   1.646   1.690
  218HOH      O  840   2.804   2.544   3.980
  218HOH     H1  841   2.854   2.577   4.055
  218HOH     H2  842   2.772   2.623   3.937
  219HOH      O  843   2.031   1.917   1.142
  219HOH     H1  844   2.051   2.008   1.161
  219HOH     H2  845   1.986   1.886   1.221
  220HOH      O  846   3.902   0.894   1.924
  220HOH     H1  847   3.862   0.935   2.001
  220HOH     H2  848   3.936   0.810   1.957
  221HOH      O  849   0.929   3.353   0.107
  221HOH     H1  850   0.995   3.351   0.037
  221HOH     H2  851   0.912   3.446   0.122
  222HOH      O  852   2.186   1.423   0.605
  222HOH     H1  853   2.172   1.422   0.510
  222HOH     H2  854   2.269   1.377   0.617
  223HOH      O  855   2.654   0.954   3.797
  223HOH     H1  856   2.567   0.967   3.836
  223HOH     H2  857   2.715   0.970   3.869
  224HOH      O  858   4.035   1.489   0.321
  224HOH     H1  859   4.062   1.504   0.230
  224HOH     H2  860   3.947   1.451   0.313
  225HOH      O  861   0.558   1.319   0.514
  225HOH     H1  862   0.533   1.316   0.606
  225HOH     H2  863   0.537   1.408   0.487
  226HOH      O  864   2.229   3.049   0.631
  226HOH     H1  865   2.258   3.071   0.720
  226HOH     H2  866   2.259   3.121   0.577
  227HOH      O  867   3.118   2.233   0.529
  227HOH     H1  868   3.120   2.298   0.600
  227HOH     H2  869   3.106   2.285   0.450
  228HOH      O  870   3.815   0.690   0.151
  228HOH     H1  871   3.882   0.627   0.122
  228HOH     H2  872   3.732   0.652   0.123
  229HOH      O  873   0.710   3.840   0.127
  229HOH     H1  874   0.690   3.760   0.078
  229HOH     H2  875   0.682   3.911   0.069
  230HOH      O  876   0.971   0.603   3.723
  230HOH     H1  877   0.877   0.597   3.741
  230HOH     H2  878   0.983   0.692   3.690
  231HOH      O  879   0.560   2.646   3.462
  231HOH     H1  880   0.503   2.709   3.507
  231HOH     H2  881   0.500   2.578   3.430
  232HOH      O  882   0.398   0.485   1.436
  232HOH     H1  883   0.340   0.481   1.359
  232HOH     H2  884   0.343   0.459   1.509
  233HOH      O  885   1.614   0.640   2.025
  233HOH     H1  886   1.697   0.610   1.989
  233HOH     H2  887   1.549   0.619   1.958
  234HOH      O  888   0.897   3.690   0.481
  234HOH     H1  889   0.954   3.749   0.532
  234HOH     H2  890   0.809   3.706   0.516
  235HOH      O  891   2.878   3.031   0.533
  235HOH     H1  892   2.833   3.011   0.616
  235HOH     H2  893   2.832   3.107   0.499
  236HOH      O  894   0.233   0.039   1.335
  236HOH     H1  895   0.225  -0.003   1.420
  236HOH     H2  896   0.154   0.012   1.288
  237HOH      O  897   3.171   3.860   3.150
  237HOH     H1  898   3.230   3.932   3.173
  237HOH     H2  899   3.109   3.899   3.089
  238HOH      O  900   0.337   0.373   0.719
  238HOH     H1  901   0.381   0.362   0.634
  238HOH     H2  902   0.405   0.410   0.776
  239HOH      O  903   0.347   3.490   2.920
  239HOH     H1  904   0.348   3.512   2.827
  239HOH     H2  905   0.292   3.412   2.926
  240HOH      O  906   3.671   1.365   0.710
  240HOH     H1  907   3.627   1.287   0.675
  240HOH     H2  908   3.676   1.425   0.635
  241HOH      O  909   0.893   2.247   2.418
  241HOH     H1  910   0.963   2.307   2.441
  241HOH     H2  911   0.907   2.171   2.475
  242HOH      O  912   1.258   1.142   0.522
  242HOH     H1  913   1.268   1.048   0.539
  242HOH     H2  914   1.245   1.180   0.609
  243HOH      O  915   1.328   0.900   0.666
  243HOH     H1  916   1.377   0.870   0.742
  243HOH     H2  917   1.328   0.826   0.606
  244HOH      O  918   3.792   0.727   3.705
  244HOH     H1  919   3.764   0.793   3.641
  244HOH     H2  920   3.755   0.645   3.672
  245HOH      O  921   3.997   2.022   3.264
  245HOH     H1  922   3.967   1.971   3.339
  245HOH     H2  923   3.963   1.975   3.188
  246HOH      O  924   0.296   3.636   2.586
  246HOH     H1  925   0.379   3.675   2.559
  246HOH     H2  926   0.297   3.549   2.546
  247HOH      O  927   2.174   0.314   1.635
  247HOH     H1  928   2.208   0.388   1.584
  247HOH     H2  929   2.251   0.281   1.683
  248HOH      O  930   0.043   3.065   3.113
  248HOH     H1  931   0.017   3.008   3.040
  248HOH     H2  932  -0.039   3.108   3.139
  249HOH      O  933   0.834   1.967   2.599
  249HOH     H1  934   0.894   1.922   2.540
  249HOH     H2  935   0.888   2.032   2.643
  250HOH      O  936   2.186   2.425   1.957
  250HOH     H1  937   2.177   2.338   1.994
  250HOH     H2  938   2.276   2.450   1.976
  251HOH      O  939   1.105   2.855   2.008
  251HOH     H1  940   1.037   2.791   2.029
  251HOH     H2  941   1.061   2.940   2.014
  252HOH      O  942   1.021   0.744   1.074
  252HOH     H1  943   0.930   0.748   1.104
  252HOH     H2  944   1.060   0.675   1.127
  253HOH      O  945   2.903   1.027   0.999
  253HOH     H1  946   2.918   1.079   1.078
  253HOH     H2  947   2.956   1.068   0.932
  254HOH      O  948   2.066   3.092   1.966
  254HOH     H1  949   1.972   3.082   1.980
  254HOH     H2  950   2.086   3.178   2.002
  255HOH      O  951   0.382   0.705   0.008
  255HOH     H1  952   0.412   0.623   0.046
  255HOH     H2  953   0.340   0.751   0.080
  256HOH      O  954   2.009   1.067   3.736
  256HOH     H1  955   2.084   1.116   3.769
  256HOH     H2  956   2.016   0.981   3.777
  257HOH      O  957   0.673   1.021   3.499
  257HOH     H1  958   0.677   0.941   3.447
  257HOH     H2  959   0.739   1.078   3.461
  258HOH      O  960   3.978   0.377   1.711
  258HOH     H1  961   3.948   0.466   1.694
  258HOH     H2  962   3.966   0.364   1.805
  259HOH      O  963   2.659   0.937   0.532
  259HOH     H1  964   2.649   0.920   0.438
  259HOH     H2  965   2.674   1.031   0.538
  260HOH      O  966   0.651   2.401   1.920
  260HOH     H1  967   0.645   2.409   1.825
  260HOH     H2  968   0.739   2.368   1.936
  261HOH      O  969   2.965   0.842   1.529
  261HOH     H1  970   2.987   0.908   1.595
  261HOH     H2  971   2.892   0.794   1.566
  262HOH      O  972   1.717   3.728   0.814
  262HOH     H1  973   1.740   3.783   0.739
  262HOH     H2  974   1.706   3.641   0.776
  263HOH      O  975   0.571   1.012   4.045
  263HOH     H1  976   0.526   1.060   3.975
  263HOH     H2  977   0.612   0.938   4.001
  264HOH      O  978   0.653   1.781   0.830
  264HOH     H1  979   0.562   1.760   0.853
  264HOH     H2  980   0.676   1.718   0.762
  265HOH      O  981   0.785   0.815   1.201
  265HOH     H1  982   0.818   0.878   1.265
  265HOH     H2  983   0.724   0.760   1.251
  266HOH      O  984   3.636   2.419   2.234
  266HOH     H1  985   3.655   2.512   2.244
  266HOH     H2  986   3.570   2.401   2.301
  267HOH      O  987   1.786   2.965   0.058
  267HOH     H1  988   1.848   2.931  -0.006
  267HOH     H2  989   1.830   3.039   0.098
  268HOH      O  990   2.161   2.187   1.143
  268HOH     H1  991   2.195   2.141   1.066
  268HOH     H2  992   2.239   2.217   1.190
  269HOH      O  993   1.059   3.518   2.139
  269HOH     H1  994   1.116   3.580   2.184
  269HOH     H2  995   1.015   3.570   2.072
  270HOH      O  996   1.598   0.924   4.001
  270HOH     H1  997   1.595   0.996   4.064
  270HOH     H2  998   1.523   0.938   3.944
  271HOH      O  999   0.700   1.137   1.271
  271HOH     H1 1000   0.645   1.145   1.349
  271HOH     H2 1001   0.789   1.129   1.304
  272HOH      O 1002   2.811   1.430   3.021
  272HOH     H1 1003   2.752   1.362   3.054
  272HOH     H2 1004   2.804   1.500   3.086
  273HOH      O 1005   3.106   0.772   2.440
  273HOH     H1 1006   3.035   0.742   2.496
  273HOH     H2 1007   3.165   0.819   2.500
  274HOH      O 1008   1.783   2.207   1.144
  274HOH     H1 1009   1.800   2.137   1.208
  274HOH     H2 1010   1.839   2.184   1.069
  275HOH      O 1011   2.850   1.609   0.257
  275HOH     H1 1012   2.845   1.584   0.349
  275HOH     H2 1013   2.782   1.675   0.247
  276HOH      O 1014   0.141   2.595   3.818
  276HOH     H1 1015   0.164   2.516   3.770
  276HOH     H2 1016   0.050   2.581   3.844
  277HOH      O 1017   0.227   2.434   2.004
  277HOH     H1 1018   0.140   2.435   2.043
  277HOH     H2 1019   0.266   2.352   2.036
  278HOH      O 1020   0.280   1.941   0.583
  278HOH     H1 1021   0.209   1.935   0.519
  278HOH     H2 1022   0.248   2.003   0.649
  279HOH      O 1023   3.261   0.359   1.067
  279HOH     H1 1024   3.325   0.378   1.136
  279HOH     H2 1025   3.305   0.295   1.011
  280HOH      O 1026   3.648   1.168   0.374
  280HOH     H1 1027   3.743   1.153   0.373
  280HOH     H2 1028   3.612   1.098   0.320
  281HOH      O 1029   3.621   1.848   0.438
  281HOH     H1 1030   3.708   1.887   0.431
  281HOH     H2 1031   3.572   1.886   0.365
  282HOH      O 1032   1.411   0.615   1.837
  282HOH     H1 1033   1.359   0.658   1.904
  282HOH     H2 1034   1.371   0.528   1.828
  283HOH      O 1035   3.788   3.540   2.443
  283HOH     H1 1036   3.720   3.473   2.446
  283HOH     H2 1037   3.860   3.502   2.494
  284HOH      O 1038   0.010   0.531   3.383
  284HOH     H1 1039   0.056   0.456   3.422
  284HOH     H2 1040   0.038   0.606   3.435
  285HOH      O 1041   2.552   1.077   2.431
  285HOH     H1 1042   2.572   0.986   2.409
  285HOH     H2 1043   2.604   1.094   2.510
  286HOH      O 1044   3.187   2.605   3.731
  286HOH     H1 1045   3.116   2.656   3.772
  286HOH     H2 1046   3.165   2.514   3.750
  287HOH      O 1047   3.232   1.565   2.853
  287HOH     H1 1048   3.314   1.596   2.812
  287HOH     H2 1049   3.224   1.474   2.824
  288HOH      O 1050   3.753   2.027   0.104
  288HOH     H1 1051   3.765   1.952   0.046
  288HOH     H2 1052   3.668   2.012   0.146
  289HOH      O 1053   0.639   1.609   0.212
  289HOH     H1 1054   0.669   1.526   0.174
  289HOH     H2 1055   0.582   1.647   0.144
  290HOH      O 1056   2.102   3.439   0.018
  290HOH     H1 1057   2.136   3.407  -0.066
  290HOH     H2 1058   2.133   3.376   0.082
  291HOH      O 1059   2.808   1.885   3.945
  291HOH     H1 1060   2.717   1.901   3.921
  291HOH     H2 1061   2.803   1.832   4.024
  292HOH      O 1062   2.020   2.236   1.458
  292HOH     H1 1063   2.055   2.263   1.542
  292HOH     H2 1064   1.998   2.318   1.413
  293HOH      O 1065   2.255   1.510   3.107
  293HOH     H1 1066   2.270   1.455   3.030
  293HOH     H2 1067   2.313   1.585   3.094
  294HOH      O 1068   3.291   1.996   2.223
  294HOH     H1 1069   3.208   2.025   2.187
  294HOH     H2 1070   3.300   1.905   2.193
  295HOH      O 1071   1.602   2.275   0.488
  295HOH     H1 1072   1.595   2.190   0.533
  295HOH     H2 1073   1.694   2.283   0.466
  296HOH      O 1074   1.505   2.898   0.098
  296HOH     H1 1075   1.598   2.919   0.089
  296HOH     H2 1076   1.490   2.825   0.038
  297HOH      O 1077   2.645   0.926   1.693
  297HOH     H1 1078   2.693   1.000   1.657
  297HOH     H2 1079   2.635   0.947   1.786
  298HOH      O 1080   3.175   3.583   3.273
  298HOH     H1 1081   3.083   3.565   3.291
  298HOH     H2 1082   3.179   3.679   3.265
  299HOH      O 1083   3.584   0.695   3.341
  299HOH     H1 1084   3.648   0.624   3.344
  299HOH     H2 1085   3.621   0.763   3.397
  300HOH      O 1086   1.674   0.674   0.469
  300HOH     H1 1087   1.736   0.730   0.515
  300HOH     H2 1088   1.651   0.605   0.532
  301HOH      O 1089   1.863   0.189   1.994
  301HOH     H1 1090   1.861   0.111   2.049
  301HOH     H2 1091   1.910   0.254   2.046
  302HOH      O 1092   2.138   1.221   2.270
  302HOH     H1 1093   2.119   1.272   2.349
  302HOH     H2 1094   2.093   1.268   2.200
  303HOH      O 1095   3.783   0.171   2.933
  303HOH     H1 1096   3.760   0.115   2.858
  303HOH     H2 1097   3.855   0.124   2.977
  304HOH      O 1098   0.070   2.400   0.366
  304HOH     H1 1099   0.033   2.458   0.300
  304HOH     H2 1100   0.136   2.453   0.410
  305HOH      O 1101   2.695   2.808   1.852
  305HOH     H1 1102   2.790   2.798   1.854
  305HOH     H2 1103   2.663   2.729   1.809
  306HOH      O 1104   1.977   2.565   3.003
  306HOH     H1 1105   1.923   2.506   3.057
  306HOH     H2 1106   2.044   2.508   2.965
  307HOH      O 1107   3.564   3.417   2.245
  307HOH     H1 1108   3.516   3.342   2.211
  307HOH     H2 1109   3.502   3.461   2.303
  308HOH      O 1110   3.346   3.490   0.962
  308HOH     H1 1111   3.424   3.451   1.002
  308HOH     H2 1112   3.377   3.527   0.880
  309HOH      O 1113   2.585   0.263   0.010
  309HOH     H1 1114   2.571   0.309   0.093
  309HOH     H2 1115   2.508   0.285  -0.043
  310HOH      O 1116   0.464   1.684   2.190
  310HOH     H1 1117   0.557   1.668   2.176
  310HOH     H2 1118   0.435   1.611   2.244
  311HOH      O 1119   0.858   3.087   2.322
  311HOH     H1 1120   0.823   3.130   2.244
  311HOH     H2 1121   0.940   3.047   2.292
  312HOH      O 1122   3.166   1.301   1.131
  312HOH     H1 1123   3.226   1.276   1.060
  312HOH     H2 1124   3.129   1.384   1.103
  313HOH      O 1125   1.381   0.061   1.444
  313HOH     H1 1126   1.439   0.112   1.500
  313HOH     H2 1127   1.428  -0.021   1.429
  314HOH      O 1128   0.326   3.799   3.583
  314HOH     H1 1129   0.382   3.758   3.649
  314HOH     H2 1130   0.243   3.751   3.588
  315HOH      O 1131   1.498   0.804   0.930
  315HOH     H1 1132   1.592   0.787   0.935
  315HOH     H2 1133   1.490   0.900   0.935
  316HOH      O 1134   3.602   1.837   1.875
  316HOH     H1 1135   3.630   1.773   1.809
  316HOH     H2 1136   3.507   1.835   1.871
  317HOH      O 1137   3.633   2.922   2.927
  317HOH     H1 1138   3.702   2.926   2.993
  317HOH     H2 1139   3.615   2.829   2.916
  318HOH      O 1140   0.187   3.439   3.722
  318HOH     H1 1141   0.254   3.372   3.739
  318HOH     H2 1142   0.222   3.489   3.649
  319HOH      O 1143   2.283   3.660   0.399
  319HOH     H1 1144   2.330   3.584   0.433
  319HOH     H2 1145   2.342   3.733   0.416
  320HOH      O 1146   1.033   0.133   3.573
  320HOH     H1 1147   1.086   0.202   3.614
  320HOH     H2 1148   1.088   0.099   3.503
  321HOH      O 1149   1.349   3.470   0.587
  321HOH     H1 1150   1.362   3.375   0.598
  321HOH     H2 1151   1.296   3.478   0.508
  322HOH      O 1152   1.388   3.506   2.878
  322HOH     H1 1153   1.473   3.548   2.892
  322HOH     H2 1154   1.330   3.578   2.852
  323HOH      O 1155   0.661   1.206   3.689
  323HOH     H1 1156   0.659   1.139   3.621
  323HOH     H2 1157   0.593   1.180   3.751
  324HOH      O 1158   2.665   3.469   0.781
  324HOH     H1 1159   2.760   3.454   0.774
  324HOH     H2 1160   2.634   3.397   0.836
  325HOH      O 1161   2.389   0.941   1.508
  325HOH     H1 1162   2.456   0.948   1.576
  325HOH     H2 1163   2.306   0.938   1.556
  326HOH      O 1164   0.299   1.089   1.764
  326HOH     H1 1165   0.386   1.109   1.797
  326HOH     H2 1166   0.313   1.023   1.697
  327HOH      O 1167  -0.026   2.208   1.659
  327HOH     H1 1168  -0.009   2.114   1.660
  327HOH     H2 1169   0.049   2.246   1.615
  328HOH      O 1170   1.289   2.049   2.337
  328HOH     H1 1171   1.269   2.008   2.253
  328HOH     H2 1172   1.211   2.033   2.390
  329HOH      O 1173   3.950   0.255   1.980
  329HOH     H1 1174   4.044   0.237   1.980
  329HOH     H2 1175   3.908   0.169   1.975
  330HOH      O 1176   2.766   0.362   2.225
  330HOH     H1 1177   2.835   0.328   2.281
  330HOH     H2 1178   2.774   0.457   2.231
  331HOH      O 1179   2.519   0.924   3.390
  331HOH     H1 1180   2.586   0.889   3.331
  331HOH     H2 1181   2.492   0.848   3.442
  332HOH      O 1182   2.980   1.839   0.712
  332HOH     H1 1183   2.958   1.915   0.657
  332HOH     H2 1184   2.903   1.829   0.769
  333HOH      O 1185   2.290   2.635   2.410
  333HOH     H1 1186   2.300   2.645   2.315
  333HOH     H2 1187   2.196   2.628   2.423
  334HOH      O 1188   2.221   3.333   0.242
  334HOH     H1 1189   2.213   3.397   0.312
  334HOH     H2 1190   2.253   3.254   0.286
  335HOH      O 1191   2.598   2.567   1.336
  335HOH     H1 1192   2.526   2.625   1.312
  335HOH     H2 1193   2.555   2.485   1.362
  336HOH      O 1194   2.533   0.783   0.082
  336HOH     H1 1195   2.502   0.693   0.075
  336HOH     H2 1196   2.480   0.832   0.018
  337HOH      O 1197   1.538   3.846   1.388
  337HOH     H1 1198   1.621   3.893   1.397
  337HOH     H2 1199   1.554   3.782   1.318
  338HOH      O 1200   1.799   2.155   3.674
  338HOH     H1 1201   1.787   2.162   3.769
  338HOH     H2 1202   1.864   2.086   3.663
  339HOH      O 1203   3.653   1.114   1.271
  339HOH     H1 1204   3.603   1.172   1.213
  339HOH     H2 1205   3.706   1.172   1.324
  340HOH      O 1206   3.456   1.356   0.343
  340HOH     H1 1207   3.512   1.290   0.303
  340HOH     H2 1208   3.514   1.410   0.395
  341HOH      O 1209   2.300   2.909   3.747
  341HOH     H1 1210   2.333   2.999   3.751
  341HOH     H2 1211   2.366   2.857   3.794
  342HOH      O 1212   1.714   0.860   1.157
  342HOH     H1 1213   1.702   0.777   1.110
  342HOH     H2 1214   1.797   0.894   1.125
  343HOH      O 1215   1.261   3.621   0.765
  343HOH     H1 1216   1.299   3.555   0.707
  343HOH     H2 1217   1.205   3.571   0.824
  344HOH      O 1218   1.453   3.279   2.737
  344HOH     H1 1219   1.430   3.292   2.645
  344HOH     H2 1220   1.412   3.352   2.783
  345HOH      O 1221   1.462   1.843   2.549
  345HOH     H1 1222   1.528   1.906   2.520
  345HOH     H2 1223   1.464   1.847   2.644
  346HOH      O 1224   1.043  -0.012   2.840
  346HOH     H1 1225   1.095   0.060   2.804
  346HOH     H2 1226   1.072  -0.019   2.931
  347HOH      O 1227   1.228   1.222   2.866
  347HOH     H1 1228   1.293   1.291   2.855
  347HOH     H2 1229   1.196   1.205   2.778
  348HOH      O 1230   1.053   3.393   1.167
  348HOH     H1 1231   0.964   3.413   1.196
  348HOH     H2 1232   1.109   3.432   1.235
  349HOH      O 1233   2.622   1.628   0.626
  349HOH     H1 1234   2.647   1.717   0.652
  349HOH     H2 1235   2.620   1.578   0.707
  350HOH      O 1236   3.967   0.146   1.137
  350HOH     H1 1237   3.879   0.172   1.163
  350HOH     H2 1238   3.981   0.061   1.179
  351HOH      O 1239   3.525   3.590   1.664
  351HOH     H1 1240   3.575   3.651   1.718
  351HOH     H2 1241   3.591   3.549   1.607
  352HOH      O 1242   3.085   2.173   0.054
  352HOH     H1 1243   3.016   2.198   0.116
  352HOH     H2 1244   3.037   2.147  -0.025
  353HOH      O 1245   2.682   3.411   2.533
  353HOH     H1 1246   2.698   3.362   2.614
  353HOH     H2 1247   2.681   3.344   2.464
  354HOH      O 1248   0.682   1.500   3.939
  354HOH     H1 1249   0.706   1.409   3.955
  354HOH     H2 1250   0.765   1.545   3.929
  355HOH      O 1251   3.923   2.694   3.018
  355HOH     H1 1252   3.832   2.709   2.992
  355HOH     H2 1253   3.964   2.781   3.015
  356HOH      O 1254   3.505   2.366   2.885
  356HOH     H1 1255   3.531   2.359   2.794
  356HOH     H2 1256   3.437   2.433   2.886
  357HOH      O 1257   2.154   3.670   1.630
  357HOH     H1 1258   2.143   3.711   1.544
  357HOH     H2 1259   2.145   3.742   1.693
  358HOH      O 1260   2.194   1.272   3.291
  358HOH     H1 1261   2.267   1.218   3.258
  358HOH     H2 1262   2.193   1.348   3.233
  359HOH      O 1263   2.363   0.172   1.746
  359HOH     H1 1264   2.329   0.097   1.795
  359HOH     H2 1265   2.456   0.152   1.733
  360HOH      O 1266   0.100   2.238   1.130
  360HOH     H1 1267   0.177   2.235   1.186
  360HOH     H2 1268   0.090   2.331   1.108
  361HOH      O 1269   1.689   3.745   0.110
  361HOH     H1 1270   1.725   3.751   0.198
  361HOH     H2 1271   1.671   3.836   0.085
  362HOH      O 1272   3.546   0.962   2.364
  362HOH     H1 1273   3.628   0.964   2.414
  362HOH     H2 1274   3.566   0.907   2.288
  363HOH      O 1275   1.650   2.018   0.178
  363HOH     H1 1276   1.722   1.990   0.234
  363HOH     H2 1277   1.614   2.095   0.223
  364HOH      O 1278   3.375   1.831   2.447
  364HOH     H1 1279   3.435   1.779   2.394
  364HOH     H2 1280   3.381   1.919   2.410
  365HOH      O 1281   1.436   0.124   2.504
  365HOH     H1 1282   1.473   0.036   2.497
  365HOH     H2 1283   1.383   0.121   2.583
  366HOH      O 1284   3.632   0.054   1.004
  366HOH     H1 1285   3.660   0.017   1.088
  366HOH     H2 1286   3.702   0.030   0.943
  367HOH      O 1287   2.200   3.133   4.005
  367HOH     H1 1288   2.173   3.182   3.927
  367HOH     H2 1289   2.294   3.121   3.993
  368HOH      O 1290   3.401   3.031   0.077
  368HOH     H1 1291   3.346   3.051   0.002
  368HOH     H2 1292   3.476   3.089   0.069
  369HOH      O 1293   1.628   2.848   3.273
  369HOH     H1 1294   1.575   2.777   3.311
  369HOH     H2 1295   1.691   2.869   3.342
  370HOH      O 1296   2.507   0.800   0.691
  370HOH     H1 1297   2.453   0.764   0.620
  370HOH     H2 1298   2.573   0.852   0.646
  371HOH      O 1299   1.451   1.569   1.537
  371HOH     H1 1300   1.430   1.601   1.449
  371HOH     H2 1301   1.543   1.592   1.550
  372HOH      O 1302   0.771   0.916   0.505
  372HOH     H1 1303   0.738   0.935   0.417
  372HOH     H2 1304   0.866   0.916   0.495
  373HOH      O 1305   0.602   2.575   2.271
  373HOH     H1 1306   0.611   2.605   2.180
  373HOH     H2 1307   0.554   2.493   2.264
  374HOH      O 1308   1.308   1.933   2.041
  374HOH     H1 1309   1.292   2.013   1.990
  374HOH     H2 1310   1.403   1.922   2.038
  375HOH      O 1311   3.399  -0.003   2.061
  375HOH     H1 1312   3.318   0.036   2.027
  375HOH     H2 1313   3.382  -0.014   2.155
  376HOH      O 1314   3.175   0.380   1.665
  376HOH     H1 1315   3.199   0.412   1.752
  376HOH     H2 1316   3.134   0.455   1.622
  377HOH      O 1317   3.172   0.798   3.273
  377HOH     H1 1318   3.114   0.840   3.336
  377HOH     H2 1319   3.152   0.842   3.190
  378HOH      O 1320   1.661   0.433   3.590
  378HOH     H1 1321   1.624   0.395   3.670
  378HOH     H2 1322   1.715   0.506   3.622
  379HOH      O 1323   0.743   2.409   3.304
  379HOH     H1 1324   0.796   2.463   3.364
  379HOH     H2 1325   0.658   2.403   3.347
  380HOH      O 1326   3.161   2.182   1.921
  380HOH     H1 1327   3.206   2.143   1.846
  380HOH     H2 1328   3.137   2.107   1.976
  381HOH      O 1329   1.799   0.182   2.846
  381HOH     H1 1330   1.782   0.123   2.772
  381HOH     H2 1331   1.851   0.253   2.808
  382HOH      O 1332   0.977   0.135   2.599
  382HOH     H1 1333   0.962   0.053   2.646
  382HOH     H2 1334   1.034   0.110   2.526
  383HOH      O 1335   2.154   0.334   0.666
  383HOH     H1 1336   2.217   0.298   0.729
  383HOH     H2 1337   2.201   0.334   0.583
  384HOH      O 1338   0.976   0.239   0.208
  384HOH     H1 1339   1.004   0.253   0.117
  384HOH     H2 1340   1.057   0.226   0.257
  385HOH      O 1341   0.004   3.824   3.289
  385HOH     H1 1342   0.097   3.800   3.282
  385HOH     H2 1343   0.004   3.905   3.340
  386HOH      O 1344   0.381   1.645   1.349
  386HOH     H1 1345   0.361   1.620   1.440
  386HOH     H2 1346   0.297   1.678   1.315
  387HOH      O 1347   1.745   1.667   1.363
  387HOH     H1 1348   1.819   1.620   1.402
  387HOH     H2 1349   1.778   1.696   1.278
  388HOH      O 1350   2.765   1.884   0.889
  388HOH     H1 1351   2.797   1.959   0.939
  388HOH     H2 1352   2.677   1.910   0.862
  389HOH      O 1353   1.429   0.080   1.962
  389HOH     H1 1354   1.416   0.117   1.874
  389HOH     H2 1355   1.394   0.147   2.021
  390HOH      O 1356   3.720   1.514   2.845
  390HOH     H1 1357   3.737   1.513   2.751
  390HOH     H2 1358   3.694   1.605   2.864
  391HOH      O 1359   0.847   2.555   0.711
  391HOH     H1 1360   0.875   2.590   0.626
  391HOH     H2 1361   0.890   2.612   0.775
  392HOH      O 1362   2.035   2.690   1.047
  392HOH     H1 1363   1.980   2.708   1.123
  392HOH     H2 1364   2.064   2.599   1.059
  393HOH      O 1365   1.841   1.779   3.065
  393HOH     H1 1366   1.765   1.777   3.008
  393HOH     H2 1367   1.859   1.687   3.084
  394HOH      O 1368   2.136   3.607   0.798
  394HOH     H1 1369   2.116   3.578   0.709
  394HOH     H2 1370   2.141   3.526   0.849
  395HOH      O 1371   1.197   1.532   0.906
  395HOH     H1 1372   1.191   1.518   1.000
  395HOH     H2 1373   1.107   1.517   0.874
  396HOH      O 1374   0.439   3.195   2.169
  396HOH     H1 1375   0.476   3.111   2.198
  396HOH     H2 1376   0.513   3.256   2.174
  397HOH      O 1377   0.256   1.795   1.933
  397HOH     H1 1378   0.300   1.710   1.930
  397HOH     H2 1379   0.326   1.859   1.930
  398HOH      O 1380   1.763   0.291   1.405
  398HOH     H1 1381   1.845   0.242   1.404
  398HOH     H2 1382   1.776   0.356   1.475
  399HOH      O 1383   0.268   2.455   0.949
  399HOH     H1 1384   0.343   2.397   0.963
  399HOH     H2 1385   0.210   2.406   0.892
  400HOH      O 1386   0.418   0.790   2.267
  400HOH     H1 1387   0.382   0.702   2.267
  400HOH     H2 1388   0.347   0.845   2.302
  401HOH      O 1389   0.288   1.258   1.515
  401HOH     H1 1390   0.267   1.337   1.564
  401HOH     H2 1391   0.252   1.274   1.427
  402HOH      O 1392   3.814   1.353   0.084
  402HOH     H1 1393   3.820   1.367  -0.010
  402HOH     H2 1394   3.889   1.298   0.105
  403HOH      O 1395   0.243   1.737   3.051
  403HOH     H1 1396   0.195   1.668   3.097
  403HOH     H2 1397   0.283   1.789   3.120
  404HOH      O 1398   3.326   1.382   0.078
  404HOH     H1 1399   3.261   1.449   0.058
  404HOH     H2 1400   3.331   1.381   0.174
  405HOH      O 1401   0.895   0.490   3.999
  405HOH     H1 1402   0.809   0.473   4.038
  405HOH     H2 1403   0.929   0.403   3.976
  406HOH      O 1404   0.924   1.952   1.850
  406HOH     H1 1405   0.987   1.899   1.900
  406HOH     H2 1406   0.978   2.010   1.797
  407HOH      O 1407   2.334   1.899   0.346
  407HOH     H1 1408   2.421   1.880   0.311
  407HOH     H2 1409   2.284   1.820   0.330
  408HOH      O 1410   0.746   0.863   0.917
  408HOH     H1 1411   0.721   0.852   1.008
  408HOH     H2 1412   0.672   0.908   0.876
  409HOH      O 1413   3.396   3.107   3.632
  409HOH     H1 1414   3.434   3.045   3.694
  409HOH     H2 1415   3.444   3.092   3.551
  410HOH      O 1416   1.551   3.861   1.992
  410HOH     H1 1417   1.609   3.845   1.917
  410HOH     H2 1418   1.503   3.941   1.968
  411HOH      O 1419   3.694   3.850   0.729
  411HOH     H1 1420   3.709   3.759   0.753
  411HOH     H2 1421   3.754   3.900   0.785
  412HOH      O 1422   2.744   0.112   3.306
  412HOH     H1 1423   2.838   0.092   3.308
  412HOH     H2 1424   2.735   0.173   3.233
  413HOH      O 1425   2.649   1.335   0.318
  413HOH     H1 1426   2.681   1.310   0.405
  413HOH     H2 1427   2.587   1.266   0.294
  414HOH      O 1428   3.531   2.178   3.919
  414HOH     H1 1429   3.463   2.175   3.852
  414HOH     H2 1430   3.493   2.132   3.994
  415HOH      O 1431   3.689   1.310   2.544
  415HOH     H1 1432   3.625   1.365   2.589
  415HOH     H2 1433   3.766   1.366   2.533
  416HOH      O 1434   0.484   0.726   0.692
  416HOH     H1 1435   0.505   0.816   0.668
  416HOH     H2 1436   0.507   0.675   0.615
  417HOH      O 1437   3.471   2.667   2.229
  417HOH     H1 1438   3.403   2.605   2.255
  417HOH     H2 1439   3.446   2.695   2.141
  418HOH      O 1440   2.885   2.059   0.591
  418HOH     H1 1441   2.958   2.121   0.597
  418HOH     H2 1442   2.808   2.111   0.611
  419HOH      O 1443   1.691   0.859   2.647
  419HOH     H1 1444   1.718   0.925   2.711
  419HOH     H2 1445   1.666   0.909   2.569
  420HOH      O 1446   1.003   0.796   1.458
  420HOH     H1 1447   1.034   0.885   1.470
  420HOH     H2 1448   1.078   0.741   1.483
  421HOH      O 1449   3.259   2.079   0.260
  421HOH     H1 1450   3.212   2.112   0.184
  421HOH     H2 1451   3.196   2.085   0.331
  422HOH      O 1452   0.662   2.116   3.394
  422HOH     H1 1453   0.596   2.119   3.464
  422HOH     H2 1454   0.742   2.149   3.436
  423HOH      O 1455   1.555   0.250   2.956
  423HOH     H1 1456   1.629   0.216   2.907
  423HOH     H2 1457   1.553   0.198   3.037
  424HOH      O 1458   3.888   1.924   3.503
  424HOH     H1 1459   3.857   2.010   3.473
  424HOH     H2 1460   3.820   1.893   3.562
  425HOH      O 1461   0.590   2.327   2.183
  425HOH     H1 1462   0.606   2.351   2.091
  425HOH     H2 1463   0.565   2.235   2.180
  426HOH      O 1464   0.889   2.172   1.494
  426HOH     H1 1465   0.888   2.176   1.398
  426HOH     H2 1466   0.846   2.089   1.515
  427HOH      O 1467   3.306   3.531   2.303
  427HOH     H1 1468   3.252   3.452   2.308
  427HOH     H2 1469   3.275   3.575   2.224
  428HOH      O 1470   2.053   0.489   0.184
  428HOH     H1 1471   2.092   0.411   0.146
  428HOH     H2 1472   2.127   0.548   0.199
  429HOH      O 1473   0.141   2.276   2.975
  429HOH     H1 1474   0.079   2.208   2.946
  429HOH     H2 1475   0.127   2.348   2.914
  430HOH      O 1476   2.522   2.012   3.946
  430HOH     H1 1477   2.509   1.924   3.981
  430HOH     H2 1478   2.517   2.069   4.022
  431HOH      O 1479   0.507   0.885   1.859
  431HOH     H1 1480   0.522   0.811   1.801
  431HOH     H2 1481   0.422   0.867   1.900
  432HOH      O 1482   0.072   2.553   0.116
  432HOH     H1 1483   0.048   2.643   0.135
  432HOH     H2 1484   0.165   2.558   0.090
  433HOH      O 1485   3.540   3.240   0.658
  433HOH     H1 1486   3.513   3.323   0.618
  433HOH     H2 1487   3.490   3.174   0.611
  434HOH      O 1488   2.342   1.363   2.819
  434HOH     H1 1489   2.415   1.324   2.867
  434HOH     H2 1490   2.295   1.288   2.783
  435HOH      O 1491   0.779   0.886   1.613
  435HOH     H1 1492   0.844   0.881   1.543
  435HOH     H2 1493   0.803   0.816   1.674
  436HOH      O 1494   3.333   0.752   1.461
  436HOH     H1 1495   3.363   0.665   1.434
  436HOH     H2 1496   3.408   0.809   1.444
  437HOH      O 1497   3.436   1.759   2.755
  437HOH     H1 1498   3.407   1.849   2.739
  437HOH     H2 1499   3.508   1.768   2.818
  438HOH      O 1500   0.791   3.293   3.473
  438HOH     H1 1501   0.721   3.357   3.490
  438HOH     H2 1502   0.748   3.208   3.483
  439HOH      O 1503   4.031   2.483   3.184
  439HOH     H1 1504   3.995   2.553   3.129
  439HOH     H2 1505   4.034   2.406   3.126
  440HOH      O 1506   2.654   3.823   2.858
  440HOH     H1 1507   2.561   3.840   2.841
  440HOH     H2 1508   2.664   3.728   2.846
  441HOH      O 1509   3.786   3.096   2.038
  441HOH     H1 1510   3.744   3.032   1.981
  441HOH     H2 1511   3.735   3.176   2.026
  442HOH      O 1512   2.678   1.842   0.184
  442HOH     H1 1513   2.609   1.800   0.133
  442HOH     H2 1514   2.649   1.932   0.194
  443HOH      O 1515   3.384   2.517   0.525
  443HOH     H1 1516   3.316   2.569   0.483
  443HOH     H2 1517   3.451   2.581   0.550
  444HOH      O 1518   3.092   3.080   0.732
  444HOH     H1 1519   3.032   3.118   0.667
  444HOH     H2 1520   3.085   2.986   0.720
  445HOH      O 1521   3.280   2.824   0.704
  445HOH     H1 1522   3.250   2.740   0.738
  445HOH     H2 1523   3.375   2.820   0.710
  446HOH      O 1524   1.332   0.121   3.282
  446HOH     H1 1525   1.331   0.207   3.325
  446HOH     H2 1526   1.418   0.117   3.240
  447HOH      O 1527   0.694   3.104   2.528
  447HOH     H1 1528   0.750   3.084   2.603
  447HOH     H2 1529   0.754   3.137   2.461
  448HOH      O 1530   3.240   1.858   0.801
  448HOH     H1 1531   3.145   1.852   0.790
  448HOH     H2 1532   3.268   1.917   0.730
  449HOH      O 1533   1.705   3.902   2.932
  449HOH     H1 1534   1.740   3.971   2.988
  449HOH     H2 1535   1.782   3.850   2.907
  450HOH      O 1536   0.720   2.054   1.986
  450HOH     H1 1537   0.773   2.085   2.060
  450HOH     H2 1538   0.784   2.036   1.917
  451HOH      O 1539   2.465   2.830   0.220
  451HOH     H1 1540   2.388   2.885   0.207
  451HOH     H2 1541   2.440   2.770   0.290
  452HOH      O 1542   3.595   0.396   0.772
  452HOH     H1 1543   3.574   0.471   0.827
  452HOH     H2 1544   3.550   0.322   0.813
  453HOH      O 1545   0.579   3.288   1.078
  453HOH     H1 1546   0.606   3.283   0.987
  453HOH     H2 1547   0.505   3.227   1.084
  454HOH      O 1548   3.232   1.229   2.704
  454HOH     H1 1549   3.179   1.273   2.771
  454HOH     H2 1550   3.176   1.226   2.627
  455HOH      O 1551   1.319   2.074   0.132
  455HOH     H1 1552   1.384   2.140   0.155
  455HOH     H2 1553   1.235   2.116   0.150
  456HOH      O 1554   2.988   0.579   1.067
  456HOH     H1 1555   3.062   0.626   1.028
  456HOH     H2 1556   2.964   0.632   1.143
  457HOH      O 1557   1.070   3.520   0.905
  457HOH     H1 1558   0.980   3.544   0.881
  457HOH     H2 1559   1.065   3.501   0.999
  458HOH      O 1560   0.178   3.529   3.443
  458HOH     H1 1561   0.123   3.468   3.394
  458HOH     H2 1562   0.122   3.604   3.461
  459HOH      O 1563   1.211   0.561   0.367
  459HOH     H1 1564   1.148   0.557   0.295
  459HOH     H2 1565   1.158   0.579   0.445
  460HOH      O 1566   3.890   0.415   3.821
  460HOH     H1 1567   3.815   0.455   3.776
  460HOH     H2 1568   3.959   0.481   3.815
  461HOH      O 1569   3.598   2.756   1.606
  461HOH     H1 1570   3.514   2.803   1.609
  461HOH     H2 1571   3.631   2.773   1.518
  462HOH      O 1572   0.648   1.799   1.797
  462HOH     H1 1573   0.704   1.770   1.869
  462HOH     H2 1574   0.617   1.718   1.757
  463HOH      O 1575   3.721   2.647   2.369
  463HOH     H1 1576   3.633   2.655   2.333
  463HOH     H2 1577   3.709   2.659   2.464
  464HOH      O 1578   2.629   2.539   0.491
  464HOH     H1 1579   2.548   2.559   0.444
  464HOH     H2 1580   2.693   2.523   0.422
  465HOH      O 1581   2.052   1.895   2.571
  465HOH     H1 1582   1.963   1.894   2.605
  465HOH     H2 1583   2.104   1.935   2.641
  466HOH      O 1584   2.523   2.266   0.818
  466HOH     H1 1585   2.514   2.337   0.881
  466HOH     H2 1586   2.439   2.263   0.772
  467HOH      O 1587   3.207   1.442   3.652
  467HOH     H1 1588   3.197   1.394   3.570
  467HOH     H2 1589   3.292   1.415   3.686
  468HOH      O 1590   0.722   3.151   0.012
  468HOH     H1 1591   0.767   3.102   0.081
  468HOH     H2 1592   0.778   3.227  -0.005
  469HOH      O 1593   2.128   3.323   2.103
  469HOH     H1 1594   2.164   3.386   2.040
  469HOH     H2 1595   2.200   3.305   2.163
  470HOH      O 1596   0.175   1.040   3.210
  470HOH     H1 1597   0.177   0.985   3.132
  470HOH     H2 1598   0.226   0.991   3.275
  471HOH      O 1599   3.426   0.390   3.484
  471HOH     H1 1600   3.382   0.305   3.476
  471HOH     H2 1601   3.354   0.453   3.495
  472HOH      O 1602   2.550   3.702   0.615
  472HOH     H1 1603   2.590   3.654   0.688
  472HOH     H2 1604   2.612   3.694   0.543
  473HOH      O 1605   0.814   0.912   2.001
  473HOH     H1 1606   0.853   0.931   2.087
  473HOH     H2 1607   0.887   0.879   1.949
  474HOH      O 1608   3.343   3.134   0.889
  474HOH     H1 1609   3.418   3.167   0.840
  474HOH     H2 1610   3.286   3.094   0.823
  475HOH      O 1611   3.185   0.430   0.768
  475HOH     H1 1612   3.207   0.504   0.823
  475HOH     H2 1613   3.115   0.384   0.815
  476HOH      O 1614   0.427   2.319   2.731
  476HOH     H1 1615   0.338   2.348   2.711
  476HOH     H2 1616   0.483   2.374   2.675
  477HOH      O 1617   3.269   2.815   3.579
  477HOH     H1 1618   3.233   2.737   3.623
  477HOH     H2 1619   3.325   2.856   3.645
  478HOH      O 1620   2.627   1.273   2.238
  478HOH     H1 1621   2.669   1.354   2.267
  478HOH     H2 1622   2.605   1.227   2.319
  479HOH      O 1623   1.475   1.492   3.616
  479HOH     H1 1624   1.488   1.494   3.521
  479HOH     H2 1625   1.383   1.468   3.628
  480HOH      O 1626   2.537   2.433   1.009
  480HOH     H1 1627   2.494   2.518   1.014
  480HOH     H2 1628   2.629   2.452   1.029
  481HOH      O 1629   2.392   3.931   0.653
  481HOH     H1 1630   2.374   3.967   0.566
  481HOH     H2 1631   2.457   3.863   0.637
  482HOH      O 1632   4.021   3.219   2.708
  482HOH     H1 1633   3.938   3.242   2.751
  482HOH     H2 1634   4.040   3.130   2.740
  483HOH      O 1635   0.910   2.193   3.518
  483HOH     H1 1636   0.897   2.255   3.589
  483HOH     H2 1637   0.985   2.227   3.469
  484HOH      O 1638   1.487   0.417   2.114
  484HOH     H1 1639   1.505   0.511   2.104
  484HOH     H2 1640   1.560   0.385   2.167
  485HOH      O 1641   2.496   2.827   0.639
  485HOH     H1 1642   2.422   2.766   0.638
  485HOH     H2 1643   2.551   2.797   0.712
  486HOH      O 1644   3.747   0.973   2.901
  486HOH     H1 1645   3.721   1.056   2.861
  486HOH     H2 1646   3.742   0.909   2.830
  487HOH      O 1647   3.615   2.974   3.492
  487HOH     H1 1648   3.682   3.040   3.513
  487HOH     H2 1649   3.603   2.981   3.398
  488HOH      O 1650   3.384   3.807   1.819
  488HOH     H1 1651   3.391   3.884   1.875
  488HOH     H2 1652   3.446   3.745   1.856
  489HOH      O 1653   1.990   2.614   1.708
  489HOH     H1 1654   2.076   2.648   1.734
  489HOH     H2 1655   1.969   2.548   1.774
  490HOH      O 1656   3.223   0.245   1.395
  490HOH     H1 1657   3.183   0.267   1.479
  490HOH     H2 1658   3.228   0.328   1.348
  491HOH      O 1659   1.993   1.159   2.675
  491HOH     H1 1660   2.087   1.169   2.689
  491HOH     H2 1661   1.960   1.248   2.667
  492HOH      O 1662   1.188   3.942   1.045
  492HOH     H1 1663   1.279   3.932   1.018
  492HOH     H2 1664   1.157   4.020   0.999
  493HOH      O 1665   1.650   2.868   0.808
  493HOH     H1 1666   1.713   2.803   0.839
  493HOH     H2 1667   1.612   2.829   0.730
  494HOH      O 1668   3.841   0.772   0.550
  494HOH     H1 1669   3.837   0.830   0.626
  494HOH     H2 1670   3.928   0.731   0.556
  495HOH      O 1671   2.743   3.576   3.322
  495HOH     H1 1672   2.696   3.645   3.275
  495HOH     H2 1673   2.677   3.537   3.379
  496HOH      O 1674   1.744   2.083   3.945
  496HOH     H1 1675   1.704   2.065   4.030
  496HOH     H2 1676   1.781   1.999   3.917
  497HOH      O 1677   0.366   3.452   0.095
  497HOH     H1 1678   0.291   3.413   0.049
  497HOH     H2 1679   0.327   3.520   0.150
  498HOH      O 1680   0.076   3.046   3.852
  498HOH     H1 1681   0.108   2.978   3.792
  498HOH     H2 1682   0.055   3.120   3.795
  499HOH      O 1683   3.476   1.680   0.216
  499HOH     H1 1684   3.556   1.628   0.216
  499HOH     H2 1685   3.447   1.678   0.307
  500HOH      O 1686   3.718   2.064   3.777
  500HOH     H1 1687   3.659   2.100   3.844
  500HOH     H2 1688   3.669   1.991   3.739
  501HOH      O 1689   1.352   0.229   0.953
  501HOH     H1 1690   1.421   0.190   0.899
  501HOH     H2 1691   1.393   0.244   1.038
  502HOH      O 1692   2.824   1.747   1.707
  502HOH     H1 1693   2.913   1.748   1.744
  502HOH     H2 1694   2.836   1.773   1.616
  503HOH      O 1695   0.449   2.228   0.540
  503HOH     H1 1696   0.368   2.193   0.576
  503HOH     H2 1697   0.451   2.196   0.450
  504HOH      O 1698   0.033   0.027   3.678
  504HOH     H1 1699   0.060   0.062   3.593
  504HOH     H2 1700  -0.062   0.024   3.673
  505HOH      O 1701   0.171   2.773   1.268
  505HOH     H1 1702   0.207   2.702   1.321
  505HOH     H2 1703   0.239   2.792   1.203
  506HOH      O 1704   1.525   0.408   3.880
  506HOH     H1 1705   1.505   0.339   3.817
  506HOH     H2 1706   1.603   0.377   3.926
  507HOH      O 1707   2.119   2.779   1.503
  507HOH     H1 1708   2.058   2.803   1.573
  507HOH     H2 1709   2.126   2.858   1.449
  508HOH      O 1710   2.367   3.562   3.316
  508HOH     H1 1711   2.385   3.477   3.356
  508HOH     H2 1712   2.383   3.549   3.223
  509HOH      O 1713   1.711   2.002   2.535
  509HOH     H1 1714   1.760   1.982   2.615
  509HOH     H2 1715   1.657   2.077   2.559
  510HOH      O 1716   3.088  -0.007   0.615
  510HOH     H1 1717   2.997   0.015   0.635
  510HOH     H2 1718   3.137   0.021   0.692
  511HOH      O 1719   3.327   1.775   0.476
  511HOH     H1 1720   3.326   1.867   0.504
  511HOH     H2 1721   3.243   1.763   0.431
  512HOH      O 1722   1.914   1.156   0.316
  512HOH     H1 1723   1.975   1.132   0.385
  512HOH     H2 1724   1.905   1.076   0.263
  513HOH      O 1725  -0.001   3.368   1.569
  513HOH     H1 1726   0.044   3.301   1.519
  513HOH     H2 1727   0.039   3.450   1.541
  514HOH      O 1728   2.036   3.485   3.426
  514HOH     H1 1729   2.051   3.577   3.404
  514HOH     H2 1730   2.019   3.486   3.520
  515HOH      O 1731   3.232   3.203   1.131
  515HOH     H1 1732   3.275   3.202   1.046
  515HOH     H2 1733   3.258   3.120   1.172
  516HOH      O 1734   1.900   3.988   2.138
  516HOH     H1 1735   1.966   3.996   2.207
  516HOH     H2 1736   1.902   3.895   2.115
  517HOH      O 1737   3.222   2.668   2.497
  517HOH     H1 1738   3.139   2.694   2.458
  517HOH     H2 1739   3.243   2.584   2.455
  518HOH      O 1740   2.431   3.418   0.993
  518HOH     H1 1741   2.382   3.499   0.980
  518HOH     H2 1742   2.497   3.440   1.058
  519HOH      O 1743   0.184   1.110   0.177
  519HOH     H1 1744   0.175   1.015   0.179
  519HOH     H2 1745   0.245   1.130   0.248
  520HOH      O 1746   0.348   1.555   2.844
  520HOH     H1 1747   0.347   1.583   2.936
  520HOH     H2 1748   0.314   1.631   2.796
  521HOH      O 1749   3.245   3.553   2.040
  521HOH     H1 1750   3.249   3.557   1.945
  521HOH     H2 1751   3.161   3.511   2.059
  522HOH      O 1752   3.726   3.446   1.556
  522HOH     H1 1753   3.751   3.474   1.468
  522HOH     H2 1754   3.792   3.485   1.613
  523HOH      O 1755   3.132   1.077   3.683
  523HOH     H1 1756   3.067   1.110   3.621
  523HOH     H2 1757   3.199   1.036   3.628
  524HOH      O 1758   0.405   1.401   2.147
  524HOH     H1 1759   0.330   1.459   2.137
  524HOH     H2 1760   0.380   1.340   2.217
  525HOH      O 1761   2.841   3.211   2.193
  525HOH     H1 1762   2.848   3.124   2.233
  525HOH     H2 1763   2.750   3.237   2.208
  526HOH      O 1764   2.300   0.236   0.891
  526HOH     H1 1765   2.325   0.325   0.916
  526HOH     H2 1766   2.302   0.187   0.973
  527HOH      O 1767   0.970   1.844   3.564
  527HOH     H1 1768   0.881   1.819   3.539
  527HOH     H2 1769   0.969   1.940   3.565
  528HOH      O 1770   3.126   1.837   1.455
  528HOH     H1 1771   3.161   1.871   1.373
  528HOH     H2 1772   3.056   1.898   1.478
  529HOH      O 1773   2.471   3.134   2.010
  529HOH     H1 1774   2.506   3.205   1.957
  529HOH     H2 1775   2.419   3.082   1.950
  530HOH      O 1776   2.719   1.053   3.540
  530HOH     H1 1777   2.691   1.011   3.621
  530HOH     H2 1778   2.642   1.047   3.483
  531HOH      O 1779   2.649   0.632   1.851
  531HOH     H1 1780   2.656   0.716   1.807
  531HOH     H2 1781   2.739   0.613   1.880
  532HOH      O 1782   3.433   3.775   1.245
  532HOH     H1 1783   3.407   3.866   1.258
  532HOH     H2 1784   3.438   3.739   1.334
  533HOH      O 1785   2.555   2.858   1.261
  533HOH     H1 1786   2.645   2.890   1.268
  533HOH     H2 1787   2.525   2.851   1.351
  534HOH      O 1788   2.762   0.578  -0.016
  534HOH     H1 1789   2.814   0.649   0.022
  534HOH     H2 1790   2.720   0.536   0.059
  535HOH      O 1791   0.749   0.173   2.390
  535HOH     H1 1792   0.752   0.229   2.468
  535HOH     H2 1793   0.755   0.234   2.317
  536HOH      O 1794   0.632   0.190   1.728
  536HOH     H1 1795   0.630   0.207   1.822
  536HOH     H2 1796   0.712   0.235   1.698
  537HOH      O 1797   3.635   0.173   3.521
  537HOH     H1 1798   3.541   0.169   3.500
  537HOH     H2 1799   3.677   0.194   3.438
  538HOH      O 1800   2.044   2.969   2.890
  538HOH     H1 1801   2.015   3.060   2.885
  538HOH     H2 1802   2.021   2.942   2.979
  539HOH      O 1803   1.166   2.599   2.766
  539HOH     H1 1804   1.093   2.567   2.712
  539HOH     H2 1805   1.219   2.522   2.784
  540HOH      O 1806   3.018   3.025   0.137
  540HOH     H1 1807   2.959   2.977   0.078
  540HOH     H2 1808   3.023   2.971   0.215
  541HOH      O 1809   3.160   1.017   0.446
  541HOH     H1 1810   3.250   0.985   0.460
  541HOH     H2 1811   3.167   1.112   0.453
  542HOH      O 1812   1.704   2.608   2.496
  542HOH     H1 1813   1.664   2.524   2.474
  542HOH     H2 1814   1.791   2.586   2.529
  543HOH      O 1815   0.165   0.692   0.969
  543HOH     H1 1816   0.098   0.636   1.007
  543HOH     H2 1817   0.182   0.757   1.037
  544HOH      O 1818   1.761   0.723   1.532
  544HOH     H1 1819   1.693   0.757   1.474
  544HOH     H2 1820   1.757   0.779   1.609
  545HOH      O 1821   1.970   2.969   0.463
  545HOH     H1 1822   2.049   3.015   0.491
  545HOH     H2 1823   1.900   3.009   0.515
  546HOH      O 1824   2.966   3.898   1.523
  546HOH     H1 1825   2.920   3.815   1.512
  546HOH     H2 1826   2.903   3.964   1.491
  547HOH      O 1827   1.122   3.842   3.504
  547HOH     H1 1828   1.056   3.804   3.562
  547HOH     H2 1829   1.072   3.889   3.438
  548HOH      O 1830   3.141   1.475   3.304
  548HOH     H1 1831   3.236   1.469   3.296
  548HOH     H2 1832   3.115   1.534   3.233
  549HOH      O 1833   0.563   1.195   1.506
  549HOH     H1 1834   0.610   1.197   1.589
  549HOH     H2 1835   0.471   1.207   1.530
  550HOH      O 1836   0.732   1.081   1.815
  550HOH     H1 1837   0.742   1.018   1.887
  550HOH     H2 1838   0.787   1.047   1.745
  551HOH      O 1839   2.005   2.529   1.432
  551HOH     H1 1840   1.916   2.562   1.443
  551HOH     H2 1841   2.060   2.604   1.453
  552HOH      O 1842   0.870   3.325   2.134
  552HOH     H1 1843   0.913   3.406   2.107
  552HOH     H2 1844   0.782   3.353   2.160
  553HOH      O 1845   0.671   0.805   3.082
  553HOH     H1 1846   0.699   0.786   2.992
  553HOH     H2 1847   0.641   0.721   3.116
  554HOH      O 1848   0.489   3.353   2.632
  554HOH     H1 1849   0.402   3.324   2.608
  554HOH     H2 1850   0.544   3.275   2.626
  555HOH      O 1851   1.333   0.747   0.046
  555HOH     H1 1852   1.262   0.707   0.096
  555HOH     H2 1853   1.331   0.839   0.071
  556HOH      O 1854   0.435   1.406   1.199
  556HOH     H1 1855   0.438   1.479   1.261
  556HOH     H2 1856   0.466   1.443   1.116
  557HOH      O 1857   3.401  -0.009   3.212
  557HOH     H1 1858   3.427   0.080   3.236
  557HOH     H2 1859   3.438  -0.023   3.125
  558HOH      O 1860   3.289   3.997   2.328
  558HOH     H1 1861   3.281   4.051   2.407
  558HOH     H2 1862   3.326   3.914   2.359
  559HOH      O 1863   1.300   3.052   2.829
  559HOH     H1 1864   1.230   3.077   2.770
  559HOH     H2 1865   1.370   3.114   2.812
  560HOH      O 1866   1.487   1.276   1.967
  560HOH     H1 1867   1.548   1.279   1.894
  560HOH     H2 1868   1.400   1.271   1.927
  561HOH      O 1869   3.708   1.126   3.141
  561HOH     H1 1870   3.688   1.214   3.110
  561HOH     H2 1871   3.709   1.073   3.062
  562HOH      O 1872   1.197   3.645   2.595
  562HOH     H1 1873   1.228   3.678   2.680
  562HOH     H2 1874   1.168   3.556   2.614
  563HOH      O 1875   1.637   3.800   1.728
  563HOH     H1 1876   1.649   3.852   1.648
  563HOH     H2 1877   1.649   3.709   1.699
  564HOH      O 1878   3.636   3.766   2.438
  564HOH     H1 1879   3.594   3.745   2.521
  564HOH     H2 1880   3.692   3.690   2.419
  565HOH      O 1881   2.540   3.524   2.841
  565HOH     H1 1882   2.465   3.536   2.900
  565HOH     H2 1883   2.550   3.429   2.834
  566HOH      O 1884   0.785   3.697   2.155
  566HOH     H1 1885   0.695   3.698   2.186
  566HOH     H2 1886   0.837   3.720   2.232
  567HOH      O 1887   0.771   3.985   0.546
  567HOH     H1 1888   0.716   3.906   0.545
  567HOH     H2 1889   0.780   4.008   0.453
  568HOH      O 1890   1.623   1.393   0.185
  568HOH     H1 1891   1.700   1.405   0.242
  568HOH     H2 1892   1.564   1.338   0.237
  569HOH      O 1893   2.124   4.021   3.795
  569HOH     H1 1894   2.198   3.961   3.796
  569HOH     H2 1895   2.067   3.989   3.865
  570HOH      O 1896   3.879   1.024   3.821
  570HOH     H1 1897   3.925   1.105   3.844
  570HOH     H2 1898   3.894   0.966   3.896
  571HOH      O 1899   3.662   0.117   1.645
  571HOH     H1 1900   3.624   0.037   1.607
  571HOH     H2 1901   3.629   0.188   1.590
  572HOH      O 1902   0.417   2.453   3.351
  572HOH     H1 1903   0.334   2.470   3.396
  572HOH     H2 1904   0.392   2.398   3.276
  573HOH      O 1905   2.109   0.910   0.168
  573HOH     H1 1906   2.076   0.891   0.080
  573HOH     H2 1907   2.040   0.878   0.226
  574HOH      O 1908   0.691   2.579   3.743
  574HOH     H1 1909   0.665   2.665   3.775
  574HOH     H2 1910   0.668   2.580   3.650
  575HOH      O 1911   0.212   3.130   0.130
  575HOH     H1 1912   0.222   3.131   0.035
  575HOH     H2 1913   0.277   3.066   0.160
  576HOH      O 1914   1.824   0.855   0.600
  576HOH     H1 1915   1.768   0.933   0.606
  576HOH     H2 1916   1.899   0.876   0.657
  577HOH      O 1917   2.421   1.112   3.219
  577HOH     H1 1918   2.462   1.098   3.133
  577HOH     H2 1919   2.467   1.052   3.277
  578HOH      O 1920   1.124   3.238   1.561
  578HOH     H1 1921   1.116   3.175   1.633
  578HOH     H2 1922   1.216   3.264   1.563
  579HOH      O 1923   0.009   3.281   2.030
  579HOH     H1 1924   0.066   3.358   2.024
  579HOH     H2 1925  -0.054   3.304   2.099
  580HOH      O 1926   1.098   1.598   3.329
  580HOH     H1 1927   1.060   1.513   3.352
  580HOH     H2 1928   1.152   1.621   3.404
  581HOH      O 1929   0.258   0.012   1.825
  581HOH     H1 1930   0.172  -0.004   1.786
  581HOH     H2 1931   0.313   0.039   1.751
  582HOH      O 1932   3.440   0.073   3.814
  582HOH     H1 1933   3.534   0.062   3.804
  582HOH     H2 1934   3.431   0.129   3.891
  583HOH      O 1935   0.286   3.739   0.622
  583HOH     H1 1936   0.287   3.811   0.559
  583HOH     H2 1937   0.347   3.765   0.690
  584HOH      O 1938   0.147   1.355   1.197
  584HOH     H1 1939   0.091   1.424   1.232
  584HOH     H2 1940   0.236   1.386   1.211
  585HOH      O 1941   1.778   0.903   1.855
  585HOH     H1 1942   1.817   0.822   1.889
  585HOH     H2 1943   1.684   0.885   1.852
  586HOH      O 1944   0.621   3.416   2.202
  586HOH     H1 1945   0.605   3.447   2.291
  586HOH     H2 1946   0.606   3.493   2.147
  587HOH      O 1947   3.270   1.237   2.140
  587HOH     H1 1948   3.179   1.231   2.170
  587HOH     H2 1949   3.322   1.214   2.216
  588HOH      O 1950   3.872   0.980   1.662
  588HOH     H1 1951   3.813   1.052   1.684
  588HOH     H2 1952   3.898   0.943   1.746
  589HOH      O 1953   3.243   0.911   2.637
  589HOH     H1 1954   3.326   0.884   2.677
  589HOH     H2 1955   3.225   0.997   2.674
  590HOH      O 1956   0.087   1.904   1.473
  590HOH     H1 1957   0.143   1.894   1.549
  590HOH     H2 1958   0.127   1.975   1.422
  591HOH      O 1959   1.403   3.090   3.371
  591HOH     H1 1960   1.350   3.053   3.301
  591HOH     H2 1961   1.386   3.033   3.446
  592HOH      O 1962   2.289   3.072   0.925
  592HOH     H1 1963   2.340   3.062   1.006
  592HOH     H2 1964   2.256   2.984   0.907
  593HOH      O 1965   3.692   0.512   2.638
  593HOH     H1 1966   3.636   0.452   2.687
  593HOH     H2 1967   3.778   0.472   2.640
  594HOH      O 1968   2.830   0.631   3.010
  594HOH     H1 1969   2.813   0.629   2.916
  594HOH     H2 1970   2.922   0.657   3.017
  595HOH      O 1971   0.203   0.837   1.206
  595HOH     H1 1972   0.264   0.779   1.251
  595HOH     H2 1973   0.244   0.923   1.209
  596HOH      O 1974   1.989   1.553   1.439
  596HOH     H1 1975   1.964   1.533   1.529
  596HOH     H2 1976   2.036   1.475   1.409
  597HOH      O 1977   2.469   3.681   1.881
  597HOH     H1 1978   2.543   3.627   1.908
  597HOH     H2 1979   2.494   3.712   1.793
  598HOH      O 1980   3.648   1.793   2.987
  598HOH     H1 1981   3.573   1.797   3.047
  598HOH     H2 1982   3.703   1.866   3.015
  599HOH      O 1983   3.480   3.404   2.643
  599HOH     H1 1984   3.411   3.357   2.597
  599HOH     H2 1985   3.558   3.350   2.633
  600HOH      O 1986   0.616   3.716   1.581
  600HOH     H1 1987   0.650   3.806   1.581
  600HOH     H2 1988   0.677   3.668   1.527
  601HOH      O 1989   2.512   3.370   1.340
  601HOH     H1 1990   2.558   3.400   1.418
  601HOH     H2 1991   2.440   3.431   1.329
  602HOH      O 1992   2.077   1.897   1.833
  602HOH     H1 1993   1.983   1.882   1.845
  602HOH     H2 1994   2.100   1.959   1.902
  603HOH      O 1995   1.463   1.408   2.212
  603HOH     H1 1996   1.507   1.493   2.207
  603HOH     H2 1997   1.459   1.378   2.121
  604HOH      O 1998   3.410   1.492   3.263
  604HOH     H1 1999   3.438   1.434   3.192
  604HOH     H2 2000   3.437   1.579   3.235
  605HOH      O 2001   3.979   2.130   3.736
  605HOH     H1 2002   4.035   2.086   3.672
  605HOH     H2 2003   3.894   2.087   3.726
  606HOH      O 2004   1.127   0.451   0.710
  606HOH     H1 2005   1.175   0.494   0.781
  606HOH     H2 2006   1.038   0.442   0.744
  607HOH      O 2007   1.808   3.445   2.827
  607HOH     H1 2008   1.879   3.509   2.833
  607HOH     H2 2009   1.733   3.496   2.796
  608HOH      O 2010   2.100   0.934   2.242
  608HOH     H1 2011   2.035   0.939   2.312
  608HOH     H2 2012   2.120   1.025   2.221
  609HOH      O 2013   3.630   3.194   3.032
  609HOH     H1 2014   3.555   3.163   2.981
  609HOH     H2 2015   3.694   3.123   3.025
  610HOH      O 2016   2.282   0.214   3.881
  610HOH     H1 2017   2.200   0.186   3.840
  610HOH     H2 2018   2.318   0.135   3.921
  611HOH      O 2019   3.686   2.812   0.244
  611HOH     H1 2020   3.591   2.812   0.257
  611HOH     H2 2021   3.699   2.868   0.167
  612HOH      O 2022   0.762   3.892   1.117
  612HOH     H1 2023   0.828   3.869   1.182
  612HOH     H2 2024   0.681   3.900   1.167
  613HOH      O 2025   0.687   2.664   2.772
  613HOH     H1 2026   0.697   2.726   2.844
  613HOH     H2 2027   0.664   2.718   2.696
  614HOH      O 2028   1.638   3.888   3.708
  614HOH     H1 2029   1.633   3.911   3.615
  614HOH     H2 2030   1.547   3.888   3.738
  615HOH      O 2031   2.931   3.275   3.875
  615HOH     H1 2032   3.021   3.301   3.894
  615HOH     H2 2033   2.877   3.330   3.932
  616HOH      O 2034   1.147   0.012   3.104
  616HOH     H1 2035   1.152   0.103   3.074
  616HOH     H2 2036   1.217   0.004   3.168
  617HOH      O 2037   2.924   0.279   0.777
  617HOH     H1 2038   2.842   0.259   0.822
  617HOH     H2 2039   2.903   0.267   0.684
  618HOH      O 2040   3.403   0.089   2.785
  618HOH     H1 2041   3.451   0.055   2.861
  618HOH     H2 2042   3.426   0.030   2.714
  619HOH      O 2043   0.607   0.113   0.097
  619HOH     H1 2044   0.515   0.087   0.101
  619HOH     H2 2045   0.640   0.072   0.016
  620HOH      O 2046   2.411   0.260   1.405
  620HOH     H1 2047   2.400   0.165   1.410
  620HOH     H2 2048   2.478   0.280   1.470
  621HOH      O 2049   1.061   0.924   2.759
  621HOH     H1 2050   0.992   0.980   2.796
  621HOH     H2 2051   1.120   0.909   2.832
  622HOH      O 2052   1.577   4.000   0.662
  622HOH     H1 2053   1.510   3.932   0.651
  622HOH     H2 2054   1.615   3.983   0.748
  623HOH      O 2055   2.832   2.548   0.682
  623HOH     H1 2056   2.772   2.549   0.608
  623HOH     H2 2057   2.808   2.625   0.734
  624HOH      O 2058   3.983   3.506   3.065
  624HOH     H1 2059   4.047   3.443   3.033
  624HOH     H2 2060   4.030   3.589   3.068
  625HOH      O 2061   2.932   0.058   1.840
  625HOH     H1 2062   2.899   0.127   1.783
  625HOH     H2 2063   2.876   0.061   1.917
  626HOH      O 2064   1.918   3.629   2.632
  626HOH     H1 2065   1.994   3.572   2.628
  626HOH     H2 2066   1.847   3.578   2.594
  627HOH      O 2067   3.990   2.575   1.889
  627HOH     H1 2068   4.033   2.651   1.850
  627HOH     H2 2069   4.044   2.552   1.964
  628HOH      O 2070   3.601   2.255   3.146
  628HOH     H1 2071   3.547   2.307   3.206
  628HOH     H2 2072   3.583   2.291   3.060
  629HOH      O 2073   3.828   1.170   2.349
  629HOH     H1 2074   3.789   1.243   2.397
  629HOH     H2 2075   3.797   1.092   2.393
  630HOH      O 2076   3.962   0.303   2.680
  630HOH     H1 2077   4.002   0.221   2.651
  630HOH     H2 2078   3.951   0.292   2.775
  631HOH      O 2079   3.190   1.473   2.360
  631HOH     H1 2080   3.125   1.518   2.414
  631HOH     H2 2081   3.145   1.394   2.329
  632HOH      O 2082   3.229   0.748   2.196
  632HOH     H1 2083   3.165   0.770   2.128
  632HOH     H2 2084   3.181   0.756   2.278
  633HOH      O 2085   1.433   3.421   3.141
  633HOH     H1 2086   1.436   3.473   3.061
  633HOH     H2 2087   1.364   3.356   3.124
  634HOH      O 2088   1.462   1.823   0.514
  634HOH     H1 2089   1.459   1.890   0.583
  634HOH     H2 2090   1.552   1.826   0.483
  635HOH      O 2091   0.118   1.659   1.376
  635HOH     H1 2092   0.156   1.645   1.463
  635HOH     H2 2093   0.101   1.753   1.373
  636HOH      O 2094   1.365   0.762   2.356
  636HOH     H1 2095   1.272   0.742   2.347
  636HOH     H2 2096   1.393   0.712   2.432
  637HOH      O 2097   0.617   0.422   1.118
  637HOH     H1 2098   0.652   0.359   1.055
  637HOH     H2 2099   0.548   0.468   1.070
  638HOH      O 2100   0.908   2.020   1.004
  638HOH     H1 2101   0.925   1.933   0.969
  638HOH     H2 2102   0.920   2.079   0.930
  639HOH      O 2103   2.640   3.909   2.132
  639HOH     H1 2104   2.727   3.869   2.130
  639HOH     H2 2105   2.638   3.965   2.055
  640HOH      O 2106   3.975   0.659   3.033
  640HOH     H1 2107   4.034   0.587   3.059
  640HOH     H2 2108   3.892   0.616   3.015
  641HOH      O 2109   1.482   2.262   0.233
  641HOH     H1 2110   1.556   2.308   0.193
  641HOH     H2 2111   1.462   2.312   0.311
  642HOH      O 2112   2.360   4.051   0.003
  642HOH     H1 2113   2.348   3.959  -0.023
  642HOH     H2 2114   2.448   4.054   0.041
  643HOH      O 2115   3.510   3.088   0.337
  643HOH     H1 2116   3.497   3.010   0.283
  643HOH     H2 2117   3.440   3.084   0.402
  644HOH      O 2118   3.826   3.383   0.735
  644HOH     H1 2119   3.812   3.339   0.818
  644HOH     H2 2120   3.758   3.349   0.677
  645HOH      O 2121   3.189   0.041   2.559
  645HOH     H1 2122   3.104  -0.002   2.564
  645HOH     H2 2123   3.214   0.057   2.650
  646HOH      O 2124   0.431   0.411   1.761
  646HOH     H1 2125   0.350   0.369   1.731
  646HOH     H2 2126   0.501   0.360   1.718
  647HOH      O 2127   0.524   3.313   3.206
  647HOH     H1 2128   0.438   3.281   3.180
  647HOH     H2 2129   0.566   3.238   3.248
  648HOH      O 2130   1.408   1.437   2.857
  648HOH     H1 2131   1.408   1.464   2.765
  648HOH     H2 2132   1.343   1.495   2.897
  649HOH      O 2133   2.215   1.304   0.960
  649HOH     H1 2134   2.284   1.318   0.895
  649HOH     H2 2135   2.164   1.384   0.959
  650HOH      O 2136   1.545   2.499   3.508
  650HOH     H1 2137   1.640   2.506   3.497
  650HOH     H2 2138   1.534   2.443   3.586
  651HOH      O 2139   3.571   3.201   1.248
  651HOH     H1 2140   3.595   3.289   1.218
  651HOH     H2 2141   3.603   3.143   1.179
  652HOH      O 2142   0.604   2.787   1.747
  652HOH     H1 2143   0.600   2.843   1.825
  652HOH     H2 2144   0.518   2.798   1.706
  653HOH      O 2145   3.316   0.663   3.472
  653HOH     H1 2146   3.262   0.695   3.399
  653HOH     H2 2147   3.402   0.648   3.434
  654HOH      O 2148   1.170   1.300   2.619
  654HOH     H1 2149   1.141   1.228   2.563
  654HOH     H2 2150   1.094   1.359   2.623
  655HOH      O 2151   0.466   2.094   3.597
  655HOH     H1 2152   0.392   2.107   3.538
  655HOH     H2 2153   0.440   2.139   3.677
  656HOH      O 2154   3.881   1.404   0.869
  656HOH     H1 2155   3.923   1.325   0.834
  656HOH     H2 2156   3.795   1.406   0.828
  657HOH      O 2157   2.956   0.586   1.933
  657HOH     H1 2158   3.007   0.543   2.002
  657HOH     H2 2159   2.993   0.674   1.926
  658HOH      O 2160   1.008   0.119   1.803
  658HOH     H1 2161   1.078   0.176   1.835
  658HOH     H2 2162   0.933   0.177   1.792
  659HOH      O 2163   0.694   0.429   0.707
  659HOH     H1 2164   0.747   0.475   0.772
  659HOH     H2 2165   0.713   0.475   0.625
  660HOH      O 2166   1.683   2.745   0.431
  660HOH     H1 2167   1.612   2.809   0.429
  660HOH     H2 2168   1.734   2.763   0.352
  661HOH      O 2169   1.361   3.171   0.592
  661HOH     H1 2170   1.281   3.123   0.611
  661HOH     H2 2171   1.423   3.142   0.659
  662HOH      O 2172   0.711   2.364   1.662
  662HOH     H1 2173   0.716   2.415   1.581
  662HOH     H2 2174   0.789   2.310   1.661
  663HOH      O 2175   1.697   1.020   1.431
  663HOH     H1 2176   1.696   0.985   1.342
  663HOH     H2 2177   1.790   1.036   1.449
  664HOH      O 2178   3.302   0.749   0.885
  664HOH     H1 2179   3.224   0.728   0.835
  664HOH     H2 2180   3.270   0.802   0.959
  665HOH      O 2181   1.705   2.212   2.199
  665HOH     H1 2182   1.650   2.274   2.246
  665HOH     H2 2183   1.772   2.186   2.262
  666HOH      O 2184   0.383   2.238   3.824
  666HOH     H1 2185   0.461   2.283   3.857
  666HOH     H2 2186   0.358   2.179   3.895
  667HOH      O 2187   0.587   1.323   1.794
  667HOH     H1 2188   0.505   1.304   1.839
  667HOH     H2 2189   0.646   1.251   1.818
  668HOH      O 2190   2.892   0.976   2.010
  668HOH     H1 2191   2.855   1.064   2.001
  668HOH     H2 2192   2.859   0.944   2.094
  669HOH      O 2193   2.302   2.512   1.298
  669HOH     H1 2194   2.338   2.426   1.279
  669HOH     H2 2195   2.217   2.512   1.255
  670HOH      O 2196   1.604   2.241   1.923
  670HOH     H1 2197   1.648   2.241   2.008
  670HOH     H2 2198   1.670   2.209   1.862
  671HOH      O 2199   4.016   1.692   0.762
  671HOH     H1 2200   4.002   1.597   0.765
  671HOH     H2 2201   3.982   1.718   0.676
  672HOH      O 2202   0.805   0.045   0.294
  672HOH     H1 2203   0.859   0.118   0.266
  672HOH     H2 2204   0.730   0.044   0.234
  673HOH      O 2205   2.304   3.102   2.956
  673HOH     H1 2206   2.375   3.054   2.913
  673HOH     H2 2207   2.228   3.045   2.947
  674HOH      O 2208   2.388   2.023   0.596
  674HOH     H1 2209   2.354   1.979   0.518
  674HOH     H2 2210   2.461   2.076   0.564
  675HOH      O 2211   2.575   1.725   2.584
  675HOH     H1 2212   2.587   1.642   2.539
  675HOH     H2 2213   2.484   1.723   2.615
  676HOH      O 2214   1.072   3.258   2.407
  676HOH     H1 2215   0.992   3.206   2.405
  676HOH     H2 2216   1.073   3.304   2.323
  677HOH      O 2217   2.331   1.174   0.444
  677HOH     H1 2218   2.396   1.169   0.374
  677HOH     H2 2219   2.379   1.148   0.522
  678HOH      O 2220   1.896   2.721   2.747
  678HOH     H1 2221   1.903   2.637   2.702
  678HOH     H2 2222   1.943   2.708   2.830
  679HOH      O 2223   2.360   2.532   3.760
  679HOH     H1 2224   2.396   2.616   3.732
  679HOH     H2 2225   2.430   2.491   3.810
  680HOH      O 2226   1.691   0.977   2.412
  680HOH     H1 2227   1.659   1.059   2.373
  680HOH     H2 2228   1.654   0.909   2.356
  681HOH      O 2229   1.345   2.161   1.901
  681HOH     H1 2230   1.435   2.185   1.881
  681HOH     H2 2231   1.292   2.218   1.845
  682HOH      O 2232   2.820   2.338   2.932
  682HOH     H1 2233   2.784   2.394   3.000
  682HOH     H2 2234   2.900   2.383   2.903
  683HOH      O 2235   3.000   2.090   1.475
  683HOH     H1 2236   2.981   2.153   1.406
  683HOH     H2 2237   3.020   2.143   1.552
  684HOH      O 2238   1.983   0.330   3.593
  684HOH     H1 2239   1.939   0.251   3.624
  684HOH     H2 2240   2.048   0.299   3.529
  685HOH      O 2241   3.039   3.923   3.489
  685HOH     H1 2242   3.021   3.829   3.496
  685HOH     H2 2243   3.133   3.931   3.504
  686HOH      O 2244   0.490   1.532   0.962
  686HOH     H1 2245   0.460   1.620   0.940
  686HOH     H2 2246   0.458   1.477   0.891
  687HOH      O 2247   3.072   0.716   2.861
  687HOH     H1 2248   3.044   0.714   2.769
  687HOH     H2 2249   3.069   0.625   2.889
  688HOH      O 2250   2.469   3.778   3.470
  688HOH     H1 2251   2.458   3.715   3.399
  688HOH     H2 2252   2.531   3.842   3.436
  689HOH      O 2253   1.812   4.031   2.616
  689HOH     H1 2254   1.878   3.977   2.572
  689HOH     H2 2255   1.743   3.969   2.640
  690HOH      O 2256   0.178   1.804   0.169
  690HOH     H1 2257   0.202   1.830   0.081
  690HOH     H2 2258   0.129   1.722   0.158
  691HOH      O 2259   2.229   1.166   0.166
  691HOH     H1 2260   2.205   1.205   0.082
  691HOH     H2 2261   2.217   1.071   0.152
  692HOH      O 2262   2.548   2.073   0.219
  692HOH     H1 2263   2.569   2.127   0.295
  692HOH     H2 2264   2.463   2.105   0.189
  693HOH      O 2265   3.999   0.912   3.577
  693HOH     H1 2266   3.949   0.932   3.498
  693HOH     H2 2267   3.937   0.930   3.649
  694HOH      O 2268   3.446   1.757   3.185
  694HOH     H1 2269   3.505   1.815   3.234
  694HOH     H2 2270   3.367   1.808   3.173
  695HOH      O 2271   2.135   3.899   0.774
  695HOH     H1 2272   2.224   3.896   0.739
  695HOH     H2 2273   2.118   3.810   0.804
  696HOH      O 2274   2.871   3.608   2.439
  696HOH     H1 2275   2.944   3.582   2.495
  696HOH     H2 2276   2.804   3.541   2.454
  697HOH      O 2277   3.818   1.168   2.089
  697HOH     H1 2278   3.831   1.170   2.184
  697HOH     H2 2279   3.759   1.242   2.072
  698HOH      O 2280   1.929   0.093   0.199
  698HOH     H1 2281   1.865   0.161   0.221
  698HOH     H2 2282   1.965   0.066   0.284
  699HOH      O 2283   0.339   2.722   2.271
  699HOH     H1 2284   0.429   2.706   2.300
  699HOH     H2 2285   0.319   2.811   2.301
  700HOH      O 2286   2.997   3.983   0.253
  700HOH     H1 2287   3.074   4.026   0.292
  700HOH     H2 2288   3.010   3.992   0.159
  701HOH      O 2289   2.011   0.853   3.942
  701HOH     H1 2290   2.028   0.768   3.901
  701HOH     H2 2291   1.919   0.848   3.969
  702HOH      O 2292   0.402   2.983   3.540
  702HOH     H1 2293   0.389   2.923   3.613
  702HOH     H2 2294   0.332   3.049   3.551
  703HOH      O 2295   1.120   0.136   2.324
  703HOH     H1 2296   1.203   0.140   2.276
  703HOH     H2 2297   1.065   0.079   2.271
  704HOH      O 2298   1.330   3.371   2.490
  704HOH     H1 2299   1.247   3.344   2.451
  704HOH     H2 2300   1.359   3.445   2.437
  705HOH      O 2301   3.268   2.299   0.756
  705HOH     H1 2302   3.358   2.315   0.727
  705HOH     H2 2303   3.223   2.382   0.740
  706HOH      O 2304   3.325   1.811   1.886
  706HOH     H1 2305   3.289   1.747   1.826
  706HOH     H2 2306   3.255   1.828   1.948
  707HOH      O 2307   3.754   0.321   1.169
  707HOH     H1 2308   3.839   0.363   1.163
  707HOH     H2 2309   3.707   0.350   1.091
  708HOH      O 2310   1.204   2.455   2.115
  708HOH     H1 2311   1.210   2.510   2.193
  708HOH     H2 2312   1.254   2.377   2.137
  709HOH      O 2313   1.137   0.277   3.036
  709HOH     H1 2314   1.204   0.316   2.980
  709HOH     H2 2315   1.068   0.343   3.040
  710HOH      O 2316   2.516   3.680   2.599
  710HOH     H1 2317   2.525   3.589   2.626
  710HOH     H2 2318   2.579   3.690   2.528
  711HOH      O 2319   1.568   1.266   3.059
  711HOH     H1 2320   1.531   1.187   3.019
  711HOH     H2 2321   1.515   1.337   3.024
  712HOH      O 2322   2.690   0.419   2.607
  712HOH     H1 2323   2.719   0.475   2.680
  712HOH     H2 2324   2.729   0.334   2.625
  713HOH      O 2325   2.909   1.486   3.423
  713HOH     H1 2326   2.993   1.476   3.379
  713HOH     H2 2327   2.855   1.535   3.362
  714HOH      O 2328   0.541   1.868   3.029
  714HOH     H1 2329   0.604   1.819   2.977
  714HOH     H2 2330   0.520   1.810   3.102
  715HOH      O 2331   2.606   0.418   2.937
  715HOH     H1 2332   2.563   0.497   2.905
  715HOH     H2 2333   2.642   0.443   3.022
  716HOH      O 2334   2.328   3.689   0.981
  716HOH     H1 2335   2.273   3.687   0.903
  716HOH     H2 2336   2.267   3.707   1.053
  717HOH      O 2337   2.947   1.237   3.567
  717HOH     H1 2338   2.867   1.186   3.577
  717HOH     H2 2339   2.925   1.302   3.500
  718HOH      O 2340   0.905   2.376   3.731
  718HOH     H1 2341   0.913   2.339   3.819
  718HOH     H2 2342   0.838   2.444   3.740
  719HOH      O 2343   0.884   1.162   3.439
  719HOH     H1 2344   0.952   1.096   3.426
  719HOH     H2 2345   0.933   1.241   3.464
  720HOH      O 2346   3.130   0.606   0.495
  720HOH     H1 2347   3.160   0.517   0.510
  720HOH     H2 2348   3.138   0.648   0.581
  721HOH      O 2349   3.431   2.702   3.077
  721HOH     H1 2350   3.358   2.649   3.046
  721HOH     H2 2351   3.411   2.720   3.168
  722HOH      O 2352   1.410   3.715   0.040
  722HOH     H1 2353   1.498   3.678   0.034
  722HOH     H2 2354   1.420   3.807   0.015
  723HOH      O 2355   1.147   3.230   0.986
  723HOH     H1 2356   1.106   3.287   1.051
  723HOH     H2 2357   1.226   3.277   0.959
  724HOH      O 2358   0.976   3.542   3.124
  724HOH     H1 2359   0.990   3.457   3.082
  724HOH     H2 2360   0.889   3.569   3.095
  725HOH      O 2361   2.752   0.260   1.302
  725HOH     H1 2362   2.703   0.334   1.337
  725HOH     H2 2363   2.836   0.298   1.275
  726HOH      O 2364   1.196   3.297   2.122
  726HOH     H1 2365   1.134   3.370   2.128
  726HOH     H2 2366   1.278   3.337   2.096
  727HOH      O 2367   0.199   3.785   1.977
  727HOH     H1 2368   0.186   3.819   2.066
  727HOH     H2 2369   0.234   3.859   1.928
  728HOH      O 2370   0.507   0.770   3.513
  728HOH     H1 2371   0.472   0.787   3.601
  728HOH     H2 2372   0.587   0.720   3.529
  729HOH      O 2373   2.064   2.489   4.009
  729HOH     H1 2374   2.076   2.452   3.922
  729HOH     H2 2375   2.003   2.429   4.052
  730HOH      O 2376   1.885   1.461   3.099
  730HOH     H1 2377   1.930   1.495   3.176
  730HOH     H2 2378   1.910   1.369   3.094
  731HOH      O 2379   0.803   3.311   1.240
  731HOH     H1 2380   0.732   3.324   1.177
  731HOH     H2 2381   0.801   3.218   1.260
  732HOH      O 2382   1.337   3.624   2.367
  732HOH     H1 2383   1.341   3.699   2.309
  732HOH     H2 2384   1.322   3.661   2.454
  733HOH      O 2385   2.437   2.888   1.795
  733HOH     H1 2386   2.522   2.856   1.825
  733HOH     H2 2387   2.385   2.809   1.781
  734HOH      O 2388   0.337   1.321   3.306
  734HOH     H1 2389   0.340   1.230   3.334
  734HOH     H2 2390   0.295   1.319   3.219
  735HOH      O 2391   1.646   3.552   0.605
  735HOH     H1 2392   1.586   3.556   0.531
  735HOH     H2 2393   1.606   3.487   0.664
  736HOH      O 2394   1.654   0.010   3.459
  736HOH     H1 2395   1.588   0.063   3.414
  736HOH     H2 2396   1.732   0.016   3.405
  737HOH      O 2397   0.571   1.039   2.266
  737HOH     H1 2398   0.545   0.950   2.243
  737HOH     H2 2399   0.553   1.047   2.359
  738HOH      O 2400   3.823   0.156   3.719
  738HOH     H1 2401   3.760   0.184   3.653
  738HOH     H2 2402   3.859   0.237   3.754
  739HOH      O 2403   1.853   1.950   2.774
  739HOH     H1 2404   1.873   1.875   2.831
  739HOH     H2 2405   1.840   2.023   2.834
  740HOH      O 2406   0.954   1.264   0.629
  740HOH     H1 2407   0.958   1.196   0.562
  740HOH     H2 2408   0.879   1.240   0.683
  741HOH      O 2409   2.057   2.441   1.141
  741HOH     H1 2410   1.987   2.420   1.203
  741HOH     H2 2411   2.102   2.358   1.126
  742HOH      O 2412   0.348   2.800   3.174
  742HOH     H1 2413   0.344   2.714   3.132
  742HOH     H2 2414   0.308   2.786   3.260
  743HOH      O 2415   0.079   1.534   0.064
  743HOH     H1 2416   0.083   1.546  -0.031
  743HOH     H2 2417   0.168   1.511   0.089
  744HOH      O 2418   2.919   0.119   3.864
  744HOH     H1 2419   2.842   0.065   3.850
  744HOH     H2 2420   2.885   0.209   3.863
  745HOH      O 2421   2.178   1.762   3.970
  745HOH     H1 2422   2.134   1.813   3.902
  745HOH     H2 2423   2.108   1.710   4.010
  746HOH      O 2424   2.782   0.037   3.550
  746HOH     H1 2425   2.875   0.024   3.533
  746HOH     H2 2426   2.740   0.027   3.465
  747HOH      O 2427   3.054   3.309   2.373
  747HOH     H1 2428   2.989   3.324   2.304
  747HOH     H2 2429   3.004   3.273   2.445
  748HOH      O 2430   2.051   3.615   3.713
  748HOH     H1 2431   1.970   3.628   3.762
  748HOH     H2 2432   2.116   3.667   3.760
  749HOH      O 2433   2.894   3.161   3.354
  749HOH     H1 2434   2.891   3.232   3.290
  749HOH     H2 2435   2.985   3.156   3.381
  750HOH      O 2436   2.606   1.560   2.315
  750HOH     H1 2437   2.578   1.554   2.224
  750HOH     H2 2438   2.526   1.541   2.365
  751HOH      O 2439   1.936   2.113   2.372
  751HOH     H1 2440   2.018   2.069   2.394
  751HOH     H2 2441   1.868   2.058   2.410
  752HOH      O 2442   2.832   1.500   2.750
  752HOH     H1 2443   2.843   1.461   2.837
  752HOH     H2 2444   2.808   1.591   2.768
  753HOH      O 2445   1.910   2.407   1.906
  753HOH     H1 2446   1.996   2.418   1.945
  753HOH     H2 2447   1.849   2.448   1.967
  754HOH      O 2448   0.126   3.748   3.020
  754HOH     H1 2449   0.149   3.812   3.087
  754HOH     H2 2450   0.209   3.703   3.001
  755HOH      O 2451   1.028   1.093   0.888
  755HOH     H1 2452   0.936   1.106   0.866
  755HOH     H2 2453   1.075   1.161   0.840
  756HOH      O 2454   1.038   1.071   2.524
  756HOH     H1 2455   1.075   1.042   2.607
  756HOH     H2 2456   0.947   1.091   2.544
  757HOH      O 2457   0.192   2.789   3.401
  757HOH     H1 2458   0.108   2.833   3.414
  757HOH     H2 2459   0.248   2.824   3.470
  758HOH      O 2460   3.017   0.868   3.856
  758HOH     H1 2461   2.938   0.859   3.801
  758HOH     H2 2462   3.081   0.810   3.815
  759HOH      O 2463   0.886   2.514   2.627
  759HOH     H1 2464   0.827   2.447   2.662
  759HOH     H2 2465   0.850   2.597   2.658
  760HOH      O 2466   0.297   1.261   2.798
  760HOH     H1 2467   0.243   1.236   2.723
  760HOH     H2 2468   0.300   1.357   2.794
  761HOH      O 2469   2.286   1.054   2.450
  761HOH     H1 2470   2.249   1.104   2.377
  761HOH     H2 2471   2.380   1.050   2.432
  762HOH      O 2472   3.267   1.731   2.176
  762HOH     H1 2473   3.315   1.650   2.158
  762HOH     H2 2474   3.207   1.708   2.247
  763HOH      O 2475   0.156   0.804   0.177
  763HOH     H1 2476   0.132   0.712   0.170
  763HOH     H2 2477   0.163   0.820   0.272
  764HOH      O 2478   0.411   3.272   3.753
  764HOH     H1 2479   0.482   3.288   3.690
  764HOH     H2 2480   0.446   3.205   3.811
  765HOH      O 2481   2.006   0.402   2.070
  765HOH     H1 2482   1.993   0.406   2.165
  765HOH     H2 2483   2.078   0.463   2.054
  766HOH      O 2484   2.855   0.284   1.721
  766HOH     H1 2485   2.791   0.338   1.768
  766HOH     H2 2486   2.925   0.344   1.698
  767HOH      O 2487   3.973   4.001   3.075
  767HOH     H1 2488   4.034   4.005   3.002
  767HOH     H2 2489   4.013   3.940   3.137
  768HOH      O 2490   3.795   2.829   0.728
  768HOH     H1 2491   3.849   2.865   0.798
  768HOH     H2 2492   3.853   2.771   0.680
  769HOH      O 2493   1.823   1.801   3.923
  769HOH     H1 2494   1.870   1.854   3.858
  769HOH     H2 2495   1.754   1.757   3.873
  770HOH      O 2496   2.801   3.124   1.470
  770HOH     H1 2497   2.853   3.180   1.527
  770HOH     H2 2498   2.710   3.147   1.489
  771HOH      O 2499   1.295   0.746   2.028
  771HOH     H1 2500   1.226   0.712   2.085
  771HOH     H2 2501   1.318   0.831   2.066
  772HOH      O 2502   3.194   2.644   0.928
  772HOH     H1 2503   3.155   2.726   0.959
  772HOH     H2 2504   3.274   2.635   0.980
  773HOH      O 2505   0.130   0.678   1.793
  773HOH     H1 2506   0.187   0.728   1.734
  773HOH     H2 2507   0.137   0.725   1.877
  774HOH      O 2508   2.268   3.801   3.881
  774HOH     H1 2509   2.335   3.749   3.837
  774HOH     H2 2510   2.260   3.762   3.968
  775HOH      O 2511   3.891   2.357   2.379
  775HOH     H1 2512   3.818   2.336   2.322
  775HOH     H2 2513   3.959   2.293   2.356
  776HOH      O 2514   0.379   0.807   3.746
  776HOH     H1 2515   0.392   0.894   3.784
  776HOH     H2 2516   0.391   0.747   3.820
  777HOH      O 2517   0.030   1.323   3.841
  777HOH     H1 2518   0.103   1.323   3.902
  777HOH     H2 2519   0.070   1.331   3.755
  778HOH      O 2520   3.176   2.866   2.691
  778HOH     H1 2521   3.267   2.887   2.713
  778HOH     H2 2522   3.182   2.809   2.615
  779HOH      O 2523   1.166   2.796   1.178
  779HOH     H1 2524   1.121   2.849   1.244
  779HOH     H2 2525   1.181   2.712   1.221
  780HOH      O 2526   3.877   2.865   2.639
  780HOH     H1 2527   3.922   2.845   2.557
  780HOH     H2 2528   3.806   2.801   2.644
  781HOH      O 2529   0.277   2.576   1.453
  781HOH     H1 2530   0.293   2.509   1.519
  781HOH     H2 2531   0.182   2.582   1.447
  782HOH      O 2532   2.637   1.854   2.327
  782HOH     H1 2533   2.614   1.894   2.411
  782HOH     H2 2534   2.616   1.761   2.339
  783HOH      O 2535   0.859   0.358   3.622
  783HOH     H1 2536   0.947   0.328   3.599
  783HOH     H2 2537   0.872   0.448   3.653
  784HOH      O 2538   3.060   3.753   2.324
  784HOH     H1 2539   3.117   3.783   2.394
  784HOH     H2 2540   2.996   3.697   2.368
  785HOH      O 2541   3.805   1.411   3.829
  785HOH     H1 2542   3.796   1.400   3.735
  785HOH     H2 2543   3.896   1.387   3.847
  786HOH      O 2544   3.433   2.713   3.372
  786HOH     H1 2545   3.406   2.621   3.372
  786HOH     H2 2546   3.386   2.752   3.445
  787HOH      O 2547   0.898   0.850   3.652
  787HOH     H1 2548   0.968   0.903   3.688
  787HOH     H2 2549   0.821   0.874   3.703
  788HOH      O 2550   1.386   1.511   2.606
  788HOH     H1 2551   1.325   1.444   2.577
  788HOH     H2 2552   1.405   1.562   2.528
  789HOH      O 2553   2.107   2.519   0.301
  789HOH     H1 2554   2.058   2.601   0.307
  789HOH     H2 2555   2.101   2.494   0.209
  790HOH      O 2556   2.356   2.996   2.445
  790HOH     H1 2557   2.294   2.927   2.469
  790HOH     H2 2558   2.438   2.951   2.426
  791HOH      O 2559   0.111   3.901   2.210
  791HOH     H1 2560   0.054   3.836   2.249
  791HOH     H2 2561   0.074   3.985   2.237
  792HOH      O 2562   1.460   0.373   0.407
  792HOH     H1 2563   1.372   0.408   0.422
  792HOH     H2 2564   1.498   0.431   0.341
  793HOH      O 2565   3.015   1.946   1.098
  793HOH     H1 2566   3.095   1.944   1.150
  793HOH     H2 2567   3.033   2.010   1.029
  794HOH      O 2568   0.259   1.276  -0.029
  794HOH     H1 2569   0.320   1.340   0.008
  794HOH     H2 2570   0.225   1.229   0.047
  795HOH      O 2571   3.985   2.767   0.289
  795HOH     H1 2572   3.891   2.773   0.273
  795HOH     H2 2573   4.023   2.830   0.227
  796HOH      O 2574   3.571   1.559   2.606
  796HOH     H1 2575   3.638   1.621   2.576
  796HOH     H2 2576   3.504   1.615   2.646
  797HOH      O 2577   3.705   0.620   1.901
  797HOH     H1 2578   3.686   0.533   1.867
  797HOH     H2 2579   3.619   0.658   1.921
  798HOH      O 2580   3.221   2.776   0.456
  798HOH     H1 2581   3.289   2.811   0.397
  798HOH     H2 2582   3.254   2.796   0.544
  799HOH      O 2583   3.552   0.903   1.426
  799HOH     H1 2584   3.628   0.853   1.457
  799HOH     H2 2585   3.590   0.973   1.373
  800HOH      O 2586   2.445   1.280   0.775
  800HOH     H1 2587   2.488   1.199   0.803
  800HOH     H2 2588   2.517   1.342   0.764
  801HOH      O 2589   1.029   2.411   1.510
  801HOH     H1 2590   1.046   2.469   1.436
  801HOH     H2 2591   0.968   2.346   1.475
  802HOH      O 2592   2.508   1.952   0.835
  802HOH     H1 2593   2.468   1.971   0.750
  802HOH     H2 2594   2.441   1.973   0.899
  803HOH      O 2595   1.741   3.123   0.782
  803HOH     H1 2596   1.742   3.130   0.686
  803HOH     H2 2597   1.723   3.031   0.800
  804HOH      O 2598   3.656   1.957   1.624
  804HOH     H1 2599   3.652   1.862   1.625
  804HOH     H2 2600   3.571   1.985   1.589
  805HOH      O 2601   2.788   3.683   1.463
  805HOH     H1 2602   2.739   3.705   1.384
  805HOH     H2 2603   2.772   3.589   1.476
  806HOH      O 2604   0.946   3.649   3.630
  806HOH     H1 2605   0.951   3.581   3.563
  806HOH     H2 2606   0.980   3.608   3.709
  807HOH      O 2607   2.571   0.148   2.965
  807HOH     H1 2608   2.510   0.108   2.903
  807HOH     H2 2609   2.530   0.233   2.986
  808HOH      O 2610   3.901   1.778   0.210
  808HOH     H1 2611   3.889   1.850   0.272
  808HOH     H2 2612   3.903   1.820   0.124
  809HOH      O 2613   2.997   1.744   2.276
  809HOH     H1 2614   2.997   1.703   2.362
  809HOH     H2 2615   3.002   1.838   2.295
  810HOH      O 2616   1.216   2.042   3.305
  810HOH     H1 2617   1.152   1.995   3.251
  810HOH     H2 2618   1.258   2.104   3.245
  811HOH      O 2619   1.818   4.022   0.546
  811HOH     H1 2620   1.725   4.011   0.566
  811HOH     H2 2621   1.848   3.933   0.525
  812HOH      O 2622   1.642   2.811   2.786
  812HOH     H1 2623   1.734   2.785   2.790
  812HOH     H2 2624   1.644   2.905   2.769
  813HOH      O 2625   1.287   4.014   0.074
  813HOH     H1 2626   1.336   3.984   0.150
  813HOH     H2 2627   1.196   4.019   0.104
  814HOH      O 2628   3.354   0.470   0.247
  814HOH     H1 2629   3.330   0.427   0.329
  814HOH     H2 2630   3.271   0.503   0.213
  815HOH      O 2631   1.660   1.354   1.346
  815HOH     H1 2632   1.583   1.337   1.400
  815HOH     H2 2633   1.728   1.299   1.383
  816HOH      O 2634   0.795   3.007   0.935
  816HOH     H1 2635   0.888   3.017   0.956
  816HOH     H2 2636   0.779   3.074   0.869
  817HOH      O 2637   3.619   1.161   3.619
  817HOH     H1 2638   3.553   1.225   3.593
  817HOH     H2 2639   3.649   1.191   3.705
  818HOH      O 2640   3.251   1.934   1.242
  818HOH     H1 2641   3.268   2.021   1.278
  818HOH     H2 2642   3.322   1.920   1.179
  819HOH      O 2643   2.275   2.658   1.782
  819HOH     H1 2644   2.310   2.621   1.701
  819HOH     H2 2645   2.315   2.606   1.852
  820HOH      O 2646   2.352   3.890   1.589
  820HOH     H1 2647   2.445   3.874   1.604
  820HOH     H2 2648   2.314   3.893   1.677
  821HOH      O 2649   3.301   0.860   0.038
  821HOH     H1 2650   3.392   0.855   0.068
  821HOH     H2 2651   3.249   0.841   0.116
  822HOH      O 2652   0.755   3.587   1.389
  822HOH     H1 2653   0.805   3.513   1.424
  822HOH     H2 2654   0.822   3.653   1.368
  823HOH      O 2655   1.188   0.967   3.462
  823HOH     H1 2656   1.182   0.968   3.557
  823HOH     H2 2657   1.257   1.031   3.441
  824HOH      O 2658   3.535   3.197   1.578
  824HOH     H1 2659   3.607   3.256   1.556
  824HOH     H2 2660   3.467   3.218   1.515
  825HOH      O 2661   1.938   3.458   2.243
  825HOH     H1 2662   1.951   3.411   2.326
  825HOH     H2 2663   1.989   3.407   2.180
  826HOH      O 2664   4.020   2.902   2.406
  826HOH     H1 2665   4.012   2.830   2.344
  826HOH     H2 2666   3.968   2.973   2.367
  827HOH      O 2667   2.183   0.111   2.455
  827HOH     H1 2668   2.278   0.109   2.456
  827HOH     H2 2669   2.158   0.052   2.383
  828HOH      O 2670   2.002   0.245   3.038
  828HOH     H1 2671   1.924   0.212   2.992
  828HOH     H2 2672   2.027   0.174   3.096
  829HOH      O 2673   1.048   3.511   1.540
  829HOH     H1 2674   1.128   3.553   1.508
  829HOH     H2 2675   1.061   3.418   1.522
  830HOH      O 2676   3.415   1.209   2.409
  830HOH     H1 2677   3.496   1.237   2.452
  830HOH     H2 2678   3.426   1.115   2.394
  831HOH      O 2679   3.570   0.444   0.514
  831HOH     H1 2680   3.564   0.359   0.472
  831HOH     H2 2681   3.583   0.424   0.607
  832HOH      O 2682   0.216   1.827   2.237
  832HOH     H1 2683   0.301   1.799   2.203
  832HOH     H2 2684   0.232   1.843   2.331
  833HOH      O 2685   3.391   1.939   1.020
  833HOH     H1 2686   3.396   2.033   1.006
  833HOH     H2 2687   3.342   1.906   0.944
  834HOH      O 2688   3.160   0.794   0.297
  834HOH     H1 2689   3.139   0.723   0.358
  834HOH     H2 2690   3.159   0.873   0.350
  835HOH      O 2691   0.271   0.833   2.009
  835HOH     H1 2692   0.252   0.919   2.047
  835HOH     H2 2693   0.242   0.770   2.076
  836HOH      O 2694   0.131   0.485   3.144
  836HOH     H1 2695   0.226   0.497   3.139
  836HOH     H2 2696   0.107   0.524   3.229
  837HOH      O 2697   2.661   2.078   2.945
  837HOH     H1 2698   2.673   2.116   3.032
  837HOH     H2 2699   2.712   2.134   2.887
  838HOH      O 2700   3.521   3.915   1.537
  838HOH     H1 2701   3.430   3.937   1.519
  838HOH     H2 2702   3.519   3.866   1.620
  839HOH      O 2703   0.635   2.821   0.143
  839HOH     H1 2704   0.571   2.760   0.179
  839HOH     H2 2705   0.719   2.778   0.155
  840HOH      O 2706   3.801   3.685   3.359
  840HOH     H1 2707   3.736   3.747   3.325
  840HOH     H2 2708   3.884   3.732   3.352
  841HOH      O 2709   2.309   3.115   0.354
  841HOH     H1 2710   2.268   3.028   0.354
  841HOH     H2 2711   2.397   3.100   0.389
  842HOH      O 2712   3.808   3.917   3.549
  842HOH     H1 2713   3.761   3.998   3.569
  842HOH     H2 2714   3.790   3.901   3.456
  843HOH      O 2715   0.871   2.195   1.232
  843HOH     H1 2716   0.887   2.129   1.165
  843HOH     H2 2717   0.833   2.269   1.186
  844HOH      O 2718   1.474   2.765   1.161
  844HOH     H1 2719   1.399   2.819   1.186
  844HOH     H2 2720   1.442   2.675   1.168
  845HOH      O 2721   2.144   2.349   3.741
  845HOH     H1 2722   2.221   2.399   3.716
  845HOH     H2 2723   2.179   2.267   3.775
  846HOH      O 2724   4.020   1.578   2.918
  846HOH     H1 2725   4.038   1.601   3.009
  846HOH     H2 2726   4.000   1.484   2.921
  847HOH      O 2727   1.929   2.399   3.603
  847HOH     H1 2728   1.878   2.319   3.617
  847HOH     H2 2729   2.006   2.388   3.658
  848HOH      O 2730   3.634   3.673   0.079
  848HOH     H1 2731   3.685   3.715   0.148
  848HOH     H2 2732   3.574   3.741   0.048
  849HOH      O 2733   1.812   3.738   0.484
  849HOH     H1 2734   1.745   3.675   0.509
  849HOH     H2 2735   1.895   3.692   0.498
  850HOH      O 2736   0.789   1.730   3.382
  850HOH     H1 2737   0.857   1.762   3.323
  850HOH     H2 2738   0.712   1.718   3.326
  851HOH      O 2739   3.238   3.526   1.758
  851HOH     H1 2740   3.315   3.564   1.715
  851HOH     H2 2741   3.183   3.496   1.685
  852HOH      O 2742   0.580   1.790   1.247
  852HOH     H1 2743   0.512   1.815   1.185
  852HOH     H2 2744   0.568   1.695   1.259
  853HOH      O 2745   0.129   1.127   3.622
  853HOH     H1 2746   0.095   1.042   3.594
  853HOH     H2 2747   0.207   1.141   3.568
  854HOH      O 2748   1.225   1.334   3.737
  854HOH     H1 2749   1.264   1.315   3.822
  854HOH     H2 2750   1.276   1.282   3.675
  855HOH      O 2751   1.279   2.016   0.847
  855HOH     H1 2752   1.285   2.038   0.754
  855HOH     H2 2753   1.213   2.076   0.881
  856HOH      O 2754   1.915   0.591   3.914
  856HOH     H1 2755   1.924   0.576   3.820
  856HOH     H2 2756   1.893   0.505   3.950
  857HOH      O 2757   1.917   3.670   1.378
  857HOH     H1 2758   1.844   3.639   1.325
  857HOH     H2 2759   1.914   3.766   1.370
  858HOH      O 2760   1.522   0.838   1.724
  858HOH     H1 2761   1.507   0.837   1.630
  858HOH     H2 2762   1.505   0.748   1.752
  859HOH      O 2763   3.578   3.467   1.127
  859HOH     H1 2764   3.628   3.545   1.151
  859HOH     H2 2765   3.638   3.417   1.071
  860HOH      O 2766   1.117   1.506   2.311
  860HOH     H1 2767   1.187   1.569   2.326
  860HOH     H2 2768   1.046   1.535   2.367
  861HOH      O 2769   2.886   0.287   0.501
  861HOH     H1 2770   2.909   0.366   0.452
  861HOH     H2 2771   2.886   0.218   0.435
  862HOH      O 2772   2.636   3.228   3.086
  862HOH     H1 2773   2.716   3.272   3.061
  862HOH     H2 2774   2.585   3.222   3.005
  863HOH      O 2775   0.195   0.206   2.015
  863HOH     H1 2776   0.274   0.252   2.045
  863HOH     H2 2777   0.227   0.145   1.949
  864HOH      O 2778   1.227   2.247   3.145
  864HOH     H1 2779   1.152   2.285   3.100
  864HOH     H2 2780   1.274   2.322   3.181
  865HOH      O 2781   3.563   1.008   0.173
  865HOH     H1 2782   3.622   0.953   0.122
  865HOH     H2 2783   3.565   1.093   0.129
  866HOH      O 2784   2.596   0.932   2.004
  866HOH     H1 2785   2.590   1.018   2.046
  866HOH     H2 2786   2.649   0.880   2.064
  867HOH      O 2787   1.705   1.597   1.646
  867HOH     H1 2788   1.726   1.673   1.591
  867HOH     H2 2789   1.788   1.573   1.686
  868HOH      O 2790   0.709   3.758   3.020
  868HOH     H1 2791   0.656   3.680   3.004
  868HOH     H2 2792   0.754   3.774   2.936
  869HOH      O 2793   0.269   1.835   2.796
  869HOH     H1 2794   0.327   1.912   2.796
  869HOH     H2 2795   0.278   1.798   2.884
  870HOH      O 2796   0.934   0.933   2.269
  870HOH     H1 2797   0.930   1.013   2.320
  870HOH     H2 2798   0.976   0.869   2.326
  871HOH      O 2799   0.446   3.037   2.626
  871HOH     H1 2800   0.390   2.986   2.568
  871HOH     H2 2801   0.533   3.034   2.586
  872HOH      O 2802   2.103   3.991   2.745
  872HOH     H1 2803   2.151   4.058   2.793
  872HOH     H2 2804   2.116   4.013   2.653
  873HOH      O 2805   1.244   1.316   1.868
  873HOH     H1 2806   1.239   1.398   1.819
  873HOH     H2 2807   1.163   1.269   1.845
  874HOH      O 2808   2.106   4.022   3.097
  874HOH     H1 2809   2.175   4.000   3.034
  874HOH     H2 2810   2.147   4.008   3.183
  875HOH      O 2811   3.439   0.926   0.720
  875HOH     H1 2812   3.450   0.866   0.646
  875HOH     H2 2813   3.412   0.870   0.792
  876HOH      O 2814   3.582   2.236   0.785
  876HOH     H1 2815   3.608   2.153   0.824
  876HOH     H2 2816   3.538   2.212   0.703
  877HOH      O 2817   2.493   1.683   3.068
  877HOH     H1 2818   2.447   1.755   3.025
  877HOH     H2 2819   2.578   1.680   3.024
  878HOH      O 2820   0.414   0.545   3.126
  878HOH     H1 2821   0.489   0.531   3.183
  878HOH     H2 2822   0.436   0.498   3.045
  879HOH      O 2823   1.215   1.710   3.564
  879HOH     H1 2824   1.147   1.777   3.558
  879HOH     H2 2825   1.289   1.755   3.604
  880HOH      O 2826   1.030   2.168   2.684
  880HOH     H1 2827   1.053   2.127   2.767
  880HOH     H2 2828   1.107   2.220   2.661
  881HOH      O 2829   0.805   2.793   3.537
  881HOH     H1 2830   0.721   2.760   3.505
  881HOH     H2 2831   0.796   2.888   3.534
  882HOH      O 2832   0.214   0.154   0.830
  882HOH     H1 2833   0.234   0.146   0.924
  882HOH     H2 2834   0.266   0.229   0.801
  883HOH      O 2835   0.199   3.502   2.026
  883HOH     H1 2836   0.205   3.494   2.121
  883HOH     H2 2837   0.202   3.596   2.009
  884HOH      O 2838   1.796   2.182   1.735
  884HOH     H1 2839   1.813   2.094   1.767
  884HOH     H2 2840   1.868   2.235   1.770
  885HOH      O 2841   0.192   2.422   2.664
  885HOH     H1 2842   0.193   2.482   2.589
  885HOH     H2 2843   0.153   2.474   2.735
  886HOH      O 2844   2.930   3.293   1.648
  886HOH     H1 2845   2.940   3.359   1.717
  886HOH     H2 2846   2.994   3.318   1.582
  887HOH      O 2847   2.439   1.787   0.029
  887HOH     H1 2848   2.460   1.726  -0.042
  887HOH     H2 2849   2.344   1.782   0.039
  888HOH      O 2850   1.339   1.012   2.529
  888HOH     H1 2851   1.280   1.081   2.499
  888HOH     H2 2852   1.335   0.945   2.462
  889HOH      O 2853   2.354   1.501   0.135
  889HOH     H1 2854   2.414   1.545   0.195
  889HOH     H2 2855   2.267   1.535   0.158
  890HOH      O 2856   3.686   2.865   1.933
  890HOH     H1 2857   3.662   2.772   1.938
  890HOH     H2 2858   3.626   2.901   1.868
  891HOH      O 2859   0.313   2.798   3.724
  891HOH     H1 2860   0.321   2.826   3.815
  891HOH     H2 2861   0.247   2.729   3.726
  892HOH      O 2862   2.785   2.023   1.228
  892HOH     H1 2863   2.800   2.078   1.151
  892HOH     H2 2864   2.871   1.989   1.251
  893HOH      O 2865   0.751   1.394   2.421
  893HOH     H1 2866   0.662   1.358   2.427
  893HOH     H2 2867   0.739   1.482   2.386
  894HOH      O 2868   0.654   3.052   3.533
  894HOH     H1 2869   0.668   3.078   3.624
  894HOH     H2 2870   0.560   3.035   3.527
  895HOH      O 2871   2.762   1.622   3.202
  895HOH     H1 2872   2.776   1.700   3.149
  895HOH     H2 2873   2.677   1.636   3.244
  896HOH      O 2874   3.201   3.636   1.354
  896HOH     H1 2875   3.259   3.650   1.279
  896HOH     H2 2876   3.204   3.718   1.403
  897HOH      O 2877   3.482   2.514   0.981
  897HOH     H1 2878   3.560   2.488   0.931
  897HOH     H2 2879   3.461   2.437   1.034
  898HOH      O 2880   3.221   1.573   1.808
  898HOH     H1 2881   3.283   1.547   1.877
  898HOH     H2 2882   3.181   1.491   1.780
  899HOH      O 2883   1.330   1.735   0.761
  899HOH     H1 2884   1.346   1.815   0.812
  899HOH     H2 2885   1.299   1.671   0.826
  900HOH      O 2886   0.428   0.072   0.451
  900HOH     H1 2887   0.479   0.126   0.510
  900HOH     H2 2888   0.371   0.020   0.508
  901HOH      O 2889   1.835   1.219   3.590
  901HOH     H1 2890   1.909   1.182   3.638
  901HOH     H2 2891   1.825   1.307   3.627
  902HOH      O 2892   0.825   3.862   2.792
  902HOH     H1 2893   0.829   3.864   2.696
  902HOH     H2 2894   0.904   3.909   2.820
  903HOH      O 2895   4.000   1.552   1.796
  903HOH     H1 2896   4.058   1.476   1.798
  903HOH     H2 2897   3.913   1.515   1.815
  904HOH      O 2898   0.152   0.729   2.871
  904HOH     H1 2899   0.218   0.767   2.930
  904HOH     H2 2900   0.081   0.702   2.929
  905HOH      O 2901   2.827   0.329   3.596
  905HOH     H1 2902   2.805   0.236   3.587
  905HOH     H2 2903   2.803   0.350   3.686
  906HOH      O 2904   1.741   2.650   3.721
  906HOH     H1 2905   1.812   2.684   3.776
  906HOH     H2 2906   1.771   2.564   3.694
  907HOH      O 2907   1.391   3.400   1.964
  907HOH     H1 2908   1.313   3.450   1.937
  907HOH     H2 2909   1.463   3.461   1.952
  908HOH      O 2910   0.153   1.736   3.413
  908HOH     H1 2911   0.153   1.686   3.331
  908HOH     H2 2912   0.227   1.701   3.462
  909HOH      O 2913   2.562   3.463   3.530
  909HOH     H1 2914   2.569   3.390   3.468
  909HOH     H2 2915   2.572   3.422   3.616
  910HOH      O 2916   1.286   1.630   1.275
  910HOH     H1 2917   1.252   1.541   1.269
  910HOH     H2 2918   1.219   1.684   1.233
  911HOH      O 2919   2.198   0.765   3.030
  911HOH     H1 2920   2.111   0.725   3.031
  911HOH     H2 2921   2.184   0.855   3.060
  912HOH      O 2922   0.379   1.132   0.399
  912HOH     H1 2923   0.428   1.211   0.424
  912HOH     H2 2924   0.308   1.127   0.463
  913HOH      O 2925   2.831   0.156   2.657
  913HOH     H1 2926   2.842   0.062   2.645
  913HOH     H2 2927   2.866   0.173   2.745
  914HOH      O 2928   1.084   2.079   1.658
  914HOH     H1 2929   1.157   2.141   1.663
  914HOH     H2 2930   1.018   2.125   1.606
  915HOH      O 2931   1.137   2.734   1.602
  915HOH     H1 2932   1.198   2.661   1.598
  915HOH     H2 2933   1.064   2.702   1.655
  916HOH      O 2934   1.555   1.697   2.204
  916HOH     H1 2935   1.606   1.670   2.128
  916HOH     H2 2936   1.556   1.792   2.202
  917HOH      O 2937   2.786   0.045   0.417
  917HOH     H1 2938   2.860   0.006   0.369
  917HOH     H2 2939   2.794   0.010   0.505
  918HOH      O 2940   3.125   3.630   0.997
  918HOH     H1 2941   3.165   3.711   0.965
  918HOH     H2 2942   3.196   3.566   0.998
  919HOH      O 2943   1.397   3.352   0.903
  919HOH     H1 2944   1.488   3.382   0.902
  919HOH     H2 2945   1.400   3.263   0.867
  920HOH      O 2946   2.281   0.384   2.269
  920HOH     H1 2947   2.304   0.346   2.353
  920HOH     H2 2948   2.206   0.441   2.289
  921HOH      O 2949   3.144   3.405   1.525
  921HOH     H1 2950   3.150   3.483   1.471
  921HOH     H2 2951   3.206   3.344   1.485
  922HOH      O 2952   0.875   1.101   2.847
  922HOH     H1 2953   0.780   1.092   2.856
  922HOH     H2 2954   0.889   1.194   2.829
  923HOH      O 2955   2.424   2.541   1.996
  923HOH     H1 2956   2.507   2.528   1.951
  923HOH     H2 2957   2.447   2.548   2.088
  924HOH      O 2958   3.870   0.900   0.322
  924HOH     H1 2959   3.828   0.835   0.267
  924HOH     H2 2960   3.867   0.862   0.410
  925HOH      O 2961   3.863   1.780   0.980
  925HOH     H1 2962   3.911   1.763   0.899
  925HOH     H2 2963   3.911   1.851   1.022
  926HOH      O 2964   0.545   4.022   3.368
  926HOH     H1 2965   0.525   3.929   3.365
  926HOH     H2 2966   0.621   4.028   3.426
  927HOH      O 2967   0.942   1.465   0.873
  927HOH     H1 2968   0.873   1.417   0.919
  927HOH     H2 2969   0.899   1.500   0.795
  928HOH      O 2970   2.087   2.066   0.329
  928HOH     H1 2971   2.131   1.981   0.326
  928HOH     H2 2972   2.104   2.105   0.243
  929HOH      O 2973   1.459   1.899   3.338
  929HOH     H1 2974   1.376   1.946   3.343
  929HOH     H2 2975   1.512   1.937   3.408
  930HOH      O 2976   1.064   0.150   0.971
  930HOH     H1 2977   1.141   0.204   0.954
  930HOH     H2 2978   1.040   0.115   0.885
  931HOH      O 2979   0.453   2.267   0.961
  931HOH     H1 2980   0.526   2.304   0.911
  931HOH     H2 2981   0.492   2.197   1.013
  932HOH      O 2982   3.644   3.026   0.836
  932HOH     H1 2983   3.697   2.972   0.777
  932HOH     H2 2984   3.620   3.102   0.783
  933HOH      O 2985   0.187   2.824   0.893
  933HOH     H1 2986   0.218   2.806   0.804
  933HOH     H2 2987   0.251   2.780   0.949
  934HOH      O 2988   2.624   0.551   3.501
  934HOH     H1 2989   2.679   0.472   3.508
  934HOH     H2 2990   2.656   0.608   3.571
  935HOH      O 2991   0.608   1.478   1.434
  935HOH     H1 2992   0.602   1.383   1.437
  935HOH     H2 2993   0.702   1.496   1.445
  936HOH      O 2994   0.750   0.496   0.448
  936HOH     H1 2995   0.733   0.416   0.398
  936HOH     H2 2996   0.845   0.495   0.461
  937HOH      O 2997   1.366   4.002   3.838
  937HOH     H1 2998   1.320   3.975   3.918
  937HOH     H2 2999   1.353   3.929   3.778
  938HOH      O 3000   1.773   1.906   1.844
  938HOH     H1 3001   1.754   1.939   1.756
  938HOH     H2 3002   1.708   1.838   1.858
  939HOH      O 3003   3.677   2.747   3.313
  939HOH     H1 3004   3.712   2.657   3.311
  939HOH     H2 3005   3.587   2.737   3.342
  940HOH      O 3006   2.857   1.728   1.116
  940HOH     H1 3007   2.908   1.809   1.120
  940HOH     H2 3008   2.780   1.750   1.064
  941HOH      O 3009   0.737   0.318   1.347
  941HOH     H1 3010   0.679   0.362   1.286
  941HOH     H2 3011   0.820   0.311   1.300
  942HOH      O 3012   2.546   3.000   0.433
  942HOH     H1 3013   2.552   2.931   0.368
  942HOH     H2 3014   2.557   2.956   0.517
  943HOH      O 3015   0.826   2.860   0.633
  943HOH     H1 3016   0.823   2.858   0.537
  943HOH     H2 3017   0.771   2.934   0.657
  944HOH      O 3018   3.423   1.628   1.502
  944HOH     H1 3019   3.449   1.656   1.415
  944HOH     H2 3020   3.483   1.674   1.561
  945HOH      O 3021   1.273   2.922   3.136
  945HOH     H1 3022   1.331   2.867   3.083
  945HOH     H2 3023   1.250   2.867   3.211
  946HOH      O 3024   1.433   1.433   0.011
  946HOH     H1 3025   1.425   1.526  -0.010
  946HOH     H2 3026   1.509   1.428   0.069
  947HOH      O 3027   2.746   0.020   1.422
  947HOH     H1 3028   2.718  -0.043   1.356
  947HOH     H2 3029   2.749   0.104   1.376
  948HOH      O 3030   0.154   0.984   2.666
  948HOH     H1 3031   0.208   1.002   2.743
  948HOH     H2 3032   0.167   0.890   2.650
  949HOH      O 3033   0.871   0.978   3.172
  949HOH     H1 3034   0.948   0.921   3.164
  949HOH     H2 3035   0.797   0.921   3.150
  950HOH      O 3036   2.817   2.661   1.555
  950HOH     H1 3037   2.820   2.598   1.483
  950HOH     H2 3038   2.728   2.653   1.589
  951HOH      O 3039   0.162   1.581   3.820
  951HOH     H1 3040   0.239   1.527   3.803
  951HOH     H2 3041   0.111   1.577   3.739
  952HOH      O 3042   3.543   0.607   0.946
  952HOH     H1 3043   3.455   0.618   0.910
  952HOH     H2 3044   3.565   0.692   0.985
  953HOH      O 3045   0.619   3.774   0.579
  953HOH     H1 3046   0.564   3.819   0.643
  953HOH     H2 3047   0.587   3.684   0.579
  954HOH      O 3048   0.135   0.266   2.967
  954HOH     H1 3049   0.142   0.322   3.045
  954HOH     H2 3050   0.147   0.326   2.894
  955HOH      O 3051   2.526   1.903   1.231
  955HOH     H1 3052   2.512   1.811   1.256
  955HOH     H2 3053   2.620   1.916   1.241
  956HOH      O 3054   3.631   1.413   2.161
  956HOH     H1 3055   3.693   1.485   2.177
  956HOH     H2 3056   3.555   1.435   2.216
  957HOH      O 3057   2.583   2.230   0.437
  957HOH     H1 3058   2.526   2.306   0.439
  957HOH     H2 3059   2.658   2.254   0.491
  958HOH      O 3060   0.634   0.594   1.329
  958HOH     H1 3061   0.647   0.561   1.240
  958HOH     H2 3062   0.563   0.541   1.365
  959HOH      O 3063   2.068   1.736   2.142
  959HOH     H1 3064   2.133   1.803   2.120
  959HOH     H2 3065   2.073   1.728   2.237
  960HOH      O 3066   3.944   3.932   2.527
  960HOH     H1 3067   3.943   3.884   2.610
  960HOH     H2 3068   3.955   3.863   2.461
  961HOH      O 3069   2.036   2.828   2.424
  961HOH     H1 3070   1.990   2.749   2.395
  961HOH     H2 3071   2.036   2.886   2.348
  962HOH      O 3072   1.644   3.279   2.090
  962HOH     H1 3073   1.649   3.331   2.170
  962HOH     H2 3074   1.561   3.304   2.050
  963HOH      O 3075   3.251   0.756   3.764
  963HOH     H1 3076   3.325   0.716   3.810
  963HOH     H2 3077   3.258   0.725   3.674
  964HOH      O 3078   2.072   0.080   1.423
  964HOH     H1 3079   2.105   0.125   1.501
  964HOH     H2 3080   2.062   0.149   1.357
  965HOH      O 3081   0.545   0.678   1.702
  965HOH     H1 3082   0.580   0.706   1.618
  965HOH     H2 3083   0.514   0.588   1.687
  966HOH      O 3084   2.790   3.988   1.010
  966HOH     H1 3085   2.880   3.988   1.042
  966HOH     H2 3086   2.782   3.907   0.960
  967HOH      O 3087   3.332   0.175   0.055
  967HOH     H1 3088   3.423   0.155   0.076
  967HOH     H2 3089   3.283   0.144   0.131
  968HOH      O 3090   1.779   0.186   1.100
  968HOH     H1 3091   1.857   0.207   1.152
  968HOH     H2 3092   1.712   0.166   1.164
  969HOH      O 3093   1.472   3.041   1.731
  969HOH     H1 3094   1.565   3.055   1.712
  969HOH     H2 3095   1.472   2.977   1.802
  970HOH      O 3096   2.408   0.485   0.969
  970HOH     H1 3097   2.449   0.488   0.882
  970HOH     H2 3098   2.482   0.494   1.030
  971HOH      O 3099   3.311   1.240   0.905
  971HOH     H1 3100   3.329   1.301   0.834
  971HOH     H2 3101   3.364   1.163   0.885
  972HOH      O 3102   2.563   1.539   2.036
  972HOH     H1 3103   2.513   1.604   1.986
  972HOH     H2 3104   2.640   1.522   1.981
  973HOH      O 3105   2.074   1.980   1.528
  973HOH     H1 3106   2.090   1.989   1.621
  973HOH     H2 3107   2.058   2.070   1.497
  974HOH      O 3108   0.749   1.468   3.650
  974HOH     H1 3109   0.722   1.379   3.672
  974HOH     H2 3110   0.844   1.467   3.655
  975HOH      O 3111   0.061   1.569   3.206
  975HOH     H1 3112   0.049   1.481   3.239
  975HOH     H2 3113  -0.023   1.613   3.221
  976HOH      O 3114   0.491   2.225   1.553
  976HOH     H1 3115   0.567   2.254   1.604
  976HOH     H2 3116   0.497   2.130   1.555
  977HOH      O 3117   1.534   2.183   3.093
  977HOH     H1 3118   1.568   2.231   3.168
  977HOH     H2 3119   1.441   2.203   3.092
  978HOH      O 3120   3.070   0.063   1.096
  978HOH     H1 3121   3.134   0.028   1.159
  978HOH     H2 3122   3.015   0.121   1.148
  979HOH      O 3123   0.861   1.650   3.069
  979HOH     H1 3124   0.812   1.678   2.992
  979HOH     H2 3125   0.913   1.576   3.039
  980HOH      O 3126   2.552   1.756   1.776
  980HOH     H1 3127   2.506   1.726   1.697
  980HOH     H2 3128   2.640   1.779   1.745
  981HOH      O 3129   3.767   0.574   2.352
  981HOH     H1 3130   3.752   0.506   2.287
  981HOH     H2 3131   3.712   0.549   2.426
  982HOH      O 3132   2.056   3.883   1.780
  982HOH     H1 3133   2.031   3.904   1.870
  982HOH     H2 3134   2.046   3.965   1.732
  983HOH      O 3135   0.332   0.104   3.870
  983HOH     H1 3136   0.262   0.169   3.861
  983HOH     H2 3137   0.288   0.025   3.899
  984HOH      O 3138   3.303   3.129   0.532
  984HOH     H1 3139   3.277   3.220   0.543
  984HOH     H2 3140   3.221   3.080   0.525
  985HOH      O 3141   1.964   0.397   1.772
  985HOH     H1 3142   1.982   0.396   1.866
  985HOH     H2 3143   2.042   0.357   1.732
  986HOH      O 3144   0.875   2.975   2.726
  986HOH     H1 3145   0.923   2.899   2.760
  986HOH     H2 3146   0.799   2.982   2.783
  987HOH      O 3147   2.388   3.873   2.769
  987HOH     H1 3148   2.414   3.797   2.716
  987HOH     H2 3149   2.299   3.893   2.739
  988HOH      O 3150   3.081   3.550   2.600
  988HOH     H1 3151   3.161   3.510   2.633
  988HOH     H2 3152   3.088   3.642   2.626
  989HOH      O 3153   2.005   0.323   1.260
  989HOH     H1 3154   2.060   0.336   1.183
  989HOH     H2 3155   1.997   0.411   1.299
  990HOH      O 3156   2.996   1.622   3.661
  990HOH     H1 3157   3.076   1.573   3.647
  990HOH     H2 3158   2.968   1.650   3.574
  991HOH      O 3159   0.403   0.213   3.459
  991HOH     H1 3160   0.367   0.147   3.519
  991HOH     H2 3161   0.474   0.169   3.413
  992HOH      O 3162   0.537   0.448   3.601
  992HOH     H1 3163   0.590   0.431   3.523
  992HOH     H2 3164   0.456   0.399   3.586
  993HOH      O 3165   0.511   0.576   2.609
  993HOH     H1 3166   0.590   0.533   2.641
  993HOH     H2 3167   0.543   0.643   2.548
  994HOH      O 3168   3.661   3.502   3.524
  994HOH     H1 3169   3.708   3.563   3.467
  994HOH     H2 3170   3.672   3.417   3.483
  995HOH      O 3171   3.053   0.129   3.350
  995HOH     H1 3172   3.069   0.045   3.392
  995HOH     H2 3173   3.104   0.191   3.402
  996HOH      O 3174   3.507   0.970   1.949
  996HOH     H1 3175   3.456   0.932   1.877
  996HOH     H2 3176   3.534   0.894   2.001
  997HOH      O 3177   1.465   3.680   3.323
  997HOH     H1 3178   1.420   3.612   3.273
  997HOH     H2 3179   1.419   3.682   3.407
  998HOH      O 3180   0.984   2.317   0.621
  998HOH     H1 3181   0.917   2.250   0.629
  998HOH     H2 3182   0.960   2.383   0.687
  999HOH      O 3183   0.042   3.149   1.299
  999HOH     H1 3184   0.132   3.146   1.332
  999HOH     H2 3185   0.017   3.057   1.291
 1000HOH      O 3186   3.751   3.269   0.951
 1000HOH     H1 3187   3.743   3.184   0.909
 1000HOH     H2 3188   3.815   3.255   1.022
 1001HOH      O 3189   3.244   3.866   0.915
 1001HOH     H1 3190   3.272   3.946   0.871
 1001HOH     H2 3191   3.264   3.882   1.008
 1002HOH      O 3192   0.830   1.465   3.379
 1002HOH     H1 3193   0.779   1.476   3.460
 1002HOH     H2 3194   0.847   1.554   3.349
 1003HOH      O 3195   1.233   3.582   1.823
 1003HOH     H1 3196   1.153   3.543   1.787
 1003HOH     H2 3197   1.225   3.675   1.802
 1004HOH      O 3198   1.058   2.890   2.341
 1004HOH     H1 3199   1.104   2.874   2.424
 1004HOH     H2 3200   1.113   2.847   2.276
 1005HOH      O 3201   3.489   3.479   0.502
 1005HOH     H1 3202   3.568   3.518   0.466
 1005HOH     H2 3203   3.418   3.516   0.450
 1006HOH      O 3204   3.151   2.333   3.770
 1006HOH     H1 3205   3.229   2.279   3.759
 1006HOH     H2 3206   3.080   2.270   3.784
 1007HOH      O 3207   3.508   3.579   2.022
 1007HOH     H1 3208   3.419   3.613   2.032
 1007HOH     H2 3209   3.514   3.510   2.088
 1008HOH      O 3210   1.652   1.113   0.171
 1008HOH     H1 3211   1.713   1.118   0.244
 1008HOH     H2 3212   1.687   1.175   0.106
 1009HOH      O 3213   2.264   3.193   1.769
 1009HOH     H1 3214   2.204   3.138   1.819
 1009HOH     H2 3215   2.221   3.205   1.684
 1010HOH      O 3216   2.789   2.462   0.288
 1010HOH     H1 3217   2.810   2.372   0.263
 1010HOH     H2 3218   2.862   2.514   0.254
 1011HOH      O 3219   2.405   2.279   1.236
 1011HOH     H1 3220   2.456   2.311   1.161
 1011HOH     H2 3221   2.467   2.225   1.285
 1012HOH      O 3222   1.783   0.317   0.277
 1012HOH     H1 3223   1.855   0.376   0.296
 1012HOH     H2 3224   1.705   0.373   0.278
 1013HOH      O 3225   1.593   3.249   3.865
 1013HOH     H1 3226   1.547   3.236   3.948
 1013HOH     H2 3227   1.661   3.182   3.865
 1014HOH      O 3228   3.083   2.422   0.351
 1014HOH     H1 3229   3.106   2.505   0.392
 1014HOH     H2 3230   3.141   2.416   0.275
 1015HOH      O 3231   0.753   1.915   1.558
 1015HOH     H1 3232   0.821   1.872   1.505
 1015HOH     H2 3233   0.754   1.867   1.641
 1016HOH      O 3234   3.071   1.293   2.927
 1016HOH     H1 3235   3.088   1.215   2.979
 1016HOH     H2 3236   3.009   1.344   2.979
 1017HOH      O 3237   0.292   1.717   0.412
 1017HOH     H1 3238   0.277   1.788   0.474
 1017HOH     H2 3239   0.280   1.757   0.326
 1018HOH      O 3240   3.304   3.872   3.538
 1018HOH     H1 3241   3.346   3.855   3.623
 1018HOH     H2 3242   3.353   3.817   3.476
 1019HOH      O 3243   1.669   3.124   2.797
 1019HOH     H1 3244   1.580   3.157   2.803
 1019HOH     H2 3245   1.693   3.103   2.888
 1020HOH      O 3246   0.732   1.221   3.160
 1020HOH     H1 3247   0.768   1.283   3.223
 1020HOH     H2 3248   0.785   1.142   3.171
 1021HOH      O 3249   0.716   4.009   3.926
 1021HOH     H1 3250   0.689   4.078   3.864
 1021HOH     H2 3251   0.740   3.935   3.870
 1022HOH      O 3252   3.439   2.488   3.697
 1022HOH     H1 3253   3.430   2.395   3.674
 1022HOH     H2 3254   3.350   2.523   3.691
 1023HOH      O 3255   1.666   3.508   2.580
 1023HOH     H1 3256   1.661   3.416   2.608
 1023HOH     H2 3257   1.634   3.506   2.490
 1024HOH      O 3258   0.476   0.400   2.396
 1024HOH     H1 3259   0.468   0.473   2.457
 1024HOH     H2 3260   0.568   0.403   2.367
 1025HOH      O 3261   1.610   0.451   0.667
 1025HOH     H1 3262   1.559   0.399   0.605
 1025HOH     H2 3263   1.619   0.394   0.744
 1026HOH      O 3264   3.103   0.528   0.105
 1026HOH     H1 3265   3.108   0.472   0.028
 1026HOH     H2 3266   3.044   0.600   0.078
 1027HOH      O 3267   0.822   1.235   2.177
 1027HOH     H1 3268   0.816   1.270   2.266
 1027HOH     H2 3269   0.759   1.163   2.176
 1028HOH      O 3270   3.144   1.181   4.010
 1028HOH     H1 3271   3.070   1.224   3.967
 1028HOH     H2 3272   3.207   1.252   4.025
 1029HOH      O 3273   3.015   1.777   2.837
 1029HOH     H1 3274   3.040   1.863   2.803
 1029HOH     H2 3275   3.072   1.715   2.791
 1030HOH      O 3276   3.638   1.129   1.764
 1030HOH     H1 3277   3.556   1.111   1.718
 1030HOH     H2 3278   3.621   1.106   1.855
 1031HOH      O 3279   0.272   0.317   2.667
 1031HOH     H1 3280   0.226   0.234   2.652
 1031HOH     H2 3281   0.299   0.344   2.579
 1032HOH      O 3282   3.884   1.729   3.299
 1032HOH     H1 3283   3.815   1.670   3.331
 1032HOH     H2 3284   3.916   1.772   3.379
 1033HOH      O 3285   3.926   1.555   1.095
 1033HOH     H1 3286   3.887   1.641   1.076
 1033HOH     H2 3287   3.925   1.509   1.011
 1034HOH      O 3288   0.202   0.287   0.149
 1034HOH     H1 3289   0.265   0.215   0.145
 1034HOH     H2 3290   0.137   0.267   0.082
 1035HOH      O 3291   1.481   1.795   1.778
 1035HOH     H1 3292   1.395   1.767   1.746
 1035HOH     H2 3293   1.518   1.845   1.706
 1036HOH      O 3294   0.029   0.130   2.250
 1036HOH     H1 3295   0.064   0.141   2.161
 1036HOH     H2 3296  -0.066   0.125   2.238
 1037HOH      O 3297   1.930   0.231   2.471
 1037HOH     H1 3298   1.883   0.154   2.502
 1037HOH     H2 3299   2.023   0.208   2.479
 1038HOH      O 3300   3.560   1.236   0.026
 1038HOH     H1 3301   3.488   1.292   0.057
 1038HOH     H2 3302   3.635   1.295   0.020
 1039HOH      O 3303   0.198   1.858   3.896
 1039HOH     H1 3304   0.194   1.764   3.884
 1039HOH     H2 3305   0.180   1.894   3.810
 1040HOH      O 3306   3.587   0.186   0.468
 1040HOH     H1 3307   3.624   0.121   0.407
 1040HOH     H2 3308   3.587   0.142   0.553
 1041HOH      O 3309   2.324   2.163   3.849
 1041HOH     H1 3310   2.244   2.112   3.837
 1041HOH     H2 3311   2.394   2.098   3.848
 1042HOH      O 3312   1.383   2.268   2.160
 1042HOH     H1 3313   1.365   2.212   2.235
 1042HOH     H2 3314   1.375   2.210   2.084
 1043HOH      O 3315   0.108   3.763   1.178
 1043HOH     H1 3316   0.200   3.755   1.201
 1043HOH     H2 3317   0.102   3.733   1.087
 1044HOH      O 3318   3.623   2.608   1.851
 1044HOH     H1 3319   3.561   2.538   1.829
 1044HOH     H2 3320   3.635   2.656   1.769
 1045HOH      O 3321   0.772   0.270   3.267
 1045HOH     H1 3322   0.802   0.236   3.352
 1045HOH     H2 3323   0.765   0.192   3.212
 1046HOH      O 3324   0.651   1.056   0.271
 1046HOH     H1 3325   0.568   1.056   0.318
 1046HOH     H2 3326   0.626   1.041   0.179
 1047HOH      O 3327   3.132   1.210   2.416
 1047HOH     H1 3328   3.085   1.208   2.333
 1047HOH     H2 3329   3.221   1.184   2.393
 1048HOH      O 3330   0.631   2.685   3.176
 1048HOH     H1 3331   0.536   2.696   3.164
 1048HOH     H2 3332   0.639   2.628   3.252
 1049HOH      O 3333   3.035   3.944   4.005
 1049HOH     H1 3334   2.984   4.000   3.947
 1049HOH     H2 3335   3.031   3.858   3.964
 1050HOH      O 3336   1.803   1.354   2.519
 1050HOH     H1 3337   1.747   1.319   2.588
 1050HOH     H2 3338   1.767   1.318   2.438
 1051HOH      O 3339   1.539   2.826   1.921
 1051HOH     H1 3340   1.555   2.848   2.012
 1051HOH     H2 3341   1.592   2.747   1.906
 1052HOH      O 3342   3.789   2.505   3.348
 1052HOH     H1 3343   3.815   2.456   3.426
 1052HOH     H2 3344   3.866   2.505   3.292
 1053HOH      O 3345   3.358   3.226   2.867
 1053HOH     H1 3346   3.268   3.223   2.899
 1053HOH     H2 3347   3.360   3.300   2.807
 1054HOH      O 3348   0.993   0.393   2.311
 1054HOH     H1 3349   0.999   0.410   2.405
 1054HOH     H2 3350   1.053   0.320   2.296
 1055HOH      O 3351   3.018   1.173   0.803
 1055HOH     H1 3352   2.991   1.214   0.721
 1055HOH     H2 3353   3.109   1.202   0.814
 1056HOH      O 3354   2.189   1.410   1.874
 1056HOH     H1 3355   2.144   1.401   1.958
 1056HOH     H2 3356   2.206   1.503   1.865
 1057HOH      O 3357   2.076   0.115   0.847
 1057HOH     H1 3358   2.087   0.026   0.813
 1057HOH     H2 3359   2.162   0.156   0.836
 1058HOH      O 3360   1.179   2.401   3.661
 1058HOH     H1 3361   1.088   2.394   3.692
 1058HOH     H2 3362   1.210   2.311   3.659
 1059HOH      O 3363   1.728   3.102   0.513
 1059HOH     H1 3364   1.681   3.048   0.451
 1059HOH     H2 3365   1.765   3.173   0.460
 1060HOH      O 3366   1.524   1.614   3.326
 1060HOH     H1 3367   1.478   1.693   3.355
 1060HOH     H2 3368   1.497   1.602   3.235
 1061HOH      O 3369   1.592   4.003   4.007
 1061HOH     H1 3370   1.526   4.004   4.077
 1061HOH     H2 3371   1.541   3.995   3.927
 1062HOH      O 3372   0.573   3.793   2.567
 1062HOH     H1 3373   0.524   3.874   2.552
 1062HOH     H2 3374   0.664   3.819   2.566
 1063HOH      O 3375   3.651   2.623   2.951
 1063HOH     H1 3376   3.663   2.536   2.988
 1063HOH     H2 3377   3.561   2.646   2.974
 1064HOH      O 3378   3.003   2.395   0.982
 1064HOH     H1 3379   3.011   2.435   0.895
 1064HOH     H2 3380   2.917   2.424   1.013
 1065HOH      O 3381   2.025   0.592   3.664
 1065HOH     H1 3382   2.017   0.503   3.630
 1065HOH     H2 3383   2.106   0.591   3.714
 1066HOH      O 3384   2.411   1.584   3.384
 1066HOH     H1 3385   2.341   1.630   3.431
 1066HOH     H2 3386   2.379   1.579   3.294
 1067HOH      O 3387   2.924   1.288   1.733
 1067HOH     H1 3388   2.863   1.271   1.661
 1067HOH     H2 3389   3.010   1.285   1.693
 1068HOH      O 3390   0.250   2.930   2.435
 1068HOH     H1 3391   0.162   2.891   2.439
 1068HOH     H2 3392   0.237   3.014   2.391
 1069HOH      O 3393   0.730   0.434   2.241
 1069HOH     H1 3394   0.720   0.525   2.212
 1069HOH     H2 3395   0.825   0.422   2.247
 1070HOH      O 3396   0.663   2.765   0.948
 1070HOH     H1 3397   0.602   2.757   0.875
 1070HOH     H2 3398   0.693   2.856   0.945
 1071HOH      O 3399   3.018   2.963   3.665
 1071HOH     H1 3400   2.994   3.049   3.629
 1071HOH     H2 3401   3.083   2.929   3.603
 1072HOH      O 3402   3.367   2.184   1.330
 1072HOH     H1 3403   3.321   2.211   1.250
 1072HOH     H2 3404   3.460   2.198   1.311
 1073HOH      O 3405   3.098   0.302   3.537
 1073HOH     H1 3406   3.115   0.256   3.619
 1073HOH     H2 3407   3.007   0.333   3.546
 1074HOH      O 3408   2.534   3.291   3.323
 1074HOH     H1 3409   2.442   3.265   3.330
 1074HOH     H2 3410   2.556   3.274   3.231
 1075HOH      O 3411   4.027   2.420   2.123
 1075HOH     H1 3412   4.011   2.345   2.181
 1075HOH     H2 3413   3.994   2.495   2.173
 1076HOH      O 3414   0.127   1.066   2.023
 1076HOH     H1 3415   0.034   1.066   2.000
 1076HOH     H2 3416   0.172   1.057   1.940
 1077HOH      O 3417   3.726   1.577   0.197
 1077HOH     H1 3418   3.799   1.638   0.202
 1077HOH     H2 3419   3.760   1.503   0.146
 1078HOH      O 3420   1.772   1.643   1.014
 1078HOH     H1 3421   1.690   1.609   1.051
 1078HOH     H2 3422   1.767   1.737   1.028
 1079HOH      O 3423   2.381   2.210   2.114
 1079HOH     H1 3424   2.289   2.231   2.130
 1079HOH     H2 3425   2.429   2.273   2.168
 1080HOH      O 3426   3.286   2.821   1.765
 1080HOH     H1 3427   3.204   2.784   1.731
 1080HOH     H2 3428   3.309   2.889   1.703
 1081HOH      O 3429   2.380   3.961   1.887
 1081HOH     H1 3430   2.357   3.871   1.912
 1081HOH     H2 3431   2.464   3.977   1.929
 1082HOH      O 3432   0.778   2.835   2.105
 1082HOH     H1 3433   0.827   2.756   2.127
 1082HOH     H2 3434   0.699   2.803   2.062
 1083HOH      O 3435   0.857   3.724   1.842
 1083HOH     H1 3436   0.831   3.711   1.933
 1083HOH     H2 3437   0.942   3.766   1.847
 1084HOH      O 3438   2.925   0.329   3.199
 1084HOH     H1 3439   2.888   0.387   3.266
 1084HOH     H2 3440   2.994   0.281   3.244
 1085HOH      O 3441   3.398   3.644   0.745
 1085HOH     H1 3442   3.327   3.694   0.703
 1085HOH     H2 3443   3.429   3.584   0.677
 1086HOH      O 3444   0.092   0.518   0.526
 1086HOH     H1 3445   0.048   0.452   0.578
 1086HOH     H2 3446   0.121   0.584   0.589
 1087HOH      O 3447   2.667   2.443   1.898
 1087HOH     H1 3448   2.656   2.352   1.923
 1087HOH     H2 3449   2.748   2.471   1.942
 1088HOH      O 3450   1.017   0.811   1.858
 1088HOH     H1 3451   1.041   0.721   1.837
 1088HOH     H2 3452   1.101   0.858   1.860
 1089HOH      O 3453   0.989   3.105   2.039
 1089HOH     H1 3454   1.046   3.163   2.091
 1089HOH     H2 3455   0.923   3.164   2.002
 1090HOH      O 3456   0.393   2.091   2.545
 1090HOH     H1 3457   0.400   2.099   2.640
 1090HOH     H2 3458   0.299   2.086   2.528
 1091HOH      O 3459   1.734   1.579   3.509
 1091HOH     H1 3460   1.732   1.660   3.559
 1091HOH     H2 3461   1.658   1.585   3.450
 1092HOH      O 3462   3.376   1.485   2.010
 1092HOH     H1 3463   3.354   1.402   2.051
 1092HOH     H2 3464   3.468   1.499   2.033
 1093HOH      O 3465   1.536   1.784   0.194
 1093HOH     H1 3466   1.610   1.745   0.241
 1093HOH     H2 3467   1.542   1.877   0.213
 1094HOH      O 3468   3.682   3.213   2.537
 1094HOH     H1 3469   3.692   3.122   2.565
 1094HOH     H2 3470   3.632   3.208   2.456
 1095HOH      O 3471   1.072   0.332   3.325
 1095HOH     H1 3472   0.984   0.359   3.295
 1095HOH     H2 3473   1.117   0.306   3.244
 1096HOH      O 3474   1.184   2.060   3.803
 1096HOH     H1 3475   1.270   2.056   3.845
 1096HOH     H2 3476   1.203   2.057   3.709
 1097HOH      O 3477   1.713   2.353   2.738
 1097HOH     H1 3478   1.781   2.411   2.704
 1097HOH     H2 3479   1.637   2.409   2.752
 1098HOH      O 3480   2.099   2.926   2.175
 1098HOH     H1 3481   2.129   2.996   2.117
 1098HOH     H2 3482   2.177   2.873   2.191
 1099HOH      O 3483   1.315   3.656   1.506
 1099HOH     H1 3484   1.337   3.732   1.560
 1099HOH     H2 3485   1.319   3.689   1.416
 1100HOH      O 3486   0.788   0.022   3.500
 1100HOH     H1 3487   0.855   0.034   3.567
 1100HOH     H2 3488   0.837   0.002   3.420
 1101HOH      O 3489   1.420   3.847   3.106
 1101HOH     H1 3490   1.328   3.831   3.127
 1101HOH     H2 3491   1.467   3.817   3.183
 1102HOH      O 3492   3.678   1.772   3.611
 1102HOH     H1 3493   3.590   1.743   3.587
 1102HOH     H2 3494   3.690   1.742   3.701
 1103HOH      O 3495   2.955   2.127   3.825
 1103HOH     H1 3496   2.875   2.160   3.785
 1103HOH     H2 3497   2.942   2.033   3.833
 1104HOH      O 3498   2.261   1.115   2.725
 1104HOH     H1 3499   2.299   1.094   2.639
 1104HOH     H2 3500   2.270   1.034   2.775
 1105HOH      O 3501   0.784   2.159   2.905
 1105HOH     H1 3502   0.761   2.202   2.823
 1105HOH     H2 3503   0.872   2.123   2.890
 1106HOH      O 3504   1.635   0.483   2.434
 1106HOH     H1 3505   1.652   0.405   2.380
 1106HOH     H2 3506   1.708   0.484   2.496
 1107HOH      O 3507   1.690   1.325   1.786
 1107HOH     H1 3508   1.711   1.401   1.732
 1107HOH     H2 3509   1.667   1.257   1.723
 1108HOH      O 3510   3.574   3.084   2.292
 1108HOH     H1 3511   3.534   3.129   2.218
 1108HOH     H2 3512   3.508   3.022   2.322
 1109HOH      O 3513   0.316   0.159   1.114
 1109HOH     H1 3514   0.386   0.106   1.076
 1109HOH     H2 3515   0.307   0.127   1.203
 1110HOH      O 3516   2.360   1.171   1.161
 1110HOH     H1 3517   2.427   1.115   1.122
 1110HOH     H2 3518   2.318   1.213   1.086
 1111HOH      O 3519   3.113   0.814   1.977
 1111HOH     H1 3520   3.060   0.894   1.972
 1111HOH     H2 3521   3.177   0.824   1.906
 1112HOH      O 3522   3.774   0.463   0.352
 1112HOH     H1 3523   3.715   0.457   0.427
 1112HOH     H2 3524   3.782   0.557   0.335
 1113HOH      O 3525   1.420   0.623   2.606
 1113HOH     H1 3526   1.367   0.543   2.616
 1113HOH     H2 3527   1.509   0.594   2.628
 1114HOH      O 3528   2.453   1.152   3.806
 1114HOH     H1 3529   2.451   1.161   3.710
 1114HOH     H2 3530   2.507   1.225   3.835
 1115HOH      O 3531   1.855   0.626   3.329
 1115HOH     H1 3532   1.887   0.688   3.394
 1115HOH     H2 3533   1.926   0.563   3.317
 1116HOH      O 3534   1.223   3.740   1.240
 1116HOH     H1 3535   1.213   3.809   1.174
 1116HOH     H2 3536   1.253   3.664   1.191
 1117HOH      O 3537   2.380   3.094   1.206
 1117HOH     H1 3538   2.408   3.181   1.233
 1117HOH     H2 3539   2.447   3.035   1.240
 1118HOH      O 3540   1.685   1.936   1.040
 1118HOH     H1 3541   1.619   1.995   1.005
 1118HOH     H2 3542   1.642   1.891   1.113
 1119HOH      O 3543   1.199   2.032   0.580
 1119HOH     H1 3544   1.217   1.962   0.517
 1119HOH     H2 3545   1.114   2.009   0.618
 1120HOH      O 3546   4.025   0.646   3.825
 1120HOH     H1 3547   4.035   0.713   3.893
 1120HOH     H2 3548   3.952   0.676   3.771
 1121HOH      O 3549   3.489   0.383   2.034
 1121HOH     H1 3550   3.541   0.430   2.099
 1121HOH     H2 3551   3.545   0.381   1.956
 1122HOH      O 3552   3.086   3.784   1.862
 1122HOH     H1 3553   3.179   3.799   1.880
 1122HOH     H2 3554   3.050   3.872   1.850
 1123HOH      O 3555   1.351   1.647   0.306
 1123HOH     H1 3556   1.433   1.673   0.265
 1123HOH     H2 3557   1.284   1.691   0.254
 1124HOH      O 3558   3.403   0.518   2.590
 1124HOH     H1 3559   3.416   0.430   2.556
 1124HOH     H2 3560   3.492   0.552   2.602
 1125HOH      O 3561   0.327   2.880   0.530
 1125HOH     H1 3562   0.413   2.907   0.498
 1125HOH     H2 3563   0.288   2.960   0.565
 1126HOH      O 3564   1.831   1.161   3.102
 1126HOH     H1 3565   1.757   1.221   3.091
 1126HOH     H2 3566   1.825   1.131   3.192
 1127HOH      O 3567   1.819   1.423   3.758
 1127HOH     H1 3568   1.777   1.508   3.742
 1127HOH     H2 3569   1.906   1.446   3.792
 1128HOH      O 3570   0.482   1.316   2.473
 1128HOH     H1 3571   0.389   1.312   2.494
 1128HOH     H2 3572   0.526   1.284   2.552
 1129HOH      O 3573   2.953   2.816   0.369
 1129HOH     H1 3574   2.940   2.894   0.424
 1129HOH     H2 3575   3.035   2.779   0.400
 1130HOH      O 3576   1.254   0.978   1.788
 1130HOH     H1 3577   1.330   0.947   1.738
 1130HOH     H2 3578   1.291   1.010   1.870
 1131HOH      O 3579   1.324   0.388   2.875
 1131HOH     H1 3580   1.360   0.476   2.863
 1131HOH     H2 3581   1.400   0.334   2.896
 1132HOH      O 3582   0.194   3.486   2.301
 1132HOH     H1 3583   0.235   3.420   2.357
 1132HOH     H2 3584   0.108   3.501   2.340
 1133HOH      O 3585   1.229   1.849   1.650
 1133HOH     H1 3586   1.280   1.865   1.570
 1133HOH     H2 3587   1.170   1.924   1.656
 1134HOH      O 3588   2.044   3.332   0.562
 1134HOH     H1 3589   2.021   3.299   0.649
 1134HOH     H2 3590   1.968   3.310   0.507
 1135HOH      O 3591   0.785   3.009   1.215
 1135HOH     H1 3592   0.776   2.998   1.120
 1135HOH     H2 3593   0.865   2.961   1.237
 1136HOH      O 3594   1.672   3.491   2.288
 1136HOH     H1 3595   1.624   3.565   2.251
 1136HOH     H2 3596   1.764   3.512   2.270
 1137HOH      O 3597   0.810   3.642   0.912
 1137HOH     H1 3598   0.809   3.681   1.000
 1137HOH     H2 3599   0.743   3.690   0.864
 1138HOH      O 3600   3.612   0.285   2.755
 1138HOH     H1 3601   3.676   0.263   2.823
 1138HOH     H2 3602   3.533   0.239   2.782
 1139HOH      O 3603   0.357   0.059   0.172
 1139HOH     H1 3604   0.284   0.002   0.148
 1139HOH     H2 3605   0.381   0.031   0.260
 1140HOH      O 3606   1.810   2.330   0.888
 1140HOH     H1 3607   1.745   2.263   0.865
 1140HOH     H2 3608   1.776   2.370   0.968
 1141HOH      O 3609   1.347   1.003   0.141
 1141HOH     H1 3610   1.267   1.034   0.183
 1141HOH     H2 3611   1.377   1.077   0.088
 1142HOH      O 3612   3.025   1.613   0.591
 1142HOH     H1 3613   3.060   1.645   0.507
 1142HOH     H2 3614   2.989   1.692   0.633
 1143HOH      O 3615   3.978   0.865  -0.007
 1143HOH     H1 3616   4.063   0.858   0.036
 1143HOH     H2 3617   3.922   0.804   0.040
 1144HOH      O 3618   1.860   0.637   1.866
 1144HOH     H1 3619   1.902   0.561   1.825
 1144HOH     H2 3620   1.924   0.667   1.931
 1145HOH      O 3621   3.874   3.999   0.842
 1145HOH     H1 3622   3.886   4.066   0.775
 1145HOH     H2 3623   3.963   3.974   0.867
 1146HOH      O 3624   1.381   1.182   3.562
 1146HOH     H1 3625   1.464   1.163   3.606
 1146HOH     H2 3626   1.406   1.207   3.473
 1147HOH      O 3627   0.756   1.101   2.535
 1147HOH     H1 3628   0.690   1.032   2.541
 1147HOH     H2 3629   0.728   1.167   2.599
 1148HOH      O 3630   0.858   0.273   1.634
 1148HOH     H1 3631   0.828   0.332   1.565
 1148HOH     H2 3632   0.947   0.249   1.609
 1149HOH      O 3633   3.954   0.615   2.112
 1149HOH     H1 3634   3.886   0.636   2.176
 1149HOH     H2 3635   3.950   0.520   2.104
 1150HOH      O 3636   3.878   3.328   1.180
 1150HOH     H1 3637   3.919   3.277   1.250
 1150HOH     H2 3638   3.854   3.410   1.222
 1151HOH      O 3639   0.325   0.795   3.078
 1151HOH     H1 3640   0.369   0.711   3.091
 1151HOH     H2 3641   0.324   0.836   3.165
 1152HOH      O 3642   1.826   3.024   2.589
 1152HOH     H1 3643   1.757   3.073   2.634
 1152HOH     H2 3644   1.780   2.978   2.518
 1153HOH      O 3645   1.837   2.680   0.859
 1153HOH     H1 3646   1.801   2.607   0.910
 1153HOH     H2 3647   1.922   2.698   0.899
 1154HOH      O 3648   0.690   1.687   2.403
 1154HOH     H1 3649   0.667   1.771   2.443
 1154HOH     H2 3650   0.745   1.710   2.329
 1155HOH      O 3651   0.336   0.197   1.601
 1155HOH     H1 3652   0.246   0.231   1.594
 1155HOH     H2 3653   0.376   0.219   1.517
 1156HOH      O 3654   3.733   3.671   1.077
 1156HOH     H1 3655   3.650   3.693   1.034
 1156HOH     H2 3656   3.798   3.675   1.006
 1157HOH      O 3657   0.972   0.722   3.243
 1157HOH     H1 3658   1.052   0.705   3.292
 1157HOH     H2 3659   0.955   0.640   3.197
 1158HOH      O 3660   0.632   2.952   2.862
 1158HOH     H1 3661   0.551   2.975   2.817
 1158HOH     H2 3662   0.611   2.961   2.955
 1159HOH      O 3663   2.698   3.405   1.116
 1159HOH     H1 3664   2.771   3.447   1.161
 1159HOH     H2 3665   2.629   3.399   1.181
 1160HOH      O 3666   3.395   1.728   3.647
 1160HOH     H1 3667   3.367   1.809   3.690
 1160HOH     H2 3668   3.313   1.681   3.629
 1161HOH      O 3669   0.736   1.182   0.814
 1161HOH     H1 3670   0.736   1.205   0.907
 1161HOH     H2 3671   0.643   1.181   0.790
 1162HOH      O 3672   2.577   2.568   1.705
 1162HOH     H1 3673   2.499   2.528   1.668
 1162HOH     H2 3674   2.616   2.501   1.761
 1163HOH      O 3675   2.256   2.712   4.037
 1163HOH     H1 3676   2.170   2.671   4.050
 1163HOH     H2 3677   2.298   2.658   3.970
 1164HOH      O 3678   0.350   3.728   1.299
 1164HOH     H1 3679   0.366   3.727   1.393
 1164HOH     H2 3680   0.416   3.669   1.263
 1165HOH      O 3681   2.605   1.292   1.748
 1165HOH     H1 3682   2.651   1.372   1.773
 1165HOH     H2 3683   2.563   1.262   1.828
 1166HOH      O 3684   0.709   2.740   2.478
 1166HOH     H1 3685   0.798   2.777   2.476
 1166HOH     H2 3686   0.703   2.686   2.400
 1167HOH      O 3687   0.273   2.117   0.006
 1167HOH     H1 3688   0.192   2.132   0.054
 1167HOH     H2 3689   0.269   2.025  -0.022
 1168HOH      O 3690   0.677   1.474   2.101
 1168HOH     H1 3691   0.737   1.402   2.079
 1168HOH     H2 3692   0.594   1.431   2.119
 1169HOH      O 3693   0.184   3.988   0.535
 1169HOH     H1 3694   0.170   4.005   0.628
 1169HOH     H2 3695   0.113   4.034   0.491
 1170HOH      O 3696   3.859   0.859   1.422
 1170HOH     H1 3697   3.867   0.888   1.513
 1170HOH     H2 3698   3.906   0.775   1.420
 1171HOH      O 3699   1.663   1.238   2.317
 1171HOH     H1 3700   1.585   1.293   2.314
 1171HOH     H2 3701   1.712   1.263   2.238
 1172HOH      O 3702   2.519   1.639   1.225
 1172HOH     H1 3703   2.561   1.579   1.286
 1172HOH     H2 3704   2.427   1.613   1.223
 1173HOH      O 3705   1.361   3.541   1.101
 1173HOH     H1 3706   1.340   3.504   1.016
 1173HOH     H2 3707   1.356   3.467   1.162
 1174HOH      O 3708   2.311   3.295   3.109
 1174HOH     H1 3709   2.303   3.249   3.192
 1174HOH     H2 3710   2.324   3.226   3.044
 1175HOH      O 3711   0.382   2.583   2.992
 1175HOH     H1 3712   0.446   2.543   2.932
 1175HOH     H2 3713   0.355   2.512   3.049
 1176HOH      O 3714   1.631   1.087   3.677
 1176HOH     H1 3715   1.674   1.002   3.673
 1176HOH     H2 3716   1.691   1.145   3.628
 1177HOH      O 3717   1.172   2.408   1.231
 1177HOH     H1 3718   1.124   2.480   1.271
 1177HOH     H2 3719   1.104   2.352   1.193
 1178HOH      O 3720   2.143   1.233   1.685
 1178HOH     H1 3721   2.212   1.241   1.620
 1178HOH     H2 3722   2.170   1.290   1.757
 1179HOH      O 3723   3.670   3.793   1.825
 1179HOH     H1 3724   3.672   3.881   1.863
 1179HOH     H2 3725   3.731   3.742   1.879
 1180HOH      O 3726   0.639   2.466   0.905
 1180HOH     H1 3727   0.695   2.464   0.828
 1180HOH     H2 3728   0.616   2.558   0.916
 1181HOH      O 3729   3.443   2.208   1.028
 1181HOH     H1 3730   3.514   2.225   1.091
 1181HOH     H2 3731   3.477   2.243   0.945
 1182HOH      O 3732   1.454   2.153   2.546
 1182HOH     H1 3733   1.408   2.136   2.628
 1182HOH     H2 3734   1.395   2.117   2.479
 1183HOH      O 3735   2.290   3.534   1.276
 1183HOH     H1 3736   2.224   3.592   1.237
 1183HOH     H2 3737   2.241   3.480   1.338
 1184HOH      O 3738   2.624   0.080   1.948
 1184HOH     H1 3739   2.624   0.169   1.985
 1184HOH     H2 3740   2.625   0.094   1.853
 1185HOH      O 3741   1.989   3.115   0.176
 1185HOH     H1 3742   2.041   3.149   0.103
 1185HOH     H2 3743   2.031   3.033   0.199
 1186HOH      O 3744   2.723   0.228   0.966
 1186HOH     H1 3745   2.740   0.283   1.042
 1186HOH     H2 3746   2.721   0.139   1.000
 1187HOH      O 3747   2.952   2.658   0.145
 1187HOH     H1 3748   2.946   2.706   0.228
 1187HOH     H2 3749   3.031   2.691   0.103
 1188HOH      O 3750   3.338   0.019   1.290
 1188HOH     H1 3751   3.297   0.096   1.327
 1188HOH     H2 3752   3.431   0.031   1.304
 1189HOH      O 3753   2.856   1.457   2.320
 1189HOH     H1 3754   2.777   1.509   2.339
 1189HOH     H2 3755   2.914   1.474   2.395
 1190HOH      O 3756   1.876   3.694   3.900
 1190HOH     H1 3757   1.930   3.669   3.976
 1190HOH     H2 3758   1.876   3.790   3.903
 1191HOH      O 3759   1.648   3.782   2.249
 1191HOH     H1 3760   1.619   3.781   2.158
 1191HOH     H2 3761   1.743   3.794   2.244
 1192HOH      O 3762   0.288   2.697   1.938
 1192HOH     H1 3763   0.243   2.614   1.950
 1192HOH     H2 3764   0.320   2.720   2.025
 1193HOH      O 3765   3.792   1.347   1.660
 1193HOH     H1 3766   3.725   1.368   1.595
 1193HOH     H2 3767   3.746   1.293   1.725
 1194HOH      O 3768   2.192   3.911   2.241
 1194HOH     H1 3769   2.164   3.839   2.297
 1194HOH     H2 3770   2.238   3.868   2.168
 1195HOH      O 3771   1.221   0.202   0.314
 1195HOH     H1 3772   1.315   0.189   0.320
 1195HOH     H2 3773   1.196   0.240   0.399
 1196HOH      O 3774   3.628   2.144   1.842
 1196HOH     H1 3775   3.641   2.067   1.787
 1196HOH     H2 3776   3.714   2.185   1.847
 1197HOH      O 3777   1.586   0.181   1.580
 1197HOH     H1 3778   1.634   0.098   1.580
 1197HOH     H2 3779   1.645   0.243   1.538
 1198HOH      O 3780   1.060   0.404   2.584
 1198HOH     H1 3781   1.149   0.401   2.548
 1198HOH     H2 3782   1.037   0.312   2.598
 1199HOH      O 3783   3.824   2.912   1.639
 1199HOH     H1 3784   3.820   2.967   1.718
 1199HOH     H2 3785   3.756   2.846   1.653
 1200HOH      O 3786   0.965   3.455   1.791
 1200HOH     H1 3787   0.917   3.530   1.827
 1200HOH     H2 3788   0.978   3.477   1.698
 1201HOH      O 3789   2.682   0.503   3.219
 1201HOH     H1 3790   2.757   0.543   3.175
 1201HOH     H2 3791   2.671   0.554   3.299
 1202HOH      O 3792   0.130   1.978   0.357
 1202HOH     H1 3793   0.161   1.920   0.288
 1202HOH     H2 3794   0.115   2.062   0.314
 1203HOH      O 3795   1.614   1.625   3.789
 1203HOH     H1 3796   1.551   1.580   3.732
 1203HOH     H2 3797   1.565   1.646   3.868
 1204HOH      O 3798   1.861   3.373   3.678
 1204HOH     H1 3799   1.825   3.335   3.598
 1204HOH     H2 3800   1.817   3.458   3.685
 1205HOH      O 3801   2.779   1.835   3.006
 1205HOH     H1 3802   2.847   1.826   2.940
 1205HOH     H2 3803   2.723   1.906   2.974
 1206HOH      O 3804   1.791   3.077   2.020
 1206HOH     H1 3805   1.726   3.147   2.026
 1206HOH     H2 3806   1.753   3.004   2.069
 1207HOH      O 3807   2.132   2.272   0.547
 1207HOH     H1 3808   2.131   2.211   0.473
 1207HOH     H2 3809   2.131   2.215   0.624
 1208HOH      O 3810   2.743   1.197   0.586
 1208HOH     H1 3811   2.818   1.257   0.579
 1208HOH     H2 3812   2.720   1.199   0.679
 1209HOH      O 3813   0.705   0.569   3.760
 1209HOH     H1 3814   0.644   0.541   3.692
 1209HOH     H2 3815   0.693   0.505   3.831
 1210HOH      O 3816   3.177   3.163   3.467
 1210HOH     H1 3817   3.244   3.116   3.516
 1210HOH     H2 3818   3.200   3.148   3.375
 1211HOH      O 3819   3.828   1.603   2.212
 1211HOH     H1 3820   3.917   1.614   2.179
 1211HOH     H2 3821   3.784   1.685   2.190
 1212HOH      O 3822   3.899   2.542   0.966
 1212HOH     H1 3823   3.986   2.505   0.953
 1212HOH     H2 3824   3.842   2.490   0.909
 1213HOH      O 3825   3.304   3.748   2.457
 1213HOH     H1 3826   3.301   3.671   2.400
 1213HOH     H2 3827   3.382   3.735   2.511
 1214HOH      O 3828   2.405   0.542   0.053
 1214HOH     H1 3829   2.429   0.496   0.133
 1214HOH     H2 3830   2.327   0.593   0.077
 1215HOH      O 3831   3.930   1.316   2.937
 1215HOH     H1 3832   3.856   1.360   2.894
 1215HOH     H2 3833   3.957   1.248   2.875
 1216HOH      O 3834   0.045   2.801   1.747
 1216HOH     H1 3835   0.065   2.737   1.679
 1216HOH     H2 3836  -0.021   2.858   1.708
 1217HOH      O 3837   0.832   3.132   1.534
 1217HOH     H1 3838   0.812   3.038   1.533
 1217HOH     H2 3839   0.926   3.137   1.520
 1218HOH      O 3840   0.920   1.635   3.911
 1218HOH     H1 3841   0.964   1.606   3.831
 1218HOH     H2 3842   0.982   1.616   3.981
 1219HOH      O 3843   1.485   2.638   3.162
 1219HOH     H1 3844   1.448   2.692   3.092
 1219HOH     H2 3845   1.571   2.675   3.179
 1220HOH      O 3846   1.710   3.548   1.666
 1220HOH     H1 3847   1.645   3.480   1.649
 1220HOH     H2 3848   1.780   3.529   1.603
 1221HOH      O 3849   2.614   0.337   0.528
 1221HOH     H1 3850   2.593   0.273   0.596
 1221HOH     H2 3851   2.708   0.330   0.517
 1222HOH      O 3852   0.979   1.061   0.066
 1222HOH     H1 3853   1.021   1.116   0.133
 1222HOH     H2 3854   0.943   0.987   0.115
 1223HOH      O 3855   0.333   0.436   0.409
 1223HOH     H1 3856   0.250   0.472   0.441
 1223HOH     H2 3857   0.308   0.356   0.362
 1224HOH      O 3858   2.355   0.793   1.984
 1224HOH     H1 3859   2.292   0.854   1.946
 1224HOH     H2 3860   2.440   0.832   1.965
 1225HOH      O 3861   3.773   1.374   1.311
 1225HOH     H1 3862   3.697   1.405   1.360
 1225HOH     H2 3863   3.799   1.448   1.257
 1226HOH      O 3864   0.501   2.509   0.480
 1226HOH     H1 3865   0.497   2.422   0.519
 1226HOH     H2 3866   0.594   2.528   0.472
 1227HOH      O 3867   1.179   2.346   2.466
 1227HOH     H1 3868   1.219   2.373   2.549
 1227HOH     H2 3869   1.214   2.407   2.402
 1228HOH      O 3870   1.566   1.096   1.643
 1228HOH     H1 3871   1.603   1.063   1.561
 1228HOH     H2 3872   1.575   1.023   1.704
 1229HOH      O 3873   2.646   0.118   1.660
 1229HOH     H1 3874   2.711   0.188   1.649
 1229HOH     H2 3875   2.647   0.072   1.576
 1230HOH      O 3876   1.654   2.837   3.547
 1230HOH     H1 3877   1.733   2.890   3.556
 1230HOH     H2 3878   1.665   2.768   3.612
 1231HOH      O 3879   0.180   1.126   0.616
 1231HOH     H1 3880   0.135   1.053   0.657
 1231HOH     H2 3881   0.114   1.195   0.608
 1232HOH      O 3882   2.058   0.750   2.006
 1232HOH     H1 3883   2.127   0.684   2.016
 1232HOH     H2 3884   2.062   0.802   2.086
 1233HOH      O 3885   3.945   0.555   1.171
 1233HOH     H1 3886   3.941   0.581   1.263
 1233HOH     H2 3887   4.012   0.487   1.168
 1234HOH      O 3888   2.125   0.442   1.037
 1234HOH     H1 3889   2.119   0.482   0.951
 1234HOH     H2 3890   2.204   0.479   1.076
 1235HOH      O 3891   0.031   2.828   4.045
 1235HOH     H1 3892   0.069   2.907   4.005
 1235HOH     H2 3893  -0.044   2.808   3.990
 1236HOH      O 3894   0.563   2.136   3.131
 1236HOH     H1 3895   0.569   2.046   3.100
 1236HOH     H2 3896   0.589   2.132   3.223
 1237HOH      O 3897   1.483   0.830   1.455
 1237HOH     H1 3898   1.491   0.916   1.415
 1237HOH     H2 3899   1.455   0.772   1.384
 1238HOH      O 3900   0.382   2.144   0.293
 1238HOH     H1 3901   0.458   2.086   0.293
 1238HOH     H2 3902   0.343   2.133   0.206
 1239HOH      O 3903   1.339   3.913   2.202
 1239HOH     H1 3904   1.381   3.920   2.116
 1239HOH     H2 3905   1.407   3.938   2.264
 1240HOH      O 3906   0.772   0.729   3.425
 1240HOH     H1 3907   0.814   0.760   3.504
 1240HOH     H2 3908   0.837   0.741   3.356
 1241HOH      O 3909   1.830   0.450   1.000
 1241HOH     H1 3910   1.923   0.467   1.018
 1241HOH     H2 3911   1.829   0.362   0.964
 1242HOH      O 3912   0.707   2.443   2.942
 1242HOH     H1 3913   0.646   2.406   2.878
 1242HOH     H2 3914   0.727   2.530   2.907
 1243HOH      O 3915   1.678   3.449   0.206
 1243HOH     H1 3916   1.668   3.541   0.185
 1243HOH     H2 3917   1.703   3.407   0.124
 1244HOH      O 3918   1.101   3.158   2.662
 1244HOH     H1 3919   1.068   3.207   2.587
 1244HOH     H2 3920   1.034   3.093   2.680
 1245HOH      O 3921   0.848   1.764   1.348
 1245HOH     H1 3922   0.757   1.791   1.338
 1245HOH     H2 3923   0.846   1.694   1.413
 1246HOH      O 3924   1.928   1.084   3.362
 1246HOH     H1 3925   1.886   1.122   3.439
 1246HOH     H2 3926   2.016   1.122   3.362
 1247HOH      O 3927   0.580   3.458   3.580
 1247HOH     H1 3928   0.563   3.521   3.651
 1247HOH     H2 3929   0.537   3.496   3.504
 1248HOH      O 3930   0.450   2.043   2.811
 1248HOH     H1 3931   0.475   2.021   2.901
 1248HOH     H2 3932   0.447   2.139   2.810
 1249HOH      O 3933   2.985   0.463   0.330
 1249HOH     H1 3934   3.022   0.530   0.387
 1249HOH     H2 3935   3.028   0.477   0.245
 1250HOH      O 3936   1.312   2.875   0.681
 1250HOH     H1 3937   1.285   2.803   0.625
 1250HOH     H2 3938   1.241   2.939   0.674
 1251HOH      O 3939   1.193   3.254   0.030
 1251HOH     H1 3940   1.178   3.349   0.034
 1251HOH     H2 3941   1.204   3.229   0.122
 1252HOH      O 3942   1.807   1.887   3.337
 1252HOH     H1 3943   1.856   1.850   3.263
 1252HOH     H2 3944   1.715   1.880   3.311
 1253HOH      O 3945   1.346   3.080   2.246
 1253HOH     H1 3946   1.292   3.152   2.213
 1253HOH     H2 3947   1.432   3.118   2.259
 1254HOH      O 3948   3.746   1.705   2.451
 1254HOH     H1 3949   3.828   1.738   2.486
 1254HOH     H2 3950   3.770   1.658   2.371
 1255HOH      O 3951   0.936   2.345   1.955
 1255HOH     H1 3952   1.018   2.344   1.905
 1255HOH     H2 3953   0.947   2.276   2.020
 1256HOH      O 3954   2.637   0.598   1.111
 1256HOH     H1 3955   2.662   0.637   1.028
 1256HOH     H2 3956   2.567   0.654   1.145
 1257HOH      O 3957   0.555   0.974   0.659
 1257HOH     H1 3958   0.629   0.952   0.602
 1257HOH     H2 3959   0.513   1.049   0.618
 1258HOH      O 3960   2.265   3.359   2.788
 1258HOH     H1 3961   2.221   3.331   2.868
 1258HOH     H2 3962   2.358   3.340   2.804
 1259HOH      O 3963   0.690   2.345   0.252
 1259HOH     H1 3964   0.610   2.292   0.256
 1259HOH     H2 3965   0.721   2.333   0.162
 1260HOH      O 3966   0.081   2.203   0.185
 1260HOH     H1 3967   0.034   2.236   0.108
 1260HOH     H2 3968   0.103   2.281   0.235
 1261HOH      O 3969   3.770   0.371   2.163
 1261HOH     H1 3970   3.797   0.327   2.082
 1261HOH     H2 3971   3.804   0.317   2.233
 1262HOH      O 3972   3.441   1.542   2.340
 1262HOH     H1 3973   3.353   1.511   2.358
 1262HOH     H2 3974   3.486   1.538   2.425
 1263HOH      O 3975   3.946   0.157   1.551
 1263HOH     H1 3976   3.851   0.148   1.560
 1263HOH     H2 3977   3.966   0.242   1.590
 1264HOH      O 3978   1.507   0.524   1.457
 1264HOH     H1 3979   1.561   0.509   1.380
 1264HOH     H2 3980   1.570   0.531   1.529
 1265HOH      O 3981   2.770   3.419   0.018
 1265HOH     H1 3982   2.846   3.444   0.071
 1265HOH     H2 3983   2.704   3.485   0.039
 1266HOH      O 3984   2.523   0.187   3.456
 1266HOH     H1 3985   2.465   0.232   3.394
 1266HOH     H2 3986   2.589   0.145   3.401
 1267HOH      O 3987   3.091   1.713   0.311
 1267HOH     H1 3988   2.999   1.697   0.290
 1267HOH     H2 3989   3.139   1.667   0.242
 1268HOH      O 3990   1.434   1.304   1.524
 1268HOH     H1 3991   1.454   1.391   1.560
 1268HOH     H2 3992   1.467   1.243   1.590
 1269HOH      O 3993   1.690   1.584   2.905
 1269HOH     H1 3994   1.760   1.535   2.948
 1269HOH     H2 3995   1.726   1.607   2.819
 1270HOH      O 3996   3.177   1.299   0.413
 1270HOH     H1 3997   3.126   1.333   0.340
 1270HOH     H2 3998   3.265   1.333   0.400
 1271HOH      O 3999   0.150  -0.004   2.900
 1271HOH     H1 4000   0.244  -0.024   2.905
 1271HOH     H2 4001   0.144   0.088   2.924
 1272HOH      O 4002   1.211   0.542   3.839
 1272HOH     H1 4003   1.183   0.541   3.931
 1272HOH     H2 4004   1.132   0.569   3.791
 1273HOH      O 4005   2.066   0.066   0.437
 1273HOH     H1 4006   1.989   0.029   0.481
 1273HOH     H2 4007   2.137   0.006   0.458
 1274HOH      O 4008   2.254   1.604   1.198
 1274HOH     H1 4009   2.171   1.604   1.150
 1274HOH     H2 4010   2.240   1.667   1.269
 1275HOH      O 4011   1.760   2.673   1.865
 1275HOH     H1 4012   1.818   2.667   1.789
 1275HOH     H2 4013   1.819   2.692   1.938
 1276HOH      O 4014   1.837   0.670   2.319
 1276HOH     H1 4015   1.744   0.649   2.325
 1276HOH     H2 4016   1.840   0.754   2.274
 1277HOH      O 4017   4.037   1.351   2.073
 1277HOH     H1 4018   3.942   1.350   2.071
 1277HOH     H2 4019   4.063   1.280   2.014
 1278HOH      O 4020   2.451   2.065   1.710
 1278HOH     H1 4021   2.528   2.117   1.686
 1278HOH     H2 4022   2.434   2.011   1.633
 1279HOH      O 4023   0.379   2.712   1.074
 1279HOH     H1 4024   0.465   2.724   1.035
 1279HOH     H2 4025   0.357   2.620   1.057
 1280HOH      O 4026   1.514   3.179   0.092
 1280HOH     H1 4027   1.483   3.092   0.068
 1280HOH     H2 4028   1.502   3.184   0.187
 1281HOH      O 4029   3.706   2.646   2.645
 1281HOH     H1 4030   3.774   2.582   2.668
 1281HOH     H2 4031   3.632   2.624   2.703
 1282HOH      O 4032   2.649   3.894   1.214
 1282HOH     H1 4033   2.608   3.830   1.155
 1282HOH     H2 4034   2.690   3.958   1.155
 1283HOH      O 4035   1.498   0.181   3.727
 1283HOH     H1 4036   1.548   0.139   3.658
 1283HOH     H2 4037   1.445   0.111   3.765
 1284HOH      O 4038   1.367   2.421   3.317
 1284HOH     H1 4039   1.381   2.494   3.257
 1284HOH     H2 4040   1.422   2.440   3.392
 1285HOH      O 4041   2.848   2.964   1.263
 1285HOH     H1 4042   2.879   3.026   1.197
 1285HOH     H2 4043   2.832   3.018   1.340
 1286HOH      O 4044   2.930   0.330   2.446
 1286HOH     H1 4045   2.883   0.270   2.503
 1286HOH     H2 4046   3.002   0.363   2.499
 1287HOH      O 4047   3.499   1.295   1.151
 1287HOH     H1 4048   3.437   1.270   1.082
 1287HOH     H2 4049   3.533   1.380   1.121
 1288HOH      O 4050   0.450   0.426   2.868
 1288HOH     H1 4051   0.489   0.484   2.802
 1288HOH     H2 4052   0.390   0.370   2.818
 1289HOH      O 4053   3.414   3.640   3.396
 1289HOH     H1 4054   3.444   3.575   3.460
 1289HOH     H2 4055   3.342   3.597   3.350
 1290HOH      O 4056   0.126   3.361   3.989
 1290HOH     H1 4057   0.122   3.359   3.894
 1290HOH     H2 4058   0.041   3.328   4.017
 1291HOH      O 4059   1.810   1.014   2.833
 1291HOH     H1 4060   1.811   1.067   2.912
 1291HOH     H2 4061   1.873   1.056   2.774
 1292HOH      O 4062   1.448   1.160   3.923
 1292HOH     H1 4063   1.529   1.165   3.872
 1292HOH     H2 4064   1.438   1.247   3.960
 1293HOH      O 4065   2.277   2.096   1.896
 1293HOH     H1 4066   2.337   2.083   1.823
 1293HOH     H2 4067   2.334   2.119   1.970
 1294HOH      O 4068   1.460   0.399   3.396
 1294HOH     H1 4069   1.524   0.408   3.467
 1294HOH     H2 4070   1.505   0.434   3.319
 1295HOH      O 4071   3.916   1.700   0.523
 1295HOH     H1 4072   3.967   1.644   0.464
 1295HOH     H2 4073   3.847   1.737   0.468
 1296HOH      O 4074   0.142   3.937   3.951
 1296HOH     H1 4075   0.089   3.967   3.877
 1296HOH     H2 4076   0.157   3.844   3.932
 1297HOH      O 4077   2.971   0.336   1.147
 1297HOH     H1 4078   3.067   0.334   1.140
 1297HOH     H2 4079   2.945   0.416   1.101
 1298HOH      O 4080   4.001   1.235   3.191
 1298HOH     H1 4081   4.063   1.164   3.174
 1298HOH     H2 4082   3.978   1.268   3.105
 1299HOH      O 4083   2.561   0.552   2.306
 1299HOH     H1 4084   2.477   0.509   2.289
 1299HOH     H2 4085   2.598   0.504   2.380
 1300HOH      O 4086   1.211   0.666   3.379
 1300HOH     H1 4087   1.272   0.669   3.306
 1300HOH     H2 4088   1.215   0.754   3.417
 1301HOH      O 4089   0.689   0.312   2.908
 1301HOH     H1 4090   0.681   0.220   2.936
 1301HOH     H2 4091   0.599   0.343   2.902
 1302HOH      O 4092   0.021   0.187   0.364
 1302HOH     H1 4093   0.076   0.152   0.294
 1302HOH     H2 4094   0.013   0.280   0.345
 1303HOH      O 4095   1.919   2.806   3.857
 1303HOH     H1 4096   1.947   2.887   3.815
 1303HOH     H2 4097   1.984   2.741   3.829
 1304HOH      O 4098   0.052   2.903   2.857
 1304HOH     H1 4099  -0.016   2.881   2.793
 1304HOH     H2 4100   0.133   2.875   2.816
 1305HOH      O 4101   2.110   3.217   1.546
 1305HOH     H1 4102   2.089   3.303   1.508
 1305HOH     H2 4103   2.135   3.163   1.472
 1306HOH      O 4104   3.362   3.723   3.770
 1306HOH     H1 4105   3.353   3.664   3.845
 1306HOH     H2 4106   3.454   3.717   3.746
 1307HOH      O 4107   3.189   2.732   4.042
 1307HOH     H1 4108   3.137   2.748   3.963
 1307HOH     H2 4109   3.274   2.703   4.008
 1308HOH      O 4110   1.294   2.172   3.561
 1308HOH     H1 4111   1.245   2.168   3.478
 1308HOH     H2 4112   1.384   2.150   3.537
 1309HOH      O 4113   2.532   3.552   2.186
 1309HOH     H1 4114   2.566   3.631   2.229
 1309HOH     H2 4115   2.587   3.543   2.108
 1310HOH      O 4116   1.314   0.391   2.503
 1310HOH     H1 4117   1.336   0.298   2.506
 1310HOH     H2 4118   1.376   0.428   2.440
 1311HOH      O 4119   1.539   0.957   0.390
 1311HOH     H1 4120   1.483   0.881   0.406
 1311HOH     H2 4121   1.530   0.973   0.296
 1312HOH      O 4122   1.951   0.965   1.105
 1312HOH     H1 4123   2.023   0.924   1.057
 1312HOH     H2 4124   1.994   1.015   1.174
 1313HOH      O 4125   1.839   0.868   3.525
 1313HOH     H1 4126   1.853   0.895   3.434
 1313HOH     H2 4127   1.922   0.887   3.569
 1314HOH      O 4128   3.673   3.963   1.240
 1314HOH     H1 4129   3.620   3.883   1.249
 1314HOH     H2 4130   3.763   3.931   1.237
 1315HOH      O 4131   3.687   3.274   0.223
 1315HOH     H1 4132   3.638   3.217   0.282
 1315HOH     H2 4133   3.692   3.358   0.268
 1316HOH      O 4134   2.425   4.024   1.371
 1316HOH     H1 4135   2.461   3.950   1.322
 1316HOH     H2 4136   2.401   3.987   1.456
 1317HOH      O 4137   0.833   2.301   4.044
 1317HOH     H1 4138   0.859   2.220   4.001
 1317HOH     H2 4139   0.906   2.361   4.028
 1318HOH      O 4140   1.924   3.802   2.850
 1318HOH     H1 4141   1.993   3.867   2.839
 1318HOH     H2 4142   1.932   3.744   2.774
 1319HOH      O 4143   3.432   1.103   1.593
 1319HOH     H1 4144   3.395   1.180   1.550
 1319HOH     H2 4145   3.480   1.058   1.524
 1320HOH      O 4146   3.975   2.631   2.295
 1320HOH     H1 4147   3.883   2.622   2.321
 1320HOH     H2 4148   3.974   2.700   2.229
 1321HOH      O 4149   1.711   3.032   3.071
 1321HOH     H1 4150   1.663   2.960   3.111
 1321HOH     H2 4151   1.737   3.087   3.145
 1322HOH      O 4152   3.982   0.763   2.421
 1322HOH     H1 4153   3.908   0.712   2.389
 1322HOH     H2 4154   4.040   0.699   2.462
 1323HOH      O 4155   3.592   3.193   4.026
 1323HOH     H1 4156   3.639   3.244   4.092
 1323HOH     H2 4157   3.580   3.253   3.953
 1324HOH      O 4158   2.344   1.815   2.297
 1324HOH     H1 4159   2.368   1.781   2.210
 1324HOH     H2 4160   2.411   1.881   2.316
 1325HOH      O 4161   0.964   2.628   2.063
 1325HOH     H1 4162   0.933   2.555   2.009
 1325HOH     H2 4163   0.973   2.590   2.151
 1326HOH      O 4164   3.244   3.836   1.543
 1326HOH     H1 4165   3.245   3.802   1.632
 1326HOH     H2 4166   3.158   3.879   1.535
 1327HOH      O 4167   3.440   3.209   2.088
 1327HOH     H1 4168   3.351   3.183   2.064
 1327HOH     H2 4169   3.472   3.256   2.011
 1328HOH      O 4170   3.181   3.048   3.939
 1328HOH     H1 4171   3.119   3.095   3.885
 1328HOH     H2 4172   3.135   3.035   4.022
 1329HOH      O 4173   2.154   0.941   1.656
 1329HOH     H1 4174   2.064   0.931   1.685
 1329HOH     H2 4175   2.178   1.030   1.679
 1330HOH      O 4176   2.435   3.255   0.772
 1330HOH     H1 4177   2.390   3.190   0.826
 1330HOH     H2 4178   2.429   3.336   0.822
 1331HOH      O 4179   1.895   2.276   3.145
 1331HOH     H1 4180   1.883   2.213   3.074
 1331HOH     H2 4181   1.965   2.239   3.198
 1332HOH      O 4182   0.815   2.845   1.502
 1332HOH     H1 4183   0.731   2.805   1.480
 1332HOH     H2 4184   0.833   2.815   1.591
 1333HOH      O 4185   1.349   2.573   2.360
 1333HOH     H1 4186   1.304   2.632   2.299
 1333HOH     H2 4187   1.407   2.630   2.410
 1334HOH      O 4188   1.238   3.767   2.841
 1334HOH     H1 4189   1.230   3.764   2.936
 1334HOH     H2 4190   1.257   3.859   2.821
 1335HOH      O 4191   2.679   3.054   0.703
 1335HOH     H1 4192   2.691   3.098   0.787
 1335HOH     H2 4193   2.593   3.084   0.673
 1336HOH      O 4194   3.416   0.529   1.325
 1336HOH     H1 4195   3.461   0.580   1.258
 1336HOH     H2 4196   3.482   0.512   1.392
 1337HOH      O 4197   4.048   3.778   3.593
 1337HOH     H1 4198   3.954   3.759   3.602
 1337HOH     H2 4199   4.057   3.866   3.631
 1338HOH      O 4200   0.588   3.830   1.855
 1338HOH     H1 4201   0.560   3.891   1.786
 1338HOH     H2 4202   0.654   3.775   1.813
 1339HOH      O 4203   0.764   1.650   0.603
 1339HOH     H1 4204   0.772   1.705   0.525
 1339HOH     H2 4205   0.685   1.598   0.588
 1340HOH      O 4206   1.409   2.918   1.473
 1340HOH     H1 4207   1.418   2.948   1.564
 1340HOH     H2 4208   1.449   2.831   1.473
 1341HOH      O 4209   0.537   3.934   1.263
 1341HOH     H1 4210   0.543   3.997   1.335
 1341HOH     H2 4211   0.465   3.877   1.288
 1342HOH      O 4212   0.970   2.150   0.272
 1342HOH     H1 4213   0.919   2.198   0.337
 1342HOH     H2 4214   1.042   2.210   0.250
 1343HOH      O 4215   0.457   2.639   0.241
 1343HOH     H1 4216   0.432   2.583   0.314
 1343HOH     H2 4217   0.416   2.599   0.165
 1344HOH      O 4218   2.110   2.671   3.695
 1344HOH     H1 4219   2.152   2.587   3.716
 1344HOH     H2 4220   2.181   2.734   3.693
 1345HOH      O 4221   2.000   4.004   1.103
 1345HOH     H1 4222   2.015   3.928   1.047
 1345HOH     H2 4223   2.025   4.079   1.049
 1346HOH      O 4224   2.784   3.992   0.670
 1346HOH     H1 4225   2.749   4.055   0.733
 1346HOH     H2 4226   2.796   3.912   0.721
 1347HOH      O 4227   0.167   1.734   0.995
 1347HOH     H1 4228   0.110   1.684   1.054
 1347HOH     H2 4229   0.115   1.746   0.916
 1348HOH      O 4230   1.339   2.561   1.533
 1348HOH     H1 4231   1.399   2.489   1.550
 1348HOH     H2 4232   1.391   2.625   1.484
 1349HOH      O 4233   3.104   2.538   0.715
 1349HOH     H1 4234   3.132   2.578   0.798
 1349HOH     H2 4235   3.015   2.572   0.702
 1350HOH      O 4236   1.697   3.349   1.344
 1350HOH     H1 4237   1.715   3.289   1.417
 1350HOH     H2 4238   1.638   3.415   1.382
 1351HOH      O 4239   3.691   0.887   1.060
 1351HOH     H1 4240   3.777   0.856   1.086
 1351HOH     H2 4241   3.673   0.959   1.121
 1352HOH      O 4242   1.600   0.724   3.392
 1352HOH     H1 4243   1.669   0.673   3.349
 1352HOH     H2 4244   1.646   0.798   3.431
 1353HOH      O 4245   2.081   2.247   2.158
 1353HOH     H1 4246   2.067   2.234   2.252
 1353HOH     H2 4247   2.004   2.209   2.117
 1354HOH      O 4248   1.542   1.204   0.950
 1354HOH     H1 4249   1.552   1.295   0.979
 1354HOH     H2 4250   1.624   1.185   0.904
 1355HOH      O 4251   0.012   3.784   0.311
 1355HOH     H1 4252  -0.018   3.704   0.268
 1355HOH     H2 4253   0.010   3.762   0.405
 1356HOH      O 4254   0.597   0.297   0.298
 1356HOH     H1 4255   0.554   0.253   0.371
 1356HOH     H2 4256   0.620   0.226   0.238
 1357HOH      O 4257   1.473   1.086   2.873
 1357HOH     H1 4258   1.479   0.992   2.859
 1357HOH     H2 4259   1.395   1.112   2.824
 1358HOH      O 4260   3.738   1.568   1.926
 1358HOH     H1 4261   3.752   1.537   2.016
 1358HOH     H2 4262   3.730   1.663   1.935
 1359HOH      O 4263   0.977   0.792   0.804
 1359HOH     H1 4264   1.039   0.790   0.877
 1359HOH     H2 4265   0.894   0.817   0.845
 1360HOH      O 4266   4.016   1.967   2.111
 1360HOH     H1 4267   3.950   1.906   2.078
 1360HOH     H2 4268   4.086   1.911   2.143
 1361HOH      O 4269   0.133   3.564   0.936
 1361HOH     H1 4270   0.173   3.530   0.857
 1361HOH     H2 4271   0.154   3.500   1.004
 1362HOH      O 4272   2.914   1.579   3.962
 1362HOH     H1 4273   2.844   1.520   3.992
 1362HOH     H2 4274   2.872   1.633   3.895
 1363HOH      O 4275   1.636   1.347   0.621
 1363HOH     H1 4276   1.658   1.399   0.698
 1363HOH     H2 4277   1.631   1.257   0.653
 1364HOH      O 4278   2.480   0.096   2.492
 1364HOH     H1 4279   2.462   0.016   2.541
 1364HOH     H2 4280   2.561   0.078   2.444
 1365HOH      O 4281   2.147   3.746   3.436
 1365HOH     H1 4282   2.196   3.720   3.515
 1365HOH     H2 4283   2.211   3.739   3.365
 1366HOH      O 4284   0.444   0.601   2.011
 1366HOH     H1 4285   0.452   0.566   1.922
 1366HOH     H2 4286   0.385   0.677   2.002
 1367HOH      O 4287   3.574   2.455   0.125
 1367HOH     H1 4288   3.667   2.447   0.104
 1367HOH     H2 4289   3.553   2.372   0.169
 1368HOH      O 4290   1.972   3.284   2.492
 1368HOH     H1 4291   1.926   3.216   2.443
 1368HOH     H2 4292   1.992   3.244   2.576
 1369HOH      O 4293   1.123   1.312   3.370
 1369HOH     H1 4294   1.126   1.255   3.292
 1369HOH     H2 4295   1.215   1.325   3.393
 1370HOH      O 4296   0.436   0.465   0.112
 1370HOH     H1 4297   0.491   0.440   0.186
 1370HOH     H2 4298   0.362   0.404   0.115
 1371HOH      O 4299   2.955   3.517   1.182
 1371HOH     H1 4300   2.996   3.525   1.096
 1371HOH     H2 4301   3.018   3.556   1.243
 1372HOH      O 4302   1.210   1.644   2.782
 1372HOH     H1 4303   1.137   1.614   2.729
 1372HOH     H2 4304   1.288   1.618   2.733
 1373HOH      O 4305   3.338   3.845   0.282
 1373HOH     H1 4306   3.331   3.855   0.187
 1373HOH     H2 4307   3.408   3.906   0.307
 1374HOH      O 4308   0.590   2.659   1.997
 1374HOH     H1 4309   0.614   2.568   1.981
 1374HOH     H2 4310   0.511   2.673   1.946
 1375HOH      O 4311   1.559   1.938   2.819
 1375HOH     H1 4312   1.549   1.892   2.902
 1375HOH     H2 4313   1.624   2.006   2.837
 1376HOH      O 4314   3.598   3.448   3.844
 1376HOH     H1 4315   3.564   3.452   3.754
 1376HOH     H2 4316   3.539   3.505   3.894
 1377HOH      O 4317   3.716   0.900   3.510
 1377HOH     H1 4318   3.653   0.961   3.550
 1377HOH     H2 4319   3.759   0.951   3.442
 1378HOH      O 4320   2.852   2.170   0.214
 1378HOH     H1 4321   2.862   2.140   0.304
 1378HOH     H2 4322   2.779   2.118   0.179
 1379HOH      O 4323   1.286   1.979   1.223
 1379HOH     H1 4324   1.228   1.911   1.190
 1379HOH     H2 4325   1.264   2.056   1.171
 1380HOH      O 4326   2.554   3.098   1.592
 1380HOH     H1 4327   2.627   3.060   1.642
 1380HOH     H2 4328   2.487   3.030   1.593
 1381HOH      O 4329   3.987   3.835   2.779
 1381HOH     H1 4330   4.002   3.773   2.850
 1381HOH     H2 4331   4.056   3.900   2.789
 1382HOH      O 4332   2.343   2.775   2.145
 1382HOH     H1 4333   2.429   2.783   2.186
 1382HOH     H2 4334   2.360   2.730   2.062
 1383HOH      O 4335   3.143   1.750   2.570
 1383HOH     H1 4336   3.156   1.835   2.612
 1383HOH     H2 4337   3.223   1.736   2.520
 1384HOH      O 4338   2.630   3.790   3.214
 1384HOH     H1 4339   2.548   3.809   3.168
 1384HOH     H2 4340   2.694   3.848   3.172
 1385HOH      O 4341   2.640   0.344   1.985
 1385HOH     H1 4342   2.632   0.438   1.969
 1385HOH     H2 4343   2.693   0.338   2.065
 1386HOH      O 4344   0.523   0.945   2.586
 1386HOH     H1 4345   0.445   0.914   2.541
 1386HOH     H2 4346   0.505   0.931   2.679
 1387HOH      O 4347   0.505   3.660   3.763
 1387HOH     H1 4348   0.570   3.717   3.722
 1387HOH     H2 4349   0.538   3.646   3.852
 1388HOH      O 4350   0.703   4.016   2.070
 1388HOH     H1 4351   0.643   3.993   2.141
 1388HOH     H2 4352   0.677   3.959   1.997
 1389HOH      O 4353   3.200   3.349   0.685
 1389HOH     H1 4354   3.111   3.374   0.708
 1389HOH     H2 4355   3.230   3.297   0.760
 1390HOH      O 4356   2.958   3.200   1.110
 1390HOH     H1 4357   2.919   3.264   1.169
 1390HOH     H2 4358   3.052   3.216   1.116
 1391HOH      O 4359   1.475   3.355   3.413
 1391HOH     H1 4360   1.458   3.262   3.426
 1391HOH     H2 4361   1.475   3.366   3.318
 1392HOH      O 4362   0.705   0.018   3.153
 1392HOH     H1 4363   0.667  -0.045   3.092
 1392HOH     H2 4364   0.637   0.030   3.220
 1393HOH      O 4365   0.610   1.078   2.973
 1393HOH     H1 4366   0.646   1.141   3.036
 1393HOH     H2 4367   0.624   0.993   3.015
 1394HOH      O 4368   0.010   3.283   0.230
 1394HOH     H1 4369  -0.066   3.225   0.234
 1394HOH     H2 4370   0.079   3.229   0.190
 1395HOH      O 4371   1.477   3.932   0.237
 1395HOH     H1 4372   1.506   4.007   0.290
 1395HOH     H2 4373   1.473   3.859   0.300
 1396HOH      O 4374   0.265   2.768   2.731
 1396HOH     H1 4375   0.242   2.803   2.645
 1396HOH     H2 4376   0.352   2.730   2.718
 1397HOH      O 4377   1.258   3.194   3.083
 1397HOH     H1 4378   1.251   3.222   2.991
 1397HOH     H2 4379   1.257   3.098   3.079
 1398HOH      O 4380   1.513   3.245   0.350
 1398HOH     H1 4381   1.481   3.206   0.431
 1398HOH     H2 4382   1.569   3.317   0.379
 1399HOH      O 4383   3.821   3.550   3.959
 1399HOH     H1 4384   3.751   3.597   4.004
 1399HOH     H2 4385   3.776   3.484   3.906
 1400HOH      O 4386   1.893   3.126   2.291
 1400HOH     H1 4387   1.978   3.132   2.247
 1400HOH     H2 4388   1.829   3.145   2.221
 1401HOH      O 4389   1.523   2.585   2.757
 1401HOH     H1 4390   1.604   2.632   2.740
 1401HOH     H2 4391   1.454   2.642   2.724
 1402HOH      O 4392   3.071   0.916   3.061
 1402HOH     H1 4393   3.074   0.845   2.997
 1402HOH     H2 4394   3.139   0.977   3.033
 1403HOH      O 4395   1.103   3.840   3.922
 1403HOH     H1 4396   1.095   3.866   4.013
 1403HOH     H2 4397   1.019   3.866   3.882
 1404HOH      O 4398   0.544   1.442   3.155
 1404HOH     H1 4399   0.599   1.364   3.148
 1404HOH     H2 4400   0.466   1.412   3.201
 1405HOH      O 4401   4.015   1.318   1.540
 1405HOH     H1 4402   3.977   1.315   1.452
 1405HOH     H2 4403   3.940   1.334   1.597
 1406HOH      O 4404   1.452   1.238   0.361
 1406HOH     H1 4405   1.501   1.163   0.327
 1406HOH     H2 4406   1.400   1.201   0.433
 1407HOH      O 4407   0.603   2.786   3.901
 1407HOH     H1 4408   0.511   2.810   3.889
 1407HOH     H2 4409   0.618   2.793   3.995
 1408HOH      O 4410   2.393   0.723   3.525
 1408HOH     H1 4411   2.337   0.691   3.455
 1408HOH     H2 4412   2.455   0.651   3.540
 1409HOH      O 4413   1.499   2.929   0.364
 1409HOH     H1 4414   1.497   2.951   0.270
 1409HOH     H2 4415   1.410   2.900   0.383
 1410HOH      O 4416   1.319   2.097   2.831
 1410HOH     H1 4417   1.262   2.068   2.902
 1410HOH     H2 4418   1.392   2.034   2.831
 1411HOH      O 4419   1.205   2.814   3.388
 1411HOH     H1 4420   1.153   2.885   3.425
 1411HOH     H2 4421   1.230   2.761   3.464
 1412HOH      O 4422   0.976   0.312   1.197
 1412HOH     H1 4423   1.018   0.278   1.118
 1412HOH     H2 4424   1.031   0.386   1.224
 1413HOH      O 4425   4.060   3.966   1.685
 1413HOH     H1 4426   3.994   3.896   1.684
 1413HOH     H2 4427   4.014   4.043   1.652
 1414HOH      O 4428   3.971   0.957   1.187
 1414HOH     H1 4429   3.922   0.931   1.265
 1414HOH     H2 4430   4.050   0.902   1.189
 1415HOH      O 4431   2.345   1.041   1.848
 1415HOH     H1 4432   2.351   1.100   1.923
 1415HOH     H2 4433   2.362   1.096   1.772
 1416HOH      O 4434   1.080   2.981   1.015
 1416HOH     H1 4435   1.115   3.069   0.998
 1416HOH     H2 4436   1.139   2.944   1.080
 1417HOH      O 4437   2.440   0.346   3.243
 1417HOH     H1 4438   2.523   0.395   3.243
 1417HOH     H2 4439   2.380   0.401   3.193
 1418HOH      O 4440   1.023   0.783   2.505
 1418HOH     H1 4441   0.986   0.721   2.568
 1418HOH     H2 4442   1.031   0.865   2.554
 1419HOH      O 4443   0.722   3.971   1.617
 1419HOH     H1 4444   0.692   4.044   1.563
 1419HOH     H2 4445   0.774   4.013   1.686
 1420HOH      O 4446   1.966   1.678   0.129
 1420HOH     H1 4447   1.931   1.719   0.050
 1420HOH     H2 4448   1.890   1.667   0.186
 1421HOH      O 4449   0.638   0.518   3.283
 1421HOH     H1 4450   0.679   0.432   3.283
 1421HOH     H2 4451   0.695   0.573   3.338
 1422HOH      O 4452   0.610   1.239   2.743
 1422HOH     H1 4453   0.552   1.182   2.794
 1422HOH     H2 4454   0.603   1.324   2.786
 1423HOH      O 4455   0.596   0.397   3.923
 1423HOH     H1 4456   0.538   0.387   3.998
 1423HOH     H2 4457   0.643   0.314   3.918
 1424HOH      O 4458   1.173   0.313   1.893
 1424HOH     H1 4459   1.235   0.304   1.820
 1424HOH     H2 4460   1.124   0.393   1.873
 1425HOH      O 4461   1.140   2.247   0.900
 1425HOH     H1 4462   1.097   2.294   0.829
 1425HOH     H2 4463   1.225   2.289   0.909
 1426HOH      O 4464   2.233   2.355   0.834
 1426HOH     H1 4465   2.168   2.367   0.764
 1426HOH     H2 4466   2.233   2.261   0.850
 1427HOH      O 4467   0.278   1.903   1.190
 1427HOH     H1 4468   0.249   1.832   1.133
 1427HOH     H2 4469   0.245   1.983   1.148
 1428HOH      O 4470   3.109   2.861   1.039
 1428HOH     H1 4471   3.142   2.902   1.119
 1428HOH     H2 4472   3.081   2.934   0.984
 1429HOH      O 4473   1.818   1.621   0.733
 1429HOH     H1 4474   1.807   1.713   0.710
 1429HOH     H2 4475   1.799   1.618   0.827
 1430HOH      O 4476   0.811   3.251   0.349
 1430HOH     H1 4477   0.729   3.292   0.321
 1430HOH     H2 4478   0.866   3.252   0.271
 1431HOH      O 4479   3.365   1.399   0.724
 1431HOH     H1 4480   3.406   1.372   0.642
 1431HOH     H2 4481   3.437   1.434   0.777
 1432HOH      O 4482   3.674   0.458   3.623
 1432HOH     H1 4483   3.620   0.379   3.623
 1432HOH     H2 4484   3.680   0.484   3.531
 1433HOH      O 4485   2.657   3.188   0.195
 1433HOH     H1 4486   2.693   3.244   0.126
 1433HOH     H2 4487   2.617   3.249   0.257
 1434HOH      O 4488   0.270   3.890   3.209
 1434HOH     H1 4489   0.288   3.976   3.171
 1434HOH     H2 4490   0.356   3.855   3.231
 1435HOH      O 4491   0.857   1.551   1.802
 1435HOH     H1 4492   0.906   1.476   1.837
 1435HOH     H2 4493   0.875   1.622   1.864
 1436HOH      O 4494   0.441   0.342   2.141
 1436HOH     H1 4495   0.485   0.336   2.225
 1436HOH     H2 4496   0.441   0.436   2.121
 1437HOH      O 4497   2.249   2.823   2.634
 1437HOH     H1 4498   2.291   2.789   2.713
 1437HOH     H2 4499   2.254   2.751   2.571
 1438HOH      O 4500   0.043   2.330   0.843
 1438HOH     H1 4501  -0.026   2.270   0.871
 1438HOH     H2 4502   0.002   2.382   0.773
 1439HOH      O 4503   1.296   1.310   0.770
 1439HOH     H1 4504   1.328   1.278   0.855
 1439HOH     H2 4505   1.248   1.389   0.792
 1440HOH      O 4506   0.817   3.909   2.532
 1440HOH     H1 4507   0.866   3.850   2.475
 1440HOH     H2 4508   0.803   3.987   2.480
 1441HOH      O 4509   1.812   2.540   3.436
 1441HOH     H1 4510   1.854   2.623   3.414
 1441HOH     H2 4511   1.867   2.503   3.504
 1442HOH      O 4512   3.569   2.696   0.667
 1442HOH     H1 4513   3.634   2.763   0.690
 1442HOH     H2 4514   3.588   2.624   0.726
 1443HOH      O 4515   0.507   0.076   2.502
 1443HOH     H1 4516   0.442   0.143   2.481
 1443HOH     H2 4517   0.590   0.113   2.473
 1444HOH      O 4518   1.050   3.245   3.253
 1444HOH     H1 4519   1.131   3.226   3.206
 1444HOH     H2 4520   0.988   3.270   3.185
 1445HOH      O 4521   2.915   3.365   0.723
 1445HOH     H1 4522   2.882   3.324   0.643
 1445HOH     H2 4523   2.896   3.302   0.792
 1446HOH      O 4524   3.947   2.849   1.232
 1446HOH     H1 4525   3.885   2.781   1.257
 1446HOH     H2 4526   4.033   2.810   1.247
 1447HOH      O 4527   1.822   3.196   1.585
 1447HOH     H1 4528   1.805   3.103   1.601
 1447HOH     H2 4529   1.917   3.205   1.593
 1448HOH      O 4530   3.682   2.170   3.436
 1448HOH     H1 4531   3.743   2.241   3.455
 1448HOH     H2 4532   3.609   2.185   3.497
 1449HOH      O 4533   2.764   2.327   3.814
 1449HOH     H1 4534   2.783   2.382   3.890
 1449HOH     H2 4535   2.798   2.377   3.739
 1450HOH      O 4536   1.687   2.868   2.187
 1450HOH     H1 4537   1.753   2.800   2.197
 1450HOH     H2 4538   1.650   2.879   2.275
 1451HOH      O 4539   2.321   0.855   2.796
 1451HOH     H1 4540   2.257   0.816   2.736
 1451HOH     H2 4541   2.286   0.835   2.883
 1452HOH      O 4542   1.741   2.921   1.716
 1452HOH     H1 4543   1.836   2.910   1.724
 1452HOH     H2 4544   1.704   2.850   1.770
 1453HOH      O 4545   0.873   0.545   0.882
 1453HOH     H1 4546   0.855   0.538   0.976
 1453HOH     H2 4547   0.900   0.636   0.870
 1454HOH      O 4548   0.158   1.965   3.636
 1454HOH     H1 4549   0.165   1.886   3.583
 1454HOH     H2 4550   0.173   2.037   3.575
 1455HOH      O 4551   2.910   1.370   0.958
 1455HOH     H1 4552   2.978   1.433   0.937
 1455HOH     H2 4553   2.944   1.287   0.924
 1456HOH      O 4554   3.829   3.584   1.327
 1456HOH     H1 4555   3.875   3.648   1.380
 1456HOH     H2 4556   3.811   3.629   1.244
 1457HOH      O 4557   0.575   1.903   2.490
 1457HOH     H1 4558   0.517   1.978   2.480
 1457HOH     H2 4559   0.652   1.938   2.536
 1458HOH      O 4560   3.476   0.852   2.887
 1458HOH     H1 4561   3.464   0.824   2.978
 1458HOH     H2 4562   3.462   0.947   2.889
 1459HOH      O 4563   3.190   2.412   0.078
 1459HOH     H1 4564   3.152   2.325   0.071
 1459HOH     H2 4565   3.172   2.453  -0.006
 1460HOH      O 4566   0.992   3.916   0.132
 1460HOH     H1 4567   0.928   3.848   0.112
 1460HOH     H2 4568   0.942   3.982   0.180
 1461HOH      O 4569   3.007   2.773   2.319
 1461HOH     H1 4570   3.035   2.802   2.232
 1461HOH     H2 4571   2.955   2.847   2.352
 1462HOH      O 4572   1.707   2.414   0.185
 1462HOH     H1 4573   1.754   2.452   0.259
 1462HOH     H2 4574   1.775   2.372   0.132
 1463HOH      O 4575   0.283   0.740   2.605
 1463HOH     H1 4576   0.354   0.678   2.618
 1463HOH     H2 4577   0.221   0.722   2.675
 1464HOH      O 4578   2.875   0.211   2.934
 1464HOH     H1 4579   2.781   0.216   2.914
 1464HOH     H2 4580   2.884   0.258   3.016
 1465HOH      O 4581   3.753   4.028   2.715
 1465HOH     H1 4582   3.829   4.006   2.660
 1465HOH     H2 4583   3.677   4.006   2.661
 1466HOH      O 4584   3.065   1.019   1.725
 1466HOH     H1 4585   3.133   1.026   1.791
 1466HOH     H2 4586   3.008   1.094   1.741
 1467HOH      O 4587   3.942   3.918   1.270
 1467HOH     H1 4588   4.008   3.855   1.241
 1467HOH     H2 4589   3.924   3.895   1.361
 1468HOH      O 4590   0.398   3.411   1.850
 1468HOH     H1 4591   0.437   3.499   1.859
 1468HOH     H2 4592   0.318   3.415   1.902
 1469HOH      O 4593   1.125   3.239   3.630
 1469HOH     H1 4594   1.109   3.307   3.565
 1469HOH     H2 4595   1.216   3.252   3.657
 1470HOH      O 4596   3.923   2.203   4.012
 1470HOH     H1 4597   3.873   2.136   4.060
 1470HOH     H2 4598   3.926   2.170   3.922
 1471HOH      O 4599   0.549   3.755   3.250
 1471HOH     H1 4600   0.523   3.667   3.275
 1471HOH     H2 4601   0.635   3.745   3.209
 1472HOH      O 4602   3.427   2.449   1.414
 1472HOH     H1 4603   3.381   2.382   1.363
 1472HOH     H2 4604   3.358   2.511   1.439
 1473HOH      O 4605   1.679   2.298   3.321
 1473HOH     H1 4606   1.756   2.286   3.265
 1473HOH     H2 4607   1.683   2.390   3.348
 1474HOH      O 4608   1.853   0.875   0.298
 1474HOH     H1 4609   1.759   0.893   0.304
 1474HOH     H2 4610   1.870   0.811   0.367
 1475HOH      O 4611   3.731   3.550   0.361
 1475HOH     H1 4612   3.694   3.639   0.363
 1475HOH     H2 4613   3.814   3.560   0.315
 1476HOH      O 4614   0.962   3.773   1.335
 1476HOH     H1 4615   1.052   3.752   1.310
 1476HOH     H2 4616   0.968   3.862   1.371
 1477HOH      O 4617   3.005   3.674   3.776
 1477HOH     H1 4618   2.917   3.672   3.739
 1477HOH     H2 4619   3.058   3.718   3.709
 1478HOH      O 4620   2.797   1.876   2.065
 1478HOH     H1 4621   2.829   1.792   2.034
 1478HOH     H2 4622   2.746   1.855   2.144
 1479HOH      O 4623   0.219   1.268   3.065
 1479HOH     H1 4624   0.260   1.247   2.981
 1479HOH     H2 4625   0.216   1.184   3.111
 1480HOH      O 4626   0.186   2.189   3.449
 1480HOH     H1 4627   0.116   2.198   3.385
 1480HOH     H2 4628   0.184   2.271   3.499
 1481HOH      O 4629   2.297   1.605   3.781
 1481HOH     H1 4630   2.322   1.646   3.698
 1481HOH     H2 4631   2.249   1.673   3.828
 1482HOH      O 4632   3.788   2.923   3.154
 1482HOH     H1 4633   3.847   2.964   3.218
 1482HOH     H2 4634   3.728   2.871   3.206
 1483HOH      O 4635   0.695   3.168   3.769
 1483HOH     H1 4636   0.701   3.153   3.863
 1483HOH     H2 4637   0.751   3.244   3.753
 1484HOH      O 4638   2.458   0.514   1.695
 1484HOH     H1 4639   2.535   0.543   1.744
 1484HOH     H2 4640   2.427   0.438   1.742
 1485HOH      O 4641   2.078   0.566   2.349
 1485HOH     H1 4642   2.117   0.639   2.397
 1485HOH     H2 4643   1.986   0.588   2.342
 1486HOH      O 4644   1.602   3.641   1.213
 1486HOH     H1 4645   1.660   3.616   1.141
 1486HOH     H2 4646   1.517   3.603   1.190
 1487HOH      O 4647   0.386   3.101   1.017
 1487HOH     H1 4648   0.301   3.107   0.972
 1487HOH     H2 4649   0.368   3.048   1.095
 1488HOH      O 4650   3.959   0.115   0.608
 1488HOH     H1 4651   3.983   0.127   0.516
 1488HOH     H2 4652   3.949   0.204   0.642
 1489HOH      O 4653   2.590   2.165   1.957
 1489HOH     H1 4654   2.578   2.114   1.877
 1489HOH     H2 4655   2.501   2.172   1.994
 1490HOH      O 4656   2.364   2.582   0.751
 1490HOH     H1 4657   2.425   2.509   0.746
 1490HOH     H2 4658   2.278   2.541   0.759
 1491HOH      O 4659   3.682   2.406   3.781
 1491HOH     H1 4660   3.624   2.343   3.824
 1491HOH     H2 4661   3.623   2.470   3.742
 1492HOH      O 4662   2.634   3.806   1.651
 1492HOH     H1 4663   2.686   3.754   1.590
 1492HOH     H2 4664   2.696   3.871   1.685
 1493HOH      O 4665   0.204   0.345   2.388
 1493HOH     H1 4666   0.281   0.369   2.336
 1493HOH     H2 4667   0.136   0.326   2.323
 1494HOH      O 4668   1.170   1.389   1.175
 1494HOH     H1 4669   1.206   1.316   1.124
 1494HOH     H2 4670   1.090   1.353   1.214
 1495HOH      O 4671   3.389   3.851   4.044
 1495HOH     H1 4672   3.408   3.945   4.045
 1495HOH     H2 4673   3.326   3.840   3.972
 1496HOH      O 4674   0.241   3.317   2.533
 1496HOH     H1 4675   0.241   3.243   2.472
 1496HOH     H2 4676   0.155   3.314   2.575
 1497HOH      O 4677   3.678   2.927   1.390
 1497HOH     H1 4678   3.766   2.926   1.429
 1497HOH     H2 4679   3.687   2.982   1.312
 1498HOH      O 4680   3.728   0.221   3.235
 1498HOH     H1 4681   3.658   0.276   3.202
 1498HOH     H2 4682   3.750   0.163   3.162
 1499HOH      O 4683   1.671   3.572   3.640
 1499HOH     H1 4684   1.646   3.636   3.707
 1499HOH     H2 4685   1.591   3.522   3.623
 1500HOH      O 4686   1.384   2.472   2.967
 1500HOH     H1 4687   1.442   2.498   2.895
 1500HOH     H2 4688   1.429   2.503   3.046
 1501HOH      O 4689   0.424   3.954   2.925
 1501HOH     H1 4690   0.437   3.860   2.912
 1501HOH     H2 4691   0.492   3.995   2.871
 1502HOH      O 4692   1.644   3.368   0.854
 1502HOH     H1 4693   1.640   3.273   0.845
 1502HOH     H2 4694   1.725   3.384   0.903
 1503HOH      O 4695   0.572   2.485   1.169
 1503HOH     H1 4696   0.653   2.532   1.192
 1503HOH     H2 4697   0.591   2.445   1.084
 1504HOH      O 4698   1.662   3.804   2.641
 1504HOH     H1 4699   1.678   3.710   2.628
 1504HOH     H2 4700   1.654   3.814   2.736
 1505HOH      O 4701   2.524   1.420   3.888
 1505HOH     H1 4702   2.471   1.491   3.853
 1505HOH     H2 4703   2.604   1.422   3.835
 1506HOH      O 4704   0.459   1.604   2.507
 1506HOH     H1 4705   0.541   1.642   2.477
 1506HOH     H2 4706   0.468   1.510   2.491
 1507HOH      O 4707   0.162   0.759   3.527
 1507HOH     H1 4708   0.206   0.747   3.610
 1507HOH     H2 4709   0.084   0.812   3.548
 1508HOH      O 4710   1.474   0.606   2.891
 1508HOH     H1 4711   1.480   0.691   2.849
 1508HOH     H2 4712   1.555   0.561   2.866
 1509HOH      O 4713   1.955   0.957   2.479
 1509HOH     H1 4714   1.860   0.946   2.469
 1509HOH     H2 4715   1.965   1.019   2.551
 1510HOH      O 4716   2.734   0.800   3.248
 1510HOH     H1 4717   2.743   0.771   3.157
 1510HOH     H2 4718   2.821   0.832   3.271
 1511HOH      O 4719   1.946   0.542   1.415
 1511HOH     H1 4720   2.029   0.585   1.435
 1511HOH     H2 4721   1.880   0.600   1.454
 1512HOH      O 4722   3.270   2.964   1.228
 1512HOH     H1 4723   3.351   2.925   1.193
 1512HOH     H2 4724   3.282   2.959   1.323
 1513HOH      O 4725   0.144   2.313   3.715
 1513HOH     H1 4726   0.071   2.257   3.740
 1513HOH     H2 4727   0.220   2.278   3.763
 1514HOH      O 4728   3.489   1.182   0.592
 1514HOH     H1 4729   3.478   1.088   0.607
 1514HOH     H2 4730   3.533   1.188   0.507
 1515HOH      O 4731   1.561   2.351   2.399
 1515HOH     H1 4732   1.477   2.371   2.358
 1515HOH     H2 4733   1.539   2.290   2.469
 1516HOH      O 4734   1.198   3.116   0.270
 1516HOH     H1 4735   1.215   3.028   0.306
 1516HOH     H2 4736   1.255   3.173   0.321
 1517HOH      O 4737   3.035   3.747   2.844
 1517HOH     H1 4738   2.950   3.708   2.863
 1517HOH     H2 4739   3.034   3.831   2.890
 1518HOH      O 4740   2.792   0.639   0.566
 1518HOH     H1 4741   2.834   0.587   0.634
 1518HOH     H2 4742   2.790   0.728   0.601
 1519HOH      O 4743   0.918   3.601   0.207
 1519HOH     H1 4744   0.889   3.652   0.282
 1519HOH     H2 4745   1.010   3.623   0.197
 1520HOH      O 4746   3.518   3.673   2.648
 1520HOH     H1 4747   3.578   3.681   2.722
 1520HOH     H2 4748   3.490   3.582   2.649
 1521HOH      O 4749   0.971   3.029   0.111
 1521HOH     H1 4750   0.996   3.031   0.019
 1521HOH     H2 4751   1.043   3.073   0.156
 1522HOH      O 4752   2.350   2.366   0.418
 1522HOH     H1 4753   2.349   2.461   0.430
 1522HOH     H2 4754   2.262   2.338   0.444
 1523HOH      O 4755   0.652   0.250   1.979
 1523HOH     H1 4756   0.583   0.289   2.033
 1523HOH     H2 4757   0.656   0.159   2.006
 1524HOH      O 4758   3.284   3.290   0.224
 1524HOH     H1 4759   3.323   3.203   0.212
 1524HOH     H2 4760   3.359   3.350   0.225
 1525HOH      O 4761   0.223   1.418   0.495
 1525HOH     H1 4762   0.136   1.436   0.462
 1525HOH     H2 4763   0.257   1.504   0.521
 1526HOH      O 4764   2.386   0.533   1.297
 1526HOH     H1 4765   2.329   0.552   1.371
 1526HOH     H2 4766   2.407   0.440   1.307
 1527HOH      O 4767   3.376   3.547   3.970
 1527HOH     H1 4768   3.391   3.577   4.059
 1527HOH     H2 4769   3.315   3.473   3.979
 1528HOH      O 4770   0.285   3.511   0.487
 1528HOH     H1 4771   0.283   3.591   0.539
 1528HOH     H2 4772   0.258   3.538   0.399
 1529HOH      O 4773   1.929   0.394   0.503
 1529HOH     H1 4774   2.016   0.371   0.536
 1529HOH     H2 4775   1.868   0.344   0.558
 1530HOH      O 4776   2.223   1.685   0.746
 1530HOH     H1 4777   2.197   1.601   0.709
 1530HOH     H2 4778   2.317   1.675   0.764
 1531HOH      O 4779   3.922   2.774   2.075
 1531HOH     H1 4780   3.946   2.730   1.994
 1531HOH     H2 4781   3.848   2.830   2.051
 1532HOH      O 4782   2.434   1.847   1.998
 1532HOH     H1 4783   2.394   1.922   1.954
 1532HOH     H2 4784   2.487   1.805   1.931
 1533HOH      O 4785   1.743   3.983   1.550
 1533HOH     H1 4786   1.821   4.006   1.601
 1533HOH     H2 4787   1.772   3.983   1.459
 1534HOH      O 4788   3.931   3.269   3.706
 1534HOH     H1 4789   3.900   3.265   3.797
 1534HOH     H2 4790   3.941   3.362   3.687
 1535HOH      O 4791   0.166   2.515   3.405
 1535HOH     H1 4792   0.148   2.609   3.406
 1535HOH     H2 4793   0.121   2.482   3.327
 1536HOH      O 4794   1.885   2.283   0.065
 1536HOH     H1 4795   1.951   2.221   0.094
 1536HOH     H2 4796   1.833   2.235   0.001
 1537HOH      O 4797   1.200   0.305   0.056
 1537HOH     H1 4798   1.190   0.269  -0.032
 1537HOH     H2 4799   1.274   0.257   0.094
 1538HOH      O 4800   2.193   0.831   3.678
 1538HOH     H1 4801   2.264   0.795   3.625
 1538HOH     H2 4802   2.117   0.776   3.659
 1539HOH      O 4803   1.942   1.505   1.709
 1539HOH     H1 4804   1.976   1.419   1.732
 1539HOH     H2 4805   2.015   1.565   1.725
 1540HOH      O 4806   0.134   2.152   2.571
 1540HOH     H1 4807   0.179   2.228   2.607
 1540HOH     H2 4808   0.064   2.134   2.633
 1541HOH      O 4809   1.046   1.827   3.186
 1541HOH     H1 4810   1.085   1.758   3.241
 1541HOH     H2 4811   1.003   1.779   3.115
 1542HOH      O 4812   2.342   3.989   0.367
 1542HOH     H1 4813   2.288   4.032   0.301
 1542HOH     H2 4814   2.427   3.976   0.324
 1543HOH      O 4815   3.469   2.789   1.282
 1543HOH     H1 4816   3.512   2.740   1.212
 1543HOH     H2 4817   3.537   2.849   1.314
 1544HOH      O 4818   1.062   0.545   1.761
 1544HOH     H1 4819   0.975   0.543   1.802
 1544HOH     H2 4820   1.044   0.562   1.669
 1545HOH      O 4821   0.477   1.953   1.928
 1545HOH     H1 4822   0.551   2.002   1.963
 1545HOH     H2 4823   0.516   1.881   1.879
 1546HOH      O 4824   0.558   3.396   0.335
 1546HOH     H1 4825   0.486   3.432   0.283
 1546HOH     H2 4826   0.575   3.462   0.402
 1547HOH      O 4827   3.725   2.940   4.038
 1547HOH     H1 4828   3.682   3.008   3.987
 1547HOH     H2 4829   3.759   2.879   3.973
 1548HOH      O 4830   1.241   3.008   3.920
 1548HOH     H1 4831   1.236   3.086   3.975
 1548HOH     H2 4832   1.175   3.022   3.852
 1549HOH      O 4833   0.192   2.212   1.459
 1549HOH     H1 4834   0.247   2.171   1.526
 1549HOH     H2 4835   0.254   2.256   1.401
 1550HOH      O 4836   0.538   3.932   2.257
 1550HOH     H1 4837   0.532   4.003   2.321
 1550HOH     H2 4838   0.450   3.894   2.255
 1551HOH      O 4839   3.722   2.632   0.449
 1551HOH     H1 4840   3.680   2.685   0.517
 1551HOH     H2 4841   3.705   2.679   0.367
 1552HOH      O 4842   0.353   1.571   3.453
 1552HOH     H1 4843   0.440   1.578   3.492
 1552HOH     H2 4844   0.347   1.481   3.421
 1553HOH      O 4845   0.885   2.664   1.721
 1553HOH     H1 4846   0.792   2.674   1.744
 1553HOH     H2 4847   0.889   2.583   1.671
 1554HOH      O 4848   0.013   1.700   2.026
 1554HOH     H1 4849   0.098   1.735   1.999
 1554HOH     H2 4850  -0.026   1.665   1.945
 1555HOH      O 4851   1.604   3.632   2.970
 1555HOH     H1 4852   1.639   3.597   3.052
 1555HOH     H2 4853   1.610   3.727   2.981
 1556HOH      O 4854   1.952   2.768   3.478
 1556HOH     H1 4855   1.930   2.861   3.489
 1556HOH     H2 4856   1.999   2.745   3.559
 1557HOH      O 4857   2.996   1.342   0.602
 1557HOH     H1 4858   3.059   1.337   0.530
 1557HOH     H2 4859   2.981   1.435   0.614
 1558HOH      O 4860   2.938   1.404   1.432
 1558HOH     H1 4861   2.928   1.387   1.338
 1558HOH     H2 4862   3.027   1.438   1.440
 1559HOH      O 4863   3.168   2.498   2.104
 1559HOH     H1 4864   3.151   2.592   2.100
 1559HOH     H2 4865   3.199   2.483   2.193
 1560HOH      O 4866   2.039   1.423   2.101
 1560HOH     H1 4867   1.961   1.370   2.115
 1560HOH     H2 4868   2.018   1.508   2.140
 1561HOH      O 4869   2.257   0.162   2.917
 1561HOH     H1 4870   2.292   0.241   2.875
 1561HOH     H2 4871   2.183   0.194   2.968
 1562HOH      O 4872   3.391   1.941   1.547
 1562HOH     H1 4873   3.352   2.004   1.486
 1562HOH     H2 4874   3.349   1.858   1.524
 1563HOH      O 4875   3.569   0.232   2.408
 1563HOH     H1 4876   3.481   0.268   2.416
 1563HOH     H2 4877   3.592   0.243   2.316
 1564HOH      O 4878   3.410   1.425   3.844
 1564HOH     H1 4879   3.408   1.520   3.860
 1564HOH     H2 4880   3.372   1.387   3.924
 1565HOH      O 4881   1.562   2.100   3.490
 1565HOH     H1 4882   1.624   2.063   3.553
 1565HOH     H2 4883   1.608   2.176   3.454
 1566HOH      O 4884   1.100   3.813   0.656
 1566HOH     H1 4885   1.156   3.755   0.708
 1566HOH     H2 4886   1.161   3.860   0.599
 1567HOH      O 4887   3.359   2.570   0.224
 1567HOH     H1 4888   3.323   2.526   0.146
 1567HOH     H2 4889   3.448   2.535   0.231
 1568HOH      O 4890   2.067   1.469   3.865
 1568HOH     H1 4891   2.145   1.524   3.876
 1568HOH     H2 4892   2.091   1.384   3.901
 1569HOH      O 4893   2.255   0.894   3.259
 1569HOH     H1 4894   2.314   0.938   3.321
 1569HOH     H2 4895   2.201   0.965   3.224
 1570HOH      O 4896   2.336   3.200   2.255
 1570HOH     H1 4897   2.336   3.135   2.325
 1570HOH     H2 4898   2.391   3.161   2.187
 1571HOH      O 4899   2.571   0.812   2.384
 1571HOH     H1 4900   2.481   0.813   2.353
 1571HOH     H2 4901   2.598   0.720   2.380
 1572HOH      O 4902   0.259   1.452   1.873
 1572HOH     H1 4903   0.190   1.388   1.855
 1572HOH     H2 4904   0.305   1.417   1.949
 1573HOH      O 4905   1.421   2.509   1.236
 1573HOH     H1 4906   1.499   2.461   1.265
 1573HOH     H2 4907   1.348   2.458   1.270
 1574HOH      O 4908   2.685   2.545   3.086
 1574HOH     H1 4909   2.643   2.611   3.031
 1574HOH     H2 4910   2.685   2.584   3.174
 1575HOH      O 4911   3.997   3.703   1.735
 1575HOH     H1 4912   4.069   3.749   1.779
 1575HOH     H2 4913   3.953   3.654   1.805
 1576HOH      O 4914   0.577   1.678   3.590
 1576HOH     H1 4915   0.625   1.599   3.615
 1576HOH     H2 4916   0.630   1.716   3.520
 1577HOH      O 4917   3.944   1.160   2.720
 1577HOH     H1 4918   3.858   1.132   2.689
 1577HOH     H2 4919   3.997   1.080   2.719
 1578HOH      O 4920   3.955   3.727   2.321
 1578HOH     H1 4921   3.955   3.657   2.387
 1578HOH     H2 4922   3.878   3.709   2.267
 1579HOH      O 4923   1.616   3.121   1.196
 1579HOH     H1 4924   1.600   3.176   1.273
 1579HOH     H2 4925   1.554   3.153   1.130
 1580HOH      O 4926   0.993   0.638   0.543
 1580HOH     H1 4927   0.961   0.726   0.563
 1580HOH     H2 4928   1.009   0.598   0.629
 1581HOH      O 4929   2.650   2.950   2.098
 1581HOH     H1 4930   2.679   2.917   2.013
 1581HOH     H2 4931   2.584   3.017   2.076
 1582HOH      O 4932   1.873   2.982   1.234
 1582HOH     H1 4933   1.787   3.012   1.264
 1582HOH     H2 4934   1.865   2.887   1.228
 1583HOH      O 4935   2.032   2.692   1.978
 1583HOH     H1 4936   2.048   2.752   2.051
 1583HOH     H2 4937   2.068   2.609   2.007
 1584HOH      O 4938   0.499   2.755   0.744
 1584HOH     H1 4939   0.493   2.691   0.673
 1584HOH     H2 4940   0.483   2.839   0.700
 1585HOH      O 4941   1.730   1.863   3.587
 1585HOH     H1 4942   1.754   1.889   3.498
 1585HOH     H2 4943   1.802   1.894   3.641
 1586HOH      O 4944   0.689   2.031   0.659
 1586HOH     H1 4945   0.619   2.076   0.612
 1586HOH     H2 4946   0.646   1.990   0.734
 1587HOH      O 4947   1.040   2.603   1.340
 1587HOH     H1 4948   1.063   2.654   1.418
 1587HOH     H2 4949   0.949   2.627   1.322
 1588HOH      O 4950   2.793   1.025   0.003
 1588HOH     H1 4951   2.839   1.099  -0.037
 1588HOH     H2 4952   2.845   1.003   0.080
 1589HOH      O 4953   2.131   3.015   1.365
 1589HOH     H1 4954   2.189   3.054   1.300
 1589HOH     H2 4955   2.046   3.010   1.323
 1590HOH      O 4956   1.873   3.827   3.336
 1590HOH     H1 4957   1.946   3.777   3.370
 1590HOH     H2 4958   1.798   3.768   3.343
 1591HOH      O 4959   2.433   3.153   3.646
 1591HOH     H1 4960   2.471   3.105   3.573
 1591HOH     H2 4961   2.368   3.211   3.605
 1592HOH      O 4962   1.771   1.437   0.401
 1592HOH     H1 4963   1.715   1.410   0.474
 1592HOH     H2 4964   1.834   1.366   0.392
 1593HOH      O 4965   0.240   2.580   0.525
 1593HOH     H1 4966   0.314   2.519   0.525
 1593HOH     H2 4967   0.279   2.665   0.547
 1594HOH      O 4968   3.931   1.415   3.394
 1594HOH     H1 4969   3.926   1.359   3.472
 1594HOH     H2 4970   3.947   1.355   3.322
 1595HOH      O 4971   3.109   0.590   1.528
 1595HOH     H1 4972   3.175   0.659   1.522
 1595HOH     H2 4973   3.037   0.622   1.473
 1596HOH      O 4974   3.709   3.788   2.166
 1596HOH     H1 4975   3.663   3.790   2.250
 1596HOH     H2 4976   3.641   3.766   2.102
 1597HOH      O 4977   0.895   3.363   3.799
 1597HOH     H1 4978   0.959   3.338   3.732
 1597HOH     H2 4979   0.940   3.427   3.853
 1598HOH      O 4980   3.767   3.825   0.266
 1598HOH     H1 4981   3.757   3.900   0.324
 1598HOH     H2 4982   3.861   3.814   0.255
 1599HOH      O 4983   1.715   2.710   1.212
 1599HOH     H1 4984   1.721   2.622   1.175
 1599HOH     H2 4985   1.625   2.739   1.192
 1600HOH      O 4986   1.199   0.371   3.597
 1600HOH     H1 4987   1.217   0.377   3.503
 1600HOH     H2 4988   1.222   0.457   3.631
 1601HOH      O 4989   0.261   0.439   1.205
 1601HOH     H1 4990   0.229   0.357   1.168
 1601HOH     H2 4991   0.334   0.465   1.148
 1602HOH      O 4992   0.952   0.246   3.919
 1602HOH     H1 4993   0.898   0.211   3.848
 1602HOH     H2 4994   1.038   0.207   3.904
 1603HOH      O 4995   2.390   1.333   1.574
 1603HOH     H1 4996   2.397   1.305   1.483
 1603HOH     H2 4997   2.478   1.322   1.610
 1604HOH      O 4998   3.398   2.843   0.251
 1604HOH     H1 4999   3.372   2.906   0.183
 1604HOH     H2 5000   3.377   2.757   0.213
 1605HOH      O 5001   1.240   0.970   3.747
 1605HOH     H1 5002   1.305   1.034   3.775
 1605HOH     H2 5003   1.156   1.008   3.772
 1606HOH      O 5004   1.417   3.784   0.614
 1606HOH     H1 5005   1.420   3.724   0.540
 1606HOH     H2 5006   1.365   3.738   0.680
 1607HOH      O 5007   0.319   0.836   3.333
 1607HOH     H1 5008   0.241   0.802   3.378
 1607HOH     H2 5009   0.392   0.809   3.389
 1608HOH      O 5010   3.757   0.491   3.373
 1608HOH     H1 5011   3.750   0.413   3.319
 1608HOH     H2 5012   3.850   0.515   3.367
 1609HOH      O 5013   2.717   3.613   1.976
 1609HOH     H1 5014   2.753   3.566   1.900
 1609HOH     H2 5015   2.780   3.683   1.992
 1610HOH      O 5016   1.353   3.442   0.179
 1610HOH     H1 5017   1.359   3.449   0.084
 1610HOH     H2 5018   1.427   3.386   0.203
 1611HOH      O 5019   1.591   0.556   0.238
 1611HOH     H1 5020   1.600   0.595   0.151
 1611HOH     H2 5021   1.636   0.617   0.296
 1612HOH      O 5022   1.510   2.132   0.921
 1612HOH     H1 5023   1.425   2.089   0.916
 1612HOH     H2 5024   1.489   2.225   0.928
 1613HOH      O 5025   0.933   1.772   0.897
 1613HOH     H1 5026   0.976   1.690   0.875
 1613HOH     H2 5027   0.840   1.755   0.883
 1614HOH      O 5028   2.826   0.680   3.720
 1614HOH     H1 5029   2.781   0.704   3.801
 1614HOH     H2 5030   2.848   0.588   3.731
 1615HOH      O 5031   1.074   1.850   2.459
 1615HOH     H1 5032   1.060   1.845   2.365
 1615HOH     H2 5033   1.126   1.773   2.480
 1616HOH      O 5034   3.896   1.241   3.602
 1616HOH     H1 5035   3.807   1.205   3.609
 1616HOH     H2 5036   3.951   1.181   3.651
 1617HOH      O 5037   0.142   0.748   0.667
 1617HOH     H1 5038   0.081   0.810   0.707
 1617HOH     H2 5039   0.202   0.725   0.737
 1618HOH      O 5040   3.955   2.870   0.961
 1618HOH     H1 5041   4.041   2.836   0.934
 1618HOH     H2 5042   3.965   2.888   1.054
 1619HOH      O 5043   2.159   3.858   1.405
 1619HOH     H1 5044   2.117   3.944   1.412
 1619HOH     H2 5045   2.248   3.872   1.436
 1620HOH      O 5046   1.343   3.827   3.650
 1620HOH     H1 5047   1.281   3.854   3.583
 1620HOH     H2 5048   1.342   3.732   3.646
 1621HOH      O 5049   1.266   2.513   0.076
 1621HOH     H1 5050   1.340   2.476   0.029
 1621HOH     H2 5051   1.270   2.607   0.058
 1622HOH      O 5052   0.923   0.481   3.002
 1622HOH     H1 5053   0.929   0.528   2.918
 1622HOH     H2 5054   0.854   0.416   2.987
 1623HOH      O 5055   2.367   2.256   0.116
 1623HOH     H1 5056   2.412   2.316   0.057
 1623HOH     H2 5057   2.352   2.307   0.196
 1624HOH      O 5058   2.246   0.534   2.039
 1624HOH     H1 5059   2.283   0.476   2.106
 1624HOH     H2 5060   2.319   0.589   2.013
 1625HOH      O 5061   3.089   2.442   1.766
 1625HOH     H1 5062   3.114   2.363   1.813
 1625HOH     H2 5063   3.170   2.472   1.725
 1626HOH      O 5064   3.206   3.121   2.019
 1626HOH     H1 5065   3.186   3.130   1.926
 1626HOH     H2 5066   3.248   3.035   2.026
 1627HOH      O 5067   3.498   1.951   0.201
 1627HOH     H1 5068   3.409   1.987   0.202
 1627HOH     H2 5069   3.485   1.856   0.210
 1628HOH      O 5070   0.403   1.096   3.455
 1628HOH     H1 5071   0.414   1.001   3.465
 1628HOH     H2 5072   0.492   1.131   3.462
 1629HOH      O 5073   2.375   2.654   0.391
 1629HOH     H1 5074   2.313   2.613   0.330
 1629HOH     H2 5075   2.321   2.709   0.447
 1630HOH      O 5076   2.200   2.776   0.555
 1630HOH     H1 5077   2.111   2.745   0.573
 1630HOH     H2 5078   2.198   2.869   0.579
 1631HOH      O 5079   0.255   3.382   1.285
 1631HOH     H1 5080   0.210   3.461   1.315
 1631HOH     H2 5081   0.224   3.369   1.196
 1632HOH      O 5082   1.554   1.950   2.240
 1632HOH     H1 5083   1.631   2.005   2.251
 1632HOH     H2 5084   1.484   1.996   2.288
 1633HOH      O 5085   1.193   2.293   0.477
 1633HOH     H1 5086   1.114   2.325   0.519
 1633HOH     H2 5087   1.220   2.218   0.530
 1634HOH      O 5088   3.213   1.323   1.661
 1634HOH     H1 5089   3.235   1.334   1.569
 1634HOH     H2 5090   3.286   1.272   1.697
 1635HOH      O 5091   2.998   2.706   1.742
 1635HOH     H1 5092   2.920   2.691   1.690
 1635HOH     H2 5093   3.009   2.626   1.794
 1636HOH      O 5094   1.876   0.086   3.668
 1636HOH     H1 5095   1.949   0.055   3.721
 1636HOH     H2 5096   1.823   0.009   3.650
 1637HOH      O 5097   2.102   3.354   0.898
 1637HOH     H1 5098   2.183   3.306   0.912
 1637HOH     H2 5099   2.035   3.303   0.943
 1638HOH      O 5100   0.067   1.195   2.313
 1638HOH     H1 5101  -0.020   1.185   2.351
 1638HOH     H2 5102   0.053   1.245   2.233
 1639HOH      O 5103   3.249   3.307   3.843
 1639HOH     H1 5104   3.271   3.220   3.808
 1639HOH     H2 5105   3.287   3.368   3.779
 1640HOH      O 5106   2.944   3.399   3.234
 1640HOH     H1 5107   2.883   3.467   3.262
 1640HOH     H2 5108   2.906   3.365   3.153
 1641HOH      O 5109   0.314   1.568   1.621
 1641HOH     H1 5110   0.283   1.540   1.707
 1641HOH     H2 5111   0.401   1.604   1.638
 1642HOH      O 5112   1.720   0.441   1.651
 1642HOH     H1 5113   1.681   0.432   1.737
 1642HOH     H2 5114   1.813   0.424   1.665
 1643HOH      O 5115   2.116   0.836   0.944
 1643HOH     H1 5116   2.089   0.754   0.904
 1643HOH     H2 5117   2.209   0.843   0.925
 1644HOH      O 5118   1.153   1.545   4.001
 1644HOH     H1 5119   1.171   1.504   4.086
 1644HOH     H2 5120   1.167   1.475   3.937
 1645HOH      O 5121   3.371   2.989   1.541
 1645HOH     H1 5122   3.464   3.013   1.548
 1645HOH     H2 5123   3.325   3.073   1.535
 1646HOH      O 5124   2.751   2.895   0.154
 1646HOH     H1 5125   2.724   2.985   0.175
 1646HOH     H2 5126   2.790   2.863   0.235
 1647HOH      O 5127   0.045   1.565   3.586
 1647HOH     H1 5128   0.078   1.642   3.539
 1647HOH     H2 5129   0.003   1.513   3.518
 1648HOH      O 5130   0.938   3.271   3.025
 1648HOH     H1 5131   0.962   3.180   3.009
 1648HOH     H2 5132   0.863   3.286   2.969
 1649HOH      O 5133   2.132   0.780   2.513
 1649HOH     H1 5134   2.054   0.836   2.506
 1649HOH     H2 5135   2.205   0.836   2.488
 1650HOH      O 5136   0.157   3.120   0.875
 1650HOH     H1 5137   0.130   3.028   0.879
 1650HOH     H2 5138   0.149   3.143   0.783
 1651HOH      O 5139   3.507   3.754   0.969
 1651HOH     H1 5140   3.436   3.754   1.033
 1651HOH     H2 5141   3.467   3.726   0.887
 1652HOH      O 5142   0.556   2.803   1.434
 1652HOH     H1 5143   0.507   2.785   1.354
 1652HOH     H2 5144   0.563   2.898   1.438
 1653HOH      O 5145   3.009   3.311   0.176
 1653HOH     H1 5146   3.098   3.306   0.211
 1653HOH     H2 5147   2.984   3.220   0.161
 1654HOH      O 5148   1.990   1.758   0.516
 1654HOH     H1 5149   1.993   1.675   0.564
 1654HOH     H2 5150   2.079   1.769   0.482
 1655HOH      O 5151   3.464   0.212   0.897
 1655HOH     H1 5152   3.525   0.161   0.951
 1655HOH     H2 5153   3.409   0.146   0.855
 1656HOH      O 5154   0.554   1.694   3.253
 1656HOH     H1 5155   0.473   1.698   3.303
 1656HOH     H2 5156   0.561   1.603   3.225
 1657HOH      O 5157   1.193   0.213   0.613
 1657HOH     H1 5158   1.154   0.146   0.670
 1657HOH     H2 5159   1.157   0.296   0.645
 1658HOH      O 5160   0.425   1.134   3.827
 1658HOH     H1 5161   0.399   1.204   3.886
 1658HOH     H2 5162   0.342   1.104   3.787
 1659HOH      O 5163   0.330   2.158   2.033
 1659HOH     H1 5164   0.236   2.148   2.024
 1659HOH     H2 5165   0.366   2.075   2.001
 1660HOH      O 5166   3.256   3.285   2.573
 1660HOH     H1 5167   3.209   3.250   2.649
 1660HOH     H2 5168   3.212   3.246   2.498
 1661HOH      O 5169   1.157   2.377   1.753
 1661HOH     H1 5170   1.102   2.397   1.678
 1661HOH     H2 5171   1.183   2.462   1.787
 1662HOH      O 5172   3.450   0.354   1.612
 1662HOH     H1 5173   3.438   0.307   1.529
 1662HOH     H2 5174   3.361   0.363   1.647
 1663HOH      O 5175   1.519   2.499   1.767
 1663HOH     H1 5176   1.570   2.552   1.829
 1663HOH     H2 5177   1.428   2.525   1.783
 1664HOH      O 5178   2.842   3.557   2.790
 1664HOH     H1 5179   2.748   3.554   2.769
 1664HOH     H2 5180   2.884   3.518   2.713
 1665HOH      O 5181   1.494   2.685   3.913
 1665HOH     H1 5182   1.535   2.673   3.827
 1665HOH     H2 5183   1.402   2.700   3.893
 1666HOH      O 5184   3.708   1.827   2.121
 1666HOH     H1 5185   3.692   1.903   2.178
 1666HOH     H2 5186   3.658   1.846   2.042
 1667HOH      O 5187   1.308   2.630   0.860
 1667HOH     H1 5188   1.261   2.683   0.795
 1667HOH     H2 5189   1.363   2.693   0.906
 1668HOH      O 5190   2.683   1.133   0.857
 1668HOH     H1 5191   2.774   1.149   0.884
 1668HOH     H2 5192   2.644   1.087   0.931
 1669HOH      O 5193   1.718   3.597   3.374
 1669HOH     H1 5194   1.635   3.619   3.333
 1669HOH     H2 5195   1.697   3.583   3.466
 1670HOH      O 5196   3.959   3.558   0.182
 1670HOH     H1 5197   3.991   3.468   0.191
 1670HOH     H2 5198   3.917   3.560   0.096
 1671HOH      O 5199   3.091   1.835   3.892
 1671HOH     H1 5200   2.998   1.824   3.912
 1671HOH     H2 5201   3.101   1.796   3.805
 1672HOH      O 5202   0.474   1.132   1.960
 1672HOH     H1 5203   0.505   1.150   2.049
 1672HOH     H2 5204   0.515   1.048   1.936
 1673HOH      O 5205   1.038   1.444   3.040
 1673HOH     H1 5206   1.098   1.511   3.072
 1673HOH     H2 5207   1.085   1.362   3.052
 1674HOH      O 5208   1.768   1.264   2.083
 1674HOH     H1 5209   1.830   1.236   2.015
 1674HOH     H2 5210   1.682   1.258   2.040
 1675HOH      O 5211   1.363   1.442   0.547
 1675HOH     H1 5212   1.320   1.377   0.601
 1675HOH     H2 5213   1.450   1.405   0.530
 1676HOH      O 5214   1.235   2.867   0.321
 1676HOH     H1 5215   1.226   2.807   0.395
 1676HOH     H2 5216   1.208   2.816   0.245
 1677HOH      O 5217   1.189   1.821   0.157
 1677HOH     H1 5218   1.113   1.850   0.106
 1677HOH     H2 5219   1.252   1.892   0.148
 1678HOH      O 5220   3.496   2.255   0.524
 1678HOH     H1 5221   3.420   2.309   0.502
 1678HOH     H2 5222   3.570   2.301   0.486
 1679HOH      O 5223   3.480   1.689   1.242
 1679HOH     H1 5224   3.548   1.749   1.211
 1679HOH     H2 5225   3.425   1.673   1.165
 1680HOH      O 5226   2.091   3.639   3.021
 1680HOH     H1 5227   2.031   3.673   2.955
 1680HOH     H2 5228   2.035   3.617   3.095
 1681HOH      O 5229   2.566   2.856   2.324
 1681HOH     H1 5230   2.624   2.784   2.351
 1681HOH     H2 5231   2.608   2.893   2.247
 1682HOH      O 5232   1.620   3.968   0.943
 1682HOH     H1 5233   1.690   4.008   0.995
 1682HOH     H2 5234   1.657   3.884   0.915
 1683HOH      O 5235   1.296   0.233   2.140
 1683HOH     H1 5236   1.246   0.251   2.060
 1683HOH     H2 5237   1.355   0.308   2.150
 1684HOH      O 5238   0.452   3.930   0.757
 1684HOH     H1 5239   0.480   3.882   0.835
 1684HOH     H2 5240   0.461   4.022   0.781
 1685HOH      O 5241   0.168   0.992   1.539
 1685HOH     H1 5242   0.075   1.001   1.557
 1685HOH     H2 5243   0.197   1.080   1.516
 1686HOH      O 5244   0.198   3.174   0.611
 1686HOH     H1 5245   0.270   3.197   0.553
 1686HOH     H2 5246   0.152   3.258   0.626
 1687HOH      O 5247   0.528   1.732   4.010
 1687HOH     H1 5248   0.593   1.670   3.978
 1687HOH     H2 5249   0.501   1.782   3.933
 1688HOH      O 5250   3.788   0.964   2.536
 1688HOH     H1 5251   3.740   0.900   2.588
 1688HOH     H2 5252   3.858   0.914   2.494
 1689HOH      O 5253   2.334   1.983   1.058
 1689HOH     H1 5254   2.398   1.990   1.128
 1689HOH     H2 5255   2.266   1.926   1.092
 1690HOH      O 5256   3.138   3.450   2.926
 1690HOH     H1 5257   3.184   3.531   2.902
 1690HOH     H2 5258   3.049   3.463   2.894
 1691HOH      O 5259   1.395   0.668   1.174
 1691HOH     H1 5260   1.398   0.720   1.094
 1691HOH     H2 5261   1.478   0.619   1.174
 1692HOH      O 5262   0.483   3.194   1.689
 1692HOH     H1 5263   0.453   3.265   1.745
 1692HOH     H2 5264   0.539   3.140   1.745
 1693HOH      O 5265   3.891   1.457   2.556
 1693HOH     H1 5266   3.954   1.430   2.623
 1693HOH     H2 5267   3.933   1.531   2.512
 1694HOH      O 5268   1.829   2.015   0.686
 1694HOH     H1 5269   1.903   2.076   0.695
 1694HOH     H2 5270   1.857   1.936   0.732
 1695HOH      O 5271   0.691   0.678   2.085
 1695HOH     H1 5272   0.725   0.765   2.065
 1695HOH     H2 5273   0.602   0.679   2.051
 1696HOH      O 5274   1.085   2.415   3.377
 1696HOH     H1 5275   1.178   2.391   3.376
 1696HOH     H2 5276   1.083   2.503   3.415
 1697HOH      O 5277   1.497   0.092   0.416
 1697HOH     H1 5278   1.515   0.184   0.433
 1697HOH     H2 5279   1.526   0.047   0.495
 1698HOH      O 5280   3.122   0.524   3.058
 1698HOH     H1 5281   3.033   0.500   3.084
 1698HOH     H2 5282   3.166   0.546   3.140
 1699HOH      O 5283   0.837   0.510   1.919
 1699HOH     H1 5284   0.786   0.429   1.922
 1699HOH     H2 5285   0.787   0.571   1.973
 1700HOH      O 5286   1.004   3.014   3.030
 1700HOH     H1 5287   1.000   2.938   2.971
 1700HOH     H2 5288   1.067   2.989   3.097
 1701HOH      O 5289   0.255   3.068   1.630
 1701HOH     H1 5290   0.260   3.087   1.536
 1701HOH     H2 5291   0.329   3.117   1.667
 1702HOH      O 5292   3.838   3.575   1.918
 1702HOH     H1 5293   3.818   3.561   2.011
 1702HOH     H2 5294   3.859   3.488   1.885
 1703HOH      O 5295   0.841   0.571   1.521
 1703HOH     H1 5296   0.909   0.637   1.509
 1703HOH     H2 5297   0.779   0.587   1.449
 1704HOH      O 5298   1.168   0.674   2.965
 1704HOH     H1 5299   1.231   0.603   2.978
 1704HOH     H2 5300   1.191   0.738   3.032
 1705HOH      O 5301   2.717   1.289   3.243
 1705HOH     H1 5302   2.631   1.256   3.216
 1705HOH     H2 5303   2.700   1.338   3.323
 1706HOH      O 5304   1.657   2.384   1.572
 1706HOH     H1 5305   1.707   2.323   1.626
 1706HOH     H2 5306   1.603   2.432   1.634
 1707HOH      O 5307   1.853   1.966   1.362
 1707HOH     H1 5308   1.789   1.895   1.366
 1707HOH     H2 5309   1.906   1.954   1.441
 1708HOH      O 5310   0.130   3.012   1.999
 1708HOH     H1 5311   0.112   2.963   2.079
 1708HOH     H2 5312   0.077   3.092   2.007
 1709HOH      O 5313   2.691   3.111   3.824
 1709HOH     H1 5314   2.778   3.149   3.829
 1709HOH     H2 5315   2.664   3.121   3.733
 1710HOH      O 5316   2.341   3.571   3.048
 1710HOH     H1 5317   2.252   3.601   3.032
 1710HOH     H2 5318   2.330   3.482   3.084
 1711HOH      O 5319   0.583   2.008   0.182
 1711HOH     H1 5320   0.674   1.982   0.197
 1711HOH     H2 5321   0.559   1.963   0.101
 1712HOH      O 5322   2.948   1.019   0.221
 1712HOH     H1 5323   2.983   1.108   0.214
 1712HOH     H2 5324   2.959   0.997   0.314
 1713HOH      O 5325   3.693   1.654   3.848
 1713HOH     H1 5326   3.614   1.657   3.902
 1713HOH     H2 5327   3.717   1.562   3.846
 1714HOH      O 5328   1.065   0.629   2.166
 1714HOH     H1 5329   1.038   0.594   2.251
 1714HOH     H2 5330   0.984   0.634   2.116
 1715HOH      O 5331   1.881   3.735   1.050
 1715HOH     H1 5332   1.826   3.748   0.974
 1715HOH     H2 5333   1.891   3.640   1.058
 1716HOH      O 5334   1.934   0.081   1.710
 1716HOH     H1 5335   1.958   0.173   1.710
 1716HOH     H2 5336   1.907   0.063   1.801
 1717HOH      O 5337   1.448   0.671   3.664
 1717HOH     H1 5338   1.394   0.744   3.634
 1717HOH     H2 5339   1.507   0.653   3.591
 1718HOH      O 5340   3.929   1.874   3.054
 1718HOH     H1 5341   3.877   1.805   3.095
 1718HOH     H2 5342   3.928   1.852   2.960
 1719HOH      O 5343   0.253   1.807   2.528
 1719HOH     H1 5344   0.335   1.756   2.521
 1719HOH     H2 5345   0.244   1.824   2.622
 1720HOH      O 5346   2.539   0.390   0.255
 1720HOH     H1 5347   2.612   0.446   0.281
 1720HOH     H2 5348   2.505   0.353   0.337
 1721HOH      O 5349   0.262   0.778   0.427
 1721HOH     H1 5350   0.235   0.770   0.519
 1721HOH     H2 5351   0.358   0.780   0.431
 1722HOH      O 5352   2.658   3.714   3.750
 1722HOH     H1 5353   2.646   3.646   3.816
 1722HOH     H2 5354   2.586   3.700   3.688
 1723HOH      O 5355   2.153   3.487   2.565
 1723HOH     H1 5356   2.117   3.417   2.511
 1723HOH     H2 5357   2.224   3.445   2.614
 1724HOH      O 5358   0.089   3.415   0.670
 1724HOH     H1 5359   0.001   3.433   0.703
 1724HOH     H2 5360   0.100   3.476   0.597
 1725HOH      O 5361   0.541   0.027   1.004
 1725HOH     H1 5362   0.535  -0.014   1.090
 1725HOH     H2 5363   0.620   0.080   1.007
 1726HOH      O 5364   0.479   1.905   1.494
 1726HOH     H1 5365   0.485   1.870   1.405
 1726HOH     H2 5366   0.567   1.896   1.530
 1727HOH      O 5367   2.574   1.388   3.476
 1727HOH     H1 5368   2.526   1.470   3.460
 1727HOH     H2 5369   2.505   1.321   3.481
 1728HOH      O 5370   3.876   2.439   1.674
 1728HOH     H1 5371   3.926   2.360   1.694
 1728HOH     H2 5372   3.872   2.487   1.757
 1729HOH      O 5373   1.603   0.160   3.222
 1729HOH     H1 5374   1.680   0.118   3.184
 1729HOH     H2 5375   1.638   0.237   3.267
 1730HOH      O 5376   1.059   1.889   2.209
 1730HOH     H1 5377   1.130   1.876   2.145
 1730HOH     H2 5378   0.990   1.830   2.180
 1731HOH      O 5379   1.556   2.017   0.683
 1731HOH     H1 5380   1.651   2.030   0.678
 1731HOH     H2 5381   1.533   2.043   0.772
 1732HOH      O 5382   2.250   0.583   1.538
 1732HOH     H1 5383   2.189   0.645   1.579
 1732HOH     H2 5384   2.323   0.577   1.600
 1733HOH      O 5385   0.186   3.172   3.546
 1733HOH     H1 5386   0.107   3.207   3.587
 1733HOH     H2 5387   0.219   3.244   3.492
 1734HOH      O 5388   2.533   0.774   1.293
 1734HOH     H1 5389   2.480   0.694   1.293
 1734HOH     H2 5390   2.517   0.814   1.379
 1735HOH      O 5391   0.841   2.857   0.348
 1735HOH     H1 5392   0.888   2.787   0.303
 1735HOH     H2 5393   0.861   2.936   0.297
 1736HOH      O 5394   1.463   1.630   3.058
 1736HOH     H1 5395   1.497   1.718   3.075
 1736HOH     H2 5396   1.531   1.589   3.003
 1737HOH      O 5397   3.723   3.571   3.099
 1737HOH     H1 5398   3.738   3.577   3.193
 1737HOH     H2 5399   3.803   3.531   3.064
 1738HOH      O 5400   0.008   1.162   0.994
 1738HOH     H1 5401   0.036   1.232   1.054
 1738HOH     H2 5402  -0.027   1.094   1.051
 1739HOH      O 5403   0.467   3.726   0.959
 1739HOH     H1 5404   0.445   3.633   0.963
 1739HOH     H2 5405   0.521   3.741   1.036
 1740HOH      O 5406   4.007   2.101   2.801
 1740HOH     H1 5407   3.939   2.125   2.864
 1740HOH     H2 5408   4.025   2.009   2.820
 1741HOH      O 5409   0.882   2.530   0.427
 1741HOH     H1 5410   0.878   2.569   0.340
 1741HOH     H2 5411   0.858   2.438   0.414
 1742HOH      O 5412   0.192   1.225   2.553
 1742HOH     H1 5413   0.166   1.142   2.592
 1742HOH     H2 5414   0.170   1.217   2.461
 1743HOH      O 5415   0.662   2.520   1.439
 1743HOH     H1 5416   0.629   2.480   1.359
 1743HOH     H2 5417   0.607   2.597   1.452
 1744HOH      O 5418   2.087   1.062   0.493
 1744HOH     H1 5419   2.172   1.084   0.455
 1744HOH     H2 5420   2.091   1.100   0.581
 1745HOH      O 5421   2.528   0.981   1.063
 1745HOH     H1 5422   2.450   0.930   1.043
 1745HOH     H2 5423   2.588   0.919   1.103
 1746HOH      O 5424   1.566   1.500   1.125
 1746HOH     H1 5425   1.474   1.513   1.150
 1746HOH     H2 5426   1.608   1.467   1.204
 1747HOH      O 5427   3.470   3.126   3.281
 1747HOH     H1 5428   3.382   3.156   3.261
 1747HOH     H2 5429   3.493   3.068   3.209
 1748HOH      O 5430   0.915   3.211   0.788
 1748HOH     H1 5431   0.945   3.236   0.701
 1748HOH     H2 5432   0.992   3.222   0.844
 1749HOH      O 5433   1.194   0.953   1.062
 1749HOH     H1 5434   1.172   0.860   1.059
 1749HOH     H2 5435   1.122   0.996   1.016
 1750HOH      O 5436  -0.019   3.731   0.583
 1750HOH     H1 5437  -0.053   3.707   0.669
 1750HOH     H2 5438   0.076   3.736   0.596
 1751HOH      O 5439   3.348   3.275   1.376
 1751HOH     H1 5440   3.290   3.284   1.300
 1751HOH     H2 5441   3.429   3.238   1.339
 1752HOH      O 5442   3.832   3.148   3.485
 1752HOH     H1 5443   3.861   3.196   3.562
 1752HOH     H2 5444   3.814   3.215   3.420
 1753HOH      O 5445   3.793   0.197   0.215
 1753HOH     H1 5446   3.770   0.286   0.242
 1753HOH     H2 5447   3.851   0.166   0.284
 1754HOH      O 5448   2.703   3.984   3.796
 1754HOH     H1 5449   2.697   3.891   3.777
 1754HOH     H2 5450   2.714   4.025   3.710
 1755HOH      O 5451   2.571   3.448   0.326
 1755HOH     H1 5452   2.591   3.532   0.285
 1755HOH     H2 5453   2.483   3.459   0.363
 1756HOH      O 5454   0.495   3.872   0.300
 1756HOH     H1 5455   0.585   3.848   0.277
 1756HOH     H2 5456   0.502   3.960   0.336
 1757HOH      O 5457   1.207   2.667   0.527
 1757HOH     H1 5458   1.130   2.610   0.524
 1757HOH     H2 5459   1.280   2.609   0.507
 1758HOH      O 5460   1.378   1.985   1.478
 1758HOH     H1 5461   1.381   2.077   1.504
 1758HOH     H2 5462   1.331   1.985   1.395
 1759HOH      O 5463   1.706   1.251   3.962
 1759HOH     H1 5464   1.697   1.346   3.970
 1759HOH     H2 5465   1.773   1.238   3.895
 1760HOH      O 5466   2.251   0.633   3.286
 1760HOH     H1 5467   2.246   0.724   3.259
 1760HOH     H2 5468   2.239   0.583   3.204
 1761HOH      O 5469   2.204   3.682   0.090
 1761HOH     H1 5470   2.173   3.700   0.179
 1761HOH     H2 5471   2.150   3.609   0.060
 1762HOH      O 5472   1.403   0.714   3.205
 1762HOH     H1 5473   1.479   0.736   3.258
 1762HOH     H2 5474   1.438   0.661   3.133
 1763HOH      O 5475   1.115   1.032   1.550
 1763HOH     H1 5476   1.203   1.033   1.512
 1763HOH     H2 5477   1.131   1.026   1.644
 1764HOH      O 5478   1.958   3.243   2.917
 1764HOH     H1 5479   1.890   3.294   2.873
 1764HOH     H2 5480   1.972   3.289   3.000
 1765HOH      O 5481   1.807   0.305   3.879
 1765HOH     H1 5482   1.842   0.274   3.962
 1765HOH     H2 5483   1.839   0.242   3.814
 1766HOH      O 5484   3.626   1.974   0.896
 1766HOH     H1 5485   3.559   1.976   0.964
 1766HOH     H2 5486   3.606   1.895   0.845
 1767HOH      O 5487   3.580   0.029   0.142
 1767HOH     H1 5488   3.620  -0.007   0.063
 1767HOH     H2 5489   3.647   0.085   0.180
 1768HOH      O 5490   1.180   3.720   3.183
 1768HOH     H1 5491   1.173   3.751   3.273
 1768HOH     H2 5492   1.105   3.663   3.171
 1769HOH      O 5493   1.629   0.243   2.296
 1769HOH     H1 5494   1.678   0.167   2.265
 1769HOH     H2 5495   1.547   0.207   2.331
 1770HOH      O 5496   1.976   3.837   2.475
 1770HOH     H1 5497   1.923   3.760   2.497
 1770HOH     H2 5498   2.066   3.809   2.489
 1771HOH      O 5499   3.814   3.425   2.174
 1771HOH     H1 5500   3.851   3.462   2.253
 1771HOH     H2 5501   3.723   3.406   2.197
 1772HOH      O 5502   1.093   3.495   0.442
 1772HOH     H1 5503   1.061   3.565   0.498
 1772HOH     H2 5504   1.062   3.518   0.354
 1773HOH      O 5505   1.565   1.077   0.627
 1773HOH     H1 5506   1.561   1.040   0.539
 1773HOH     H2 5507   1.474   1.094   0.650
 1774HOH      O 5508   1.972   1.417   0.795
 1774HOH     H1 5509   2.036   1.406   0.725
 1774HOH     H2 5510   1.920   1.493   0.768
 1775HOH      O 5511   2.947   0.745   0.070
 1775HOH     H1 5512   2.995   0.801   0.130
 1775HOH     H2 5513   2.976   0.772  -0.017
 1776HOH      O 5514   1.022   0.916   0.569
 1776HOH     H1 5515   1.004   0.887   0.658
 1776HOH     H2 5516   1.116   0.931   0.567
 1777HOH      O 5517   0.431   3.015   1.923
 1777HOH     H1 5518   0.402   3.076   1.990
 1777HOH     H2 5519   0.527   3.022   1.924
 1778HOH      O 5520   2.986   2.333   1.318
 1778HOH     H1 5521   2.936   2.373   1.247
 1778HOH     H2 5522   3.076   2.364   1.304
 1779HOH      O 5523   2.171   0.267   3.396
 1779HOH     H1 5524   2.208   0.186   3.360
 1779HOH     H2 5525   2.248   0.318   3.423
 1780HOH      O 5526   3.310   3.579   0.270
 1780HOH     H1 5527   3.333   3.671   0.281
 1780HOH     H2 5528   3.214   3.577   0.278
 1781HOH      O 5529   2.341   1.397   2.462
 1781HOH     H1 5530   2.361   1.376   2.554
 1781HOH     H2 5531   2.263   1.346   2.443
 1782HOH      O 5532   3.757   1.999   2.373
 1782HOH     H1 5533   3.772   1.907   2.395
 1782HOH     H2 5534   3.740   2.041   2.458
 1783HOH      O 5535   0.559   2.973   2.276
 1783HOH     H1 5536   0.644   2.942   2.243
 1783HOH     H2 5537   0.574   2.991   2.368
 1784HOH      O 5538   2.139   1.358   0.347
 1784HOH     H1 5539   2.051   1.325   0.333
 1784HOH     H2 5540   2.197   1.284   0.328
 1785HOH      O 5541   2.737   1.486   3.699
 1785HOH     H1 5542   2.680   1.463   3.625
 1785HOH     H2 5543   2.826   1.483   3.662
 1786HOH      O 5544   1.423   0.273   1.220
 1786HOH     H1 5545   1.418   0.201   1.282
 1786HOH     H2 5546   1.449   0.349   1.273
 1787HOH      O 5547   1.498   3.878   2.444
 1787HOH     H1 5548   1.531   3.830   2.368
 1787HOH     H2 5549   1.553   3.850   2.516
 1788HOH      O 5550   0.602   1.459   2.886
 1788HOH     H1 5551   0.567   1.440   2.973
 1788HOH     H2 5552   0.529   1.499   2.839
 1789HOH      O 5553   3.412   0.762   3.134
 1789HOH     H1 5554   3.334   0.785   3.185
 1789HOH     H2 5555   3.467   0.713   3.195
 1790HOH      O 5556   1.243   1.836   2.953
 1790HOH     H1 5557   1.288   1.790   3.023
 1790HOH     H2 5558   1.223   1.768   2.889
 1791HOH      O 5559   3.099   3.137   2.750
 1791HOH     H1 5560   3.143   3.052   2.748
 1791HOH     H2 5561   3.108   3.167   2.840
 1792HOH      O 5562   0.320   1.481   0.202
 1792HOH     H1 5563   0.412   1.479   0.174
 1792HOH     H2 5564   0.324   1.477   0.297
 1793HOH      O 5565   0.280   3.171   3.207
 1793HOH     H1 5566   0.194   3.131   3.192
 1793HOH     H2 5567   0.343   3.103   3.185
 1794HOH      O 5568   1.354   3.354   1.283
 1794HOH     H1 5569   1.324   3.263   1.284
 1794HOH     H2 5570   1.406   3.363   1.363
 1795HOH      O 5571   3.456   1.381   3.516
 1795HOH     H1 5572   3.483   1.457   3.567
 1795HOH     H2 5573   3.415   1.418   3.437
 1796HOH      O 5574   0.946   0.038   0.748
 1796HOH     H1 5575   0.893   0.029   0.669
 1796HOH     H2 5576   0.980  -0.050   0.765
 1797HOH      O 5577   1.899   4.000   3.967
 1797HOH     H1 5578   1.804   4.003   3.953
 1797HOH     H2 5579   1.910   4.014   4.061
 1798HOH      O 5580   1.756   0.322   3.370
 1798HOH     H1 5581   1.721   0.340   3.456
 1798HOH     H2 5582   1.838   0.372   3.366
 1799HOH      O 5583   3.709   2.364   0.414
 1799HOH     H1 5584   3.742   2.341   0.327
 1799HOH     H2 5585   3.710   2.459   0.416
 1800HOH      O 5586   2.427   0.621   0.485
 1800HOH     H1 5587   2.514   0.597   0.454
 1800HOH     H2 5588   2.413   0.567   0.563
 1801HOH      O 5589   0.131   3.314   1.061
 1801HOH     H1 5590   0.155   3.253   0.991
 1801HOH     H2 5591   0.059   3.271   1.107
 1802HOH      O 5592   2.627   3.690   1.035
 1802HOH     H1 5593   2.553   3.726   0.987
 1802HOH     H2 5594   2.670   3.632   0.973
 1803HOH      O 5595   1.356   1.665   2.381
 1803HOH     H1 5596   1.412   1.665   2.304
 1803HOH     H2 5597   1.399   1.725   2.442
 1804HOH      O 5598   2.764   1.514   1.829
 1804HOH     H1 5599   2.764   1.593   1.776
 1804HOH     H2 5600   2.835   1.527   1.892
 1805HOH      O 5601   0.522   0.659   0.429
 1805HOH     H1 5602   0.608   0.617   0.423
 1805HOH     H2 5603   0.460   0.587   0.419
 1806HOH      O 5604   1.093   0.222   1.426
 1806HOH     H1 5605   1.061   0.247   1.339
 1806HOH     H2 5606   1.188   0.219   1.416
 1807HOH      O 5607   2.231   0.532   3.832
 1807HOH     H1 5608   2.224   0.460   3.895
 1807HOH     H2 5609   2.325   0.551   3.828
 1808HOH      O 5610   1.270   0.153   2.728
 1808HOH     H1 5611   1.272   0.236   2.777
 1808HOH     H2 5612   1.311   0.090   2.787
 1809HOH      O 5613   3.485   0.553   2.987
 1809HOH     H1 5614   3.447   0.548   2.899
 1809HOH     H2 5615   3.448   0.634   3.024
 1810HOH      O 5616   1.838   4.026   3.156
 1810HOH     H1 5617   1.926   4.021   3.120
 1810HOH     H2 5618   1.837   3.960   3.226
 1811HOH      O 5619   3.534   1.800   0.708
 1811HOH     H1 5620   3.447   1.762   0.698
 1811HOH     H2 5621   3.564   1.815   0.619
 1812HOH      O 5622   2.021   1.539   1.080
 1812HOH     H1 5623   1.949   1.593   1.048
 1812HOH     H2 5624   1.983   1.452   1.092
 1813HOH      O 5625   3.434   2.637   3.949
 1813HOH     H1 5626   3.485   2.596   4.018
 1813HOH     H2 5627   3.429   2.571   3.880
 1814HOH      O 5628   3.918   2.495   3.889
 1814HOH     H1 5629   3.838   2.455   3.856
 1814HOH     H2 5630   3.959   2.427   3.942
 1815HOH      O 5631   2.416   2.817   1.485
 1815HOH     H1 5632   2.341   2.826   1.545
 1815HOH     H2 5633   2.401   2.734   1.440
 1816HOH      O 5634   1.172   3.644   0.169
 1816HOH     H1 5635   1.230   3.568   0.174
 1816HOH     H2 5636   1.222   3.710   0.121
 1817HOH      O 5637   0.486   2.557   2.580
 1817HOH     H1 5638   0.455   2.498   2.511
 1817HOH     H2 5639   0.574   2.582   2.552
 1818HOH      O 5640   1.884   0.478   2.549
 1818HOH     H1 5641   1.972   0.510   2.532
 1818HOH     H2 5642   1.887   0.386   2.521
 1819HOH      O 5643   1.047   2.727   3.817
 1819HOH     H1 5644   1.036   2.817   3.784
 1819HOH     H2 5645   1.009   2.672   3.749
 1820HOH      O 5646   1.029   1.522   0.562
 1820HOH     H1 5647   0.943   1.561   0.547
 1820HOH     H2 5648   1.010   1.431   0.587
 1821HOH      O 5649   3.069   0.502   2.182
 1821HOH     H1 5650   3.002   0.533   2.243
 1821HOH     H2 5651   3.144   0.560   2.198
 1822HOH      O 5652   3.447   2.949   2.752
 1822HOH     H1 5653   3.527   2.946   2.804
 1822HOH     H2 5654   3.416   3.039   2.762
 1823HOH      O 5655   0.122   0.108   2.569
 1823HOH     H1 5656   0.111   0.149   2.483
 1823HOH     H2 5657   0.097   0.017   2.554
 1824HOH      O 5658   1.648   2.493   1.046
 1824HOH     H1 5659   1.570   2.546   1.056
 1824HOH     H2 5660   1.634   2.418   1.104
 1825HOH      O 5661   0.796   1.891   3.883
 1825HOH     H1 5662   0.823   1.799   3.892
 1825HOH     H2 5663   0.703   1.886   3.861
 1826HOH      O 5664   3.164   1.538   1.440
 1826HOH     H1 5665   3.254   1.532   1.472
 1826HOH     H2 5666   3.133   1.622   1.474
 1827HOH      O 5667   2.871   0.594   2.371
 1827HOH     H1 5668   2.873   0.633   2.458
 1827HOH     H2 5669   2.869   0.500   2.387
 1828HOH      O 5670   0.508   0.845   1.450
 1828HOH     H1 5671   0.555   0.891   1.519
 1828HOH     H2 5672   0.521   0.899   1.372
 1829HOH      O 5673   2.245   0.684   0.246
 1829HOH     H1 5674   2.229   0.772   0.214
 1829HOH     H2 5675   2.301   0.696   0.323
 1830HOH      O 5676   0.294   2.875   0.224
 1830HOH     H1 5677   0.256   2.873   0.312
 1830HOH     H2 5678   0.357   2.803   0.224
 1831HOH      O 5679   0.298   1.172   0.978
 1831HOH     H1 5680   0.205   1.151   0.970
 1831HOH     H2 5681   0.302   1.238   1.047
 1832HOH      O 5682   3.744   0.530   3.010
 1832HOH     H1 5683   3.748   0.434   3.004
 1832HOH     H2 5684   3.651   0.550   3.012
 1833HOH      O 5685   0.960   2.535   2.324
 1833HOH     H1 5686   0.980   2.521   2.417
 1833HOH     H2 5687   0.875   2.492   2.312
 1834HOH      O 5688   0.548   1.348   0.132
 1834HOH     H1 5689   0.605   1.280   0.098
 1834HOH     H2 5690   0.494   1.304   0.197
 1835HOH      O 5691   0.284   2.001   1.654
 1835HOH     H1 5692   0.357   1.965   1.604
 1835HOH     H2 5693   0.313   1.997   1.745
 1836HOH      O 5694   1.638   0.666   4.005
 1836HOH     H1 5695   1.655   0.760   4.006
 1836HOH     H2 5696   1.718   0.628   3.970
 1837HOH      O 5697   3.109   1.508   0.828
 1837HOH     H1 5698   3.087   1.561   0.751
 1837HOH     H2 5699   3.198   1.479   0.812
 1838HOH      O 5700   3.164   0.210   0.297
 1838HOH     H1 5701   3.207   0.212   0.382
 1838HOH     H2 5702   3.108   0.287   0.296
 1839HOH      O 5703   2.785   1.152   1.484
 1839HOH     H1 5704   2.709   1.204   1.511
 1839HOH     H2 5705   2.780   1.151   1.388
 1840HOH      O 5706   2.767   2.645   2.370
 1840HOH     H1 5707   2.850   2.682   2.341
 1840HOH     H2 5708   2.778   2.631   2.464
 1841HOH      O 5709   0.501   4.019   3.678
 1841HOH     H1 5710   0.463   3.938   3.645
 1841HOH     H2 5711   0.430   4.062   3.727
 1842HOH      O 5712   2.541   0.508   0.744
 1842HOH     H1 5713   2.570   0.599   0.741
 1842HOH     H2 5714   2.610   0.460   0.698
 1843HOH      O 5715   2.219   4.013   3.355
 1843HOH     H1 5716   2.303   3.989   3.394
 1843HOH     H2 5717   2.154   3.965   3.406
 1844HOH      O 5718   2.139   3.138   2.649
 1844HOH     H1 5719   2.208   3.137   2.582
 1844HOH     H2 5720   2.162   3.211   2.706
 1845HOH      O 5721   0.330   3.721   2.270
 1845HOH     H1 5722   0.253   3.776   2.284
 1845HOH     H2 5723   0.298   3.631   2.277
 1846HOH      O 5724   3.496   0.379   3.215
 1846HOH     H1 5725   3.488   0.417   3.302
 1846HOH     H2 5726   3.474   0.451   3.156
 1847HOH      O 5727   3.174   2.584   1.458
 1847HOH     H1 5728   3.087   2.571   1.494
 1847HOH     H2 5729   3.161   2.640   1.382
 1848HOH      O 5730   2.720   1.404   1.160
 1848HOH     H1 5731   2.785   1.381   1.093
 1848HOH     H2 5732   2.739   1.496   1.180
 1849HOH      O 5733   1.246   3.098   1.311
 1849HOH     H1 5734   1.166   3.072   1.357
 1849HOH     H2 5735   1.315   3.046   1.352
 1850HOH      O 5736   0.005   3.603   2.574
 1850HOH     H1 5737  -0.047   3.617   2.653
 1850HOH     H2 5738   0.095   3.621   2.602
 1851HOH      O 5739   0.039   2.187   2.274
 1851HOH     H1 5740   0.094   2.175   2.352
 1851HOH     H2 5741   0.047   2.104   2.226
 1852HOH      O 5742   0.363   2.787   1.634
 1852HOH     H1 5743   0.384   2.810   1.544
 1852HOH     H2 5744   0.331   2.697   1.630
 1853HOH      O 5745   1.093   3.972   1.481
 1853HOH     H1 5746   1.108   4.067   1.485
 1853HOH     H2 5747   1.171   3.937   1.438
 1854HOH      O 5748   1.093   1.778   1.951
 1854HOH     H1 5749   1.097   1.682   1.953
 1854HOH     H2 5750   1.180   1.805   1.924
 1855HOH      O 5751   2.656   2.712   0.860
 1855HOH     H1 5752   2.682   2.776   0.926
 1855HOH     H2 5753   2.577   2.672   0.896
 1856HOH      O 5754   3.112   2.762   2.066
 1856HOH     H1 5755   3.189   2.818   2.069
 1856HOH     H2 5756   3.093   2.752   1.973
 1857HOH      O 5757   1.145   1.170   0.265
 1857HOH     H1 5758   1.195   1.250   0.252
 1857HOH     H2 5759   1.154   1.151   0.359
 1858HOH      O 5760   0.629   0.042   2.795
 1858HOH     H1 5761   0.708  -0.012   2.794
 1858HOH     H2 5762   0.626   0.081   2.708
 1859HOH      O 5763   2.997   2.696   1.251
 1859HOH     H1 5764   2.955   2.758   1.311
 1859HOH     H2 5765   3.024   2.750   1.177
 1860HOH      O 5766   0.858   1.949   0.142
 1860HOH     H1 5767   0.897   2.031   0.172
 1860HOH     H2 5768   0.861   1.954   0.047
 1861HOH      O 5769   3.431   1.691   3.959
 1861HOH     H1 5770   3.441   1.701   4.054
 1861HOH     H2 5771   3.393   1.775   3.931
 1862HOH      O 5772   2.054   0.325   2.752
 1862HOH     H1 5773   2.083   0.290   2.836
 1862HOH     H2 5774   2.125   0.383   2.725
 1863HOH      O 5775   3.492   0.555   2.295
 1863HOH     H1 5776   3.442   0.474   2.307
 1863HOH     H2 5777   3.473   0.606   2.374
 1864HOH      O 5778   2.314   0.498   3.061
 1864HOH     H1 5779   2.296   0.466   2.973
 1864HOH     H2 5780   2.332   0.592   3.050
 1865HOH      O 5781   0.839   1.725   0.352
 1865HOH     H1 5782   0.783   1.667   0.300
 1865HOH     H2 5783   0.849   1.803   0.297
 1866HOH      O 5784   1.017   3.450   3.465
 1866HOH     H1 5785   0.943   3.391   3.482
 1866HOH     H2 5786   1.057   3.415   3.386
 1867HOH      O 5787   3.248   0.403   1.929
 1867HOH     H1 5788   3.202   0.425   2.010
 1867HOH     H2 5789   3.340   0.394   1.956
 1868HOH      O 5790   2.014   3.293   3.231
 1868HOH     H1 5791   2.055   3.208   3.249
 1868HOH     H2 5792   2.050   3.351   3.298
 1869HOH      O 5793   0.476   0.969   0.921
 1869HOH     H1 5794   0.413   1.039   0.931
 1869HOH     H2 5795   0.476   0.948   0.827
 1870HOH      O 5796   3.661   0.046   1.916
 1870HOH     H1 5797   3.584   0.068   1.969
 1870HOH     H2 5798   3.650   0.098   1.836
 1871HOH      O 5799   1.658   1.663   1.942
 1871HOH     H1 5800   1.594   1.699   1.880
 1871HOH     H2 5801   1.673   1.573   1.910
 1872HOH      O 5802   0.661   0.768   3.925
 1872HOH     H1 5803   0.587   0.721   3.963
 1872HOH     H2 5804   0.685   0.716   3.848
 1873HOH      O 5805   2.232   0.293   0.397
 1873HOH     H1 5806   2.206   0.328   0.311
 1873HOH     H2 5807   2.174   0.219   0.411
 1874HOH      O 5808   2.635   1.518   1.447
 1874HOH     H1 5809   2.720   1.515   1.490
 1874HOH     H2 5810   2.612   1.426   1.434
 1875HOH      O 5811   1.261   2.616   1.875
 1875HOH     H1 5812   1.234   2.605   1.966
 1875HOH     H2 5813   1.314   2.696   1.875
 1876HOH      O 5814   1.273   2.354   2.750
 1876HOH     H1 5815   1.286   2.263   2.775
 1876HOH     H2 5816   1.328   2.404   2.811
 1877HOH      O 5817   3.668   3.762   3.712
 1877HOH     H1 5818   3.726   3.688   3.730
 1877HOH     H2 5819   3.719   3.819   3.655
 1878HOH      O 5820   3.856   3.793   1.513
 1878HOH     H1 5821   3.893   3.766   1.597
 1878HOH     H2 5822   3.769   3.826   1.535
 1879HOH      O 5823   1.424   1.688   3.982
 1879HOH     H1 5824   1.332   1.692   4.006
 1879HOH     H2 5825   1.469   1.739   4.049
 1880HOH      O 5826   2.970   1.179   1.231
 1880HOH     H1 5827   3.045   1.230   1.199
 1880HOH     H2 5828   3.001   1.139   1.312
 1881HOH      O 5829   3.560   0.196   1.345
 1881HOH     H1 5830   3.593   0.265   1.288
 1881HOH     H2 5831   3.615   0.120   1.324
 1882HOH      O 5832   3.399   2.553   2.674
 1882HOH     H1 5833   3.328   2.548   2.610
 1882HOH     H2 5834   3.434   2.642   2.664
 1883HOH      O 5835   2.686   3.175   3.521
 1883HOH     H1 5836   2.621   3.212   3.462
 1883HOH     H2 5837   2.766   3.168   3.468
 1884HOH      O 5838   2.880   3.710   0.549
 1884HOH     H1 5839   2.908   3.747   0.465
 1884HOH     H2 5840   2.948   3.646   0.570
 1885HOH      O 5841   2.349   2.497   1.571
 1885HOH     H1 5842   2.307   2.522   1.489
 1885HOH     H2 5843   2.323   2.406   1.585
 1886HOH      O 5844   0.294   0.133   3.169
 1886HOH     H1 5845   0.333   0.206   3.217
 1886HOH     H2 5846   0.279   0.168   3.081
 1887HOH      O 5847   0.554   3.532   1.203
 1887HOH     H1 5848   0.625   3.523   1.266
 1887HOH     H2 5849   0.546   3.445   1.163
 1888HOH      O 5850   3.904   3.194   3.996
 1888HOH     H1 5851   3.832   3.143   4.034
 1888HOH     H2 5852   3.976   3.132   3.991
 1889HOH      O 5853   2.407   3.434   0.025
 1889HOH     H1 5854   2.357   3.389   0.093
 1889HOH     H2 5855   2.373   3.524   0.027
 1890HOH      O 5856   1.367   3.546   3.626
 1890HOH     H1 5857   1.388   3.488   3.553
 1890HOH     H2 5858   1.370   3.490   3.704
 1891HOH      O 5859   0.280   3.706   0.246
 1891HOH     H1 5860   0.360   3.758   0.254
 1891HOH     H2 5861   0.212   3.761   0.283
 1892HOH      O 5862   3.128   0.251   2.232
 1892HOH     H1 5863   3.050   0.196   2.231
 1892HOH     H2 5864   3.096   0.339   2.214
 1893HOH      O 5865   3.337   0.142   3.497
 1893HOH     H1 5866   3.295   0.167   3.579
 1893HOH     H2 5867   3.347   0.047   3.502
 1894HOH      O 5868   1.555   3.604   1.936
 1894HOH     H1 5869   1.650   3.606   1.922
 1894HOH     H2 5870   1.532   3.694   1.958
 1895HOH      O 5871   1.875   2.084   2.032
 1895HOH     H1 5872   1.817   2.084   2.109
 1895HOH     H2 5873   1.858   2.001   1.989
 1896HOH      O 5874   2.853   2.961   2.438
 1896HOH     H1 5875   2.758   2.962   2.425
 1896HOH     H2 5876   2.872   3.042   2.484
 1897HOH      O 5877   0.962   3.959   3.313
 1897HOH     H1 5878   1.028   3.994   3.253
 1897HOH     H2 5879   0.887   3.940   3.257
 1898HOH      O 5880   0.754   3.849   3.720
 1898HOH     H1 5881   0.707   3.906   3.659
 1898HOH     H2 5882   0.823   3.810   3.667
 1899HOH      O 5883   1.165   2.308   0.213
 1899HOH     H1 5884   1.200   2.392   0.183
 1899HOH     H2 5885   1.192   2.302   0.304
 1900HOH      O 5886   2.737   0.799   0.931
 1900HOH     H1 5887   2.740   0.797   0.836
 1900HOH     H2 5888   2.796   0.870   0.956
 1901HOH      O 5889   3.690   2.537   1.431
 1901HOH     H1 5890   3.595   2.549   1.426
 1901HOH     H2 5891   3.705   2.498   1.518
 1902HOH      O 5892   0.757   0.294   2.635
 1902HOH     H1 5893   0.828   0.235   2.611
 1902HOH     H2 5894   0.745   0.280   2.729
 1903HOH      O 5895   0.733   0.175   3.751
 1903HOH     H1 5896   0.652   0.149   3.707
 1903HOH     H2 5897   0.774   0.236   3.689
 1904HOH      O 5898   3.843   0.021   2.120
 1904HOH     H1 5899   3.761   0.041   2.074
 1904HOH     H2 5900   3.821  -0.055   2.174
 1905HOH      O 5901   2.838   1.250   1.994
 1905HOH     H1 5902   2.849   1.287   1.906
 1905HOH     H2 5903   2.758   1.290   2.027
 1906HOH      O 5904   0.173   0.349   3.492
 1906HOH     H1 5905   0.166   0.393   3.577
 1906HOH     H2 5906   0.262   0.313   3.491
 1907HOH      O 5907   4.038   2.575   1.495
 1907HOH     H1 5908   4.001   2.565   1.407
 1907HOH     H2 5909   3.984   2.519   1.550
 1908HOH      O 5910   2.362   0.909   3.901
 1908HOH     H1 5911   2.370   0.989   3.849
 1908HOH     H2 5912   2.291   0.860   3.859
 1909HOH      O 5913  -0.020   1.813   2.791
 1909HOH     H1 5914   0.070   1.841   2.809
 1909HOH     H2 5915  -0.028   1.729   2.836
 1910HOH      O 5916   0.159   0.685   2.225
 1910HOH     H1 5917   0.139   0.770   2.265
 1910HOH     H2 5918   0.078   0.660   2.180
 1911HOH      O 5919   2.566   1.709   3.814
 1911HOH     H1 5920   2.560   1.768   3.739
 1911HOH     H2 5921   2.619   1.636   3.784
 1912HOH      O 5922   0.264   3.120   2.834
 1912HOH     H1 5923   0.295   3.046   2.886
 1912HOH     H2 5924   0.308   3.111   2.750
 1913HOH      O 5925   1.207   1.199   3.122
 1913HOH     H1 5926   1.192   1.106   3.140
 1913HOH     H2 5927   1.218   1.204   3.027
 1914HOH      O 5928   3.627   1.917   3.324
 1914HOH     H1 5929   3.670   1.878   3.400
 1914HOH     H2 5930   3.668   2.004   3.316
 1915HOH      O 5931   3.628   0.381   1.820
 1915HOH     H1 5932   3.570   0.388   1.745
 1915HOH     H2 5933   3.701   0.328   1.788
 1916HOH      O 5934   1.000   1.483   3.681
 1916HOH     H1 5935   1.061   1.539   3.632
 1916HOH     H2 5936   1.055   1.410   3.710
 1917HOH      O 5937   2.322   0.436   2.790
 1917HOH     H1 5938   2.383   0.510   2.798
 1917HOH     H2 5939   2.336   0.404   2.701
 1918HOH      O 5940   2.460   2.695   1.062
 1918HOH     H1 5941   2.470   2.767   1.125
 1918HOH     H2 5942   2.397   2.727   0.998
 1919HOH      O 5943   0.424   1.253   0.740
 1919HOH     H1 5944   0.399   1.234   0.830
 1919HOH     H2 5945   0.349   1.224   0.688
 1920HOH      O 5946   2.060   3.000   3.697
 1920HOH     H1 5947   2.084   3.028   3.609
 1920HOH     H2 5948   2.141   2.968   3.735
 1921HOH      O 5949   0.914   2.130   2.151
 1921HOH     H1 5950   0.913   2.184   2.230
 1921HOH     H2 5951   0.961   2.051   2.177
 1922HOH      O 5952   3.635   1.548   0.465
 1922HOH     H1 5953   3.668   1.537   0.375
 1922HOH     H2 5954   3.606   1.639   0.469
 1923HOH      O 5955   1.014   1.996   2.935
 1923HOH     H1 5956   0.964   1.982   3.016
 1923HOH     H2 5957   1.091   1.939   2.945
 1924HOH      O 5958   0.883   2.665   0.122
 1924HOH     H1 5959   0.967   2.693   0.084
 1924HOH     H2 5960   0.847   2.604   0.058
 1925HOH      O 5961   0.392   1.780   0.833
 1925HOH     H1 5962   0.349   1.806   0.752
 1925HOH     H2 5963   0.331   1.806   0.902
 1926HOH      O 5964   3.078   1.590   3.078
 1926HOH     H1 5965   2.998   1.549   3.044
 1926HOH     H2 5966   3.125   1.620   3.000
 1927HOH      O 5967   2.904   3.796   2.095
 1927HOH     H1 5968   2.967   3.797   2.023
 1927HOH     H2 5969   2.958   3.797   2.174
 1928HOH      O 5970   2.971   0.016   2.272
 1928HOH     H1 5971   3.005   0.059   2.350
 1928HOH     H2 5972   3.022  -0.065   2.265
 1929HOH      O 5973   0.124   3.580   1.437
 1929HOH     H1 5974   0.194   3.639   1.462
 1929HOH     H2 5975   0.083   3.622   1.361
 1930HOH      O 5976   1.872   3.545   3.149
 1930HOH     H1 5977   1.824   3.568   3.228
 1930HOH     H2 5978   1.916   3.462   3.171
 1931HOH      O 5979   3.408   2.910   3.813
 1931HOH     H1 5980   3.333   2.955   3.851
 1931HOH     H2 5981   3.421   2.833   3.869
 1932HOH      O 5982   2.996   0.753   3.503
 1932HOH     H1 5983   2.922   0.734   3.560
 1932HOH     H2 5984   2.964   0.821   3.443
 1933HOH      O 5985   1.919   1.174   1.480
 1933HOH     H1 5986   1.974   1.147   1.406
 1933HOH     H2 5987   1.982   1.197   1.549
 1934HOH      O 5988   2.517   1.588   0.345
 1934HOH     H1 5989   2.581   1.521   0.319
 1934HOH     H2 5990   2.518   1.584   0.441
 1935HOH      O 5991   3.217   0.367   3.929
 1935HOH     H1 5992   3.237   0.296   3.990
 1935HOH     H2 5993   3.166   0.326   3.860
 1936HOH      O 5994   1.559   2.675   1.443
 1936HOH     H1 5995   1.606   2.737   1.388
 1936HOH     H2 5996   1.596   2.589   1.420
 1937HOH      O 5997   3.253   0.349   0.515
 1937HOH     H1 5998   3.231   0.348   0.608
 1937HOH     H2 5999   3.349   0.350   0.514
 1938HOH      O 6000   0.433   0.898   2.840
 1938HOH     H1 6001   0.393   0.822   2.882
 1938HOH     H2 6002   0.480   0.942   2.910
 1939HOH      O 6003   3.359   2.899   2.000
 1939HOH     H1 6004   3.435   2.955   1.982
 1939HOH     H2 6005   3.347   2.849   1.920
 1940HOH      O 6006   2.425   0.357   2.552
 1940HOH     H1 6007   2.447   0.265   2.538
 1940HOH     H2 6008   2.506   0.396   2.584
 1941HOH      O 6009   2.525   0.597   3.801
 1941HOH     H1 6010   2.528   0.589   3.896
 1941HOH     H2 6011   2.524   0.507   3.769
 1942HOH      O 6012   0.686   1.324   1.038
 1942HOH     H1 6013   0.681   1.257   1.107
 1942HOH     H2 6014   0.641   1.400   1.076
 1943HOH      O 6015   3.607   2.319   2.627
 1943HOH     H1 6016   3.534   2.326   2.565
 1943HOH     H2 6017   3.684   2.340   2.575
 1944HOH      O 6018   0.154   3.653   3.910
 1944HOH     H1 6019   0.189   3.595   3.842
 1944HOH     H2 6020   0.124   3.594   3.979
 1945HOH      O 6021   1.448   1.277   3.314
 1945HOH     H1 6022   1.517   1.312   3.257
 1945HOH     H2 6023   1.387   1.234   3.254
 1946HOH      O 6024   1.615   3.553   3.946
 1946HOH     H1 6025   1.681   3.622   3.954
 1946HOH     H2 6026   1.667   3.473   3.931
 1947HOH      O 6027   3.684   2.697   1.102
 1947HOH     H1 6028   3.765   2.699   1.051
 1947HOH     H2 6029   3.635   2.623   1.067
 1948HOH      O 6030   3.353   2.157   1.730
 1948HOH     H1 6031   3.441   2.172   1.764
 1948HOH     H2 6032   3.357   2.071   1.689
 1949HOH      O 6033   0.677   3.366   0.837
 1949HOH     H1 6034   0.759   3.326   0.808
 1949HOH     H2 6035   0.691   3.460   0.824
 1950HOH      O 6036   1.450   3.052   0.875
 1950HOH     H1 6037   1.526   2.994   0.880
 1950HOH     H2 6038   1.376   2.992   0.861
 1951HOH      O 6039   1.049   3.059   3.458
 1951HOH     H1 6040   1.024   3.122   3.391
 1951HOH     H2 6041   1.094   3.110   3.525
 1952HOH      O 6042   3.503   0.758   2.111
 1952HOH     H1 6043   3.537   0.688   2.168
 1952HOH     H2 6044   3.410   0.763   2.133
 1953HOH      O 6045   0.342   2.871   3.971
 1953HOH     H1 6046   0.366   2.962   3.989
 1953HOH     H2 6047   0.282   2.847   4.042
 1954HOH      O 6048   0.469   3.032   3.082
 1954HOH     H1 6049   0.442   2.941   3.094
 1954HOH     H2 6050   0.550   3.040   3.132
 1955HOH      O 6051   3.920   0.993   3.328
 1955HOH     H1 6052   3.950   1.084   3.327
 1955HOH     H2 6053   3.944   0.960   3.242
 1956HOH      O 6054   3.518   4.004   2.568
 1956HOH     H1 6055   3.552   3.946   2.500
 1956HOH     H2 6056   3.522   4.091   2.528
 1957HOH      O 6057   0.308   3.138   1.351
 1957HOH     H1 6058   0.309   3.233   1.335
 1957HOH     H2 6059   0.400   3.112   1.350
 1958HOH      O 6060   0.045   0.520   2.521
 1958HOH     H1 6061   0.007   0.476   2.597
 1958HOH     H2 6062   0.117   0.464   2.494
 1959HOH      O 6063   2.177   1.366   1.336
 1959HOH     H1 6064   2.113   1.327   1.277
 1959HOH     H2 6065   2.250   1.391   1.279
 1960HOH      O 6066   2.493   1.152   0.216
 1960HOH     H1 6067   2.406   1.178   0.186
 1960HOH     H2 6068   2.530   1.104   0.142
 1961HOH      O 6069   3.467   3.986   0.669
 1961HOH     H1 6070   3.554   3.951   0.684
 1961HOH     H2 6071   3.413   3.910   0.649
 1962HOH      O 6072   3.033   3.603   0.041
 1962HOH     H1 6073   3.044   3.611  -0.054
 1962HOH     H2 6074   3.039   3.509   0.057
 1963HOH      O 6075   3.609   3.334   1.900
 1963HOH     H1 6076   3.559   3.404   1.859
 1963HOH     H2 6077   3.695   3.340   1.859
 1964HOH      O 6078   2.525   2.545   2.251
 1964HOH     H1 6079   2.487   2.567   2.337
 1964HOH     H2 6080   2.619   2.548   2.265
 1965HOH      O 6081   3.928   1.135   0.199
 1965HOH     H1 6082   4.017   1.168   0.213
 1965HOH     H2 6083   3.929   1.047   0.237
 1966HOH      O 6084   1.061   2.927   1.431
 1966HOH     H1 6085   0.973   2.895   1.451
 1966HOH     H2 6086   1.113   2.902   1.507
 1967HOH      O 6087   0.781   0.175   0.965
 1967HOH     H1 6088   0.788   0.138   0.877
 1967HOH     H2 6089   0.855   0.137   1.013
 1968HOH      O 6090   3.908   3.634   0.857
 1968HOH     H1 6091   3.990   3.607   0.898
 1968HOH     H2 6092   3.863   3.552   0.838
 1969HOH      O 6093   2.875   0.534   0.819
 1969HOH     H1 6094   2.881   0.438   0.820
 1969HOH     H2 6095   2.894   0.560   0.909
 1970HOH      O 6096   3.682   2.990   1.103
 1970HOH     H1 6097   3.653   3.006   1.013
 1970HOH     H2 6098   3.718   2.902   1.102
 1971HOH      O 6099   0.092   4.007   0.180
 1971HOH     H1 6100   0.096   3.966   0.094
 1971HOH     H2 6101   0.044   3.944   0.234
 1972HOH      O 6102   0.088   0.556   0.221
 1972HOH     H1 6103   0.060   0.556   0.312
 1972HOH     H2 6104   0.143   0.477   0.213
 1973HOH      O 6105   3.885   1.980   0.382
 1973HOH     H1 6106   3.975   1.978   0.415
 1973HOH     H2 6107   3.885   2.049   0.316
 1974HOH      O 6108   1.063   2.538   1.004
 1974HOH     H1 6109   1.108   2.619   0.982
 1974HOH     H2 6110   1.126   2.490   1.059
 1975HOH      O 6111   3.951   3.413   3.338
 1975HOH     H1 6112   3.884   3.471   3.372
 1975HOH     H2 6113   3.939   3.415   3.243
 1976HOH      O 6114   2.374   0.800   0.948
 1976HOH     H1 6115   2.414   0.813   0.862
 1976HOH     H2 6116   2.349   0.708   0.949
 1977HOH      O 6117   2.133   0.814   0.594
 1977HOH     H1 6118   2.113   0.899   0.554
 1977HOH     H2 6119   2.087   0.751   0.539
 1978HOH      O 6120   0.683   2.276   2.614
 1978HOH     H1 6121   0.594   2.256   2.586
 1978HOH     H2 6122   0.734   2.278   2.533
 1979HOH      O 6123   1.375   3.244   3.677
 1979HOH     H1 6124   1.409   3.169   3.628
 1979HOH     H2 6125   1.446   3.267   3.738
 1980HOH      O 6126   3.029   2.027   2.124
 1980HOH     H1 6127   2.945   1.991   2.096
 1980HOH     H2 6128   3.012   2.058   2.213
 1981HOH      O 6129   1.853   0.211   0.707
 1981HOH     H1 6130   1.942   0.207   0.742
 1981HOH     H2 6131   1.846   0.136   0.649
 1982HOH      O 6132   3.516   1.516   0.921
 1982HOH     H1 6133   3.594   1.565   0.947
 1982HOH     H2 6134   3.443   1.566   0.957
 1983HOH      O 6135   0.856   1.379   2.826
 1983HOH     H1 6136   0.768   1.405   2.853
 1983HOH     H2 6137   0.907   1.378   2.907
 1984HOH      O 6138   2.844   3.768   0.825
 1984HOH     H1 6139   2.849   3.720   0.742
 1984HOH     H2 6140   2.925   3.746   0.871
 1985HOH      O 6141   2.908   3.185   2.559
 1985HOH     H1 6142   2.982   3.161   2.616
 1985HOH     H2 6143   2.840   3.215   2.619
 1986HOH      O 6144   2.151   0.604   0.787
 1986HOH     H1 6145   2.169   0.517   0.751
 1986HOH     H2 6146   2.156   0.663   0.712
 1987HOH      O 6147   3.985   1.766   2.510
 1987HOH     H1 6148   3.980   1.808   2.595
 1987HOH     H2 6149   4.075   1.781   2.480
 1988HOH      O 6150   3.794   2.114   2.140
 1988HOH     H1 6151   3.875   2.069   2.112
 1988HOH     H2 6152   3.785   2.091   2.232
 1989HOH      O 6153   2.890   3.290   2.985
 1989HOH     H1 6154   2.975   3.248   2.996
 1989HOH     H2 6155   2.863   3.268   2.895
 1990HOH      O 6156   0.439   0.577   0.942
 1990HOH     H1 6157   0.357   0.626   0.945
 1990HOH     H2 6158   0.496   0.630   0.886
 1991HOH      O 6159   0.176   2.605   2.462
 1991HOH     H1 6160   0.215   2.679   2.415
 1991HOH     H2 6161   0.095   2.587   2.414
 1992HOH      O 6162   2.914   0.920   0.679
 1992HOH     H1 6163   2.854   0.961   0.617
 1992HOH     H2 6164   2.971   0.991   0.707
 1993HOH      O 6165   1.031   2.507   3.981
 1993HOH     H1 6166   1.053   2.559   3.903
 1993HOH     H2 6167   1.114   2.491   4.024
 1994HOH      O 6168   2.654   3.437   1.557
 1994HOH     H1 6169   2.712   3.360   1.558
 1994HOH     H2 6170   2.612   3.436   1.643
 1995HOH      O 6171   0.460   3.175   0.500
 1995HOH     H1 6172   0.498   3.112   0.439
 1995HOH     H2 6173   0.464   3.258   0.454
 1996HOH      O 6174   1.136   0.531   1.242
 1996HOH     H1 6175   1.205   0.580   1.199
 1996HOH     H2 6176   1.154   0.541   1.336
 1997HOH      O 6177   0.976   1.080   1.300
 1997HOH     H1 6178   0.993   1.036   1.216
 1997HOH     H2 6179   1.062   1.085   1.342
 1998HOH      O 6180   3.855   2.759   3.871
 1998HOH     H1 6181   3.816   2.767   3.784
 1998HOH     H2 6182   3.882   2.668   3.877
 1999HOH      O 6183   3.273   1.123   3.143
 1999HOH     H1 6184   3.196   1.086   3.186
 1999HOH     H2 6185   3.344   1.112   3.207
 2000HOH      O 6186   3.498   2.155   2.254
 2000HOH     H1 6187   3.483   2.207   2.333
 2000HOH     H2 6188   3.424   2.094   2.251
 2001HOH      O 6189   1.760   2.157   2.928
 2001HOH     H1 6190   1.747   2.234   2.873
 2001HOH     H2 6191   1.697   2.167   2.999
 2002HOH      O 6192   0.723   1.770   2.825
 2002HOH     H1 6193   0.702   1.731   2.741
 2002HOH     H2 6194   0.757   1.857   2.803
 2003HOH      O 6195   2.670   3.677   0.252
 2003HOH     H1 6196   2.650   3.771   0.245
 2003HOH     H2 6197   2.765   3.674   0.261
 2004HOH      O 6198   0.453   3.539   3.366
 2004HOH     H1 6199   0.453   3.464   3.306
 2004HOH     H2 6200   0.362   3.545   3.396
 2005HOH      O 6201   3.029   2.896   1.553
 2005HOH     H1 6202   2.941   2.889   1.515
 2005HOH     H2 6203   3.035   2.822   1.613
 2006HOH      O 6204   1.870   3.567   1.897
 2006HOH     H1 6205   1.962   3.565   1.871
 2006HOH     H2 6206   1.821   3.551   1.816
 2007HOH      O 6207   2.732   0.111   2.352
 2007HOH     H1 6208   2.685   0.145   2.275
 2007HOH     H2 6209   2.814   0.075   2.316
 2008HOH      O 6210   3.383   2.323   2.001
 2008HOH     H1 6211   3.311   2.382   2.026
 2008HOH     H2 6212   3.339   2.247   1.965
 2009HOH      O 6213   3.160   1.613   0.052
 2009HOH     H1 6214   3.084   1.596  -0.004
 2009HOH     H2 6215   3.168   1.709   0.051
 2010HOH      O 6216   4.022   2.905   3.538
 2010HOH     H1 6217   3.934   2.881   3.567
 2010HOH     H2 6218   4.019   3.001   3.529
 2011HOH      O 6219   2.926   0.984   3.339
 2011HOH     H1 6220   2.946   1.070   3.302
 2011HOH     H2 6221   2.844   0.997   3.387
 2012HOH      O 6222   1.539   1.812   1.225
 2012HOH     H1 6223   1.444   1.818   1.232
 2012HOH     H2 6224   1.563   1.740   1.283
 2013HOH      O 6225   0.230   2.167   0.748
 2013HOH     H1 6226   0.273   2.193   0.830
 2013HOH     H2 6227   0.158   2.230   0.738
 2014HOH      O 6228   3.706   2.473   0.785
 2014HOH     H1 6229   3.662   2.389   0.778
 2014HOH     H2 6230   3.760   2.478   0.706
 2015HOH      O 6231   1.148   2.802   4.052
 2015HOH     H1 6232   1.179   2.891   4.033
 2015HOH     H2 6233   1.089   2.782   3.980
 2016HOH      O 6234   0.372   2.317   3.125
 2016HOH     H1 6235   0.291   2.298   3.079
 2016HOH     H2 6236   0.432   2.247   3.098
 2017HOH      O 6237   3.080   2.138   0.886
 2017HOH     H1 6238   3.158   2.150   0.831
 2017HOH     H2 6239   3.073   2.220   0.936
 2018HOH      O 6240   3.317   2.032   0.595
 2018HOH     H1 6241   3.390   2.071   0.547
 2018HOH     H2 6242   3.245   2.096   0.586
 2019HOH      O 6243   2.904   1.229   3.878
 2019HOH     H1 6244   2.927   1.266   3.792
 2019HOH     H2 6245   2.822   1.273   3.901
 2020HOH      O 6246   2.727   1.383   0.046
 2020HOH     H1 6247   2.644   1.407   0.005
 2020HOH     H2 6248   2.712   1.397   0.140
 2021HOH      O 6249   2.409   1.865   2.899
 2021HOH     H1 6250   2.456   1.935   2.853
 2021HOH     H2 6251   2.390   1.801   2.831
 2022HOH      O 6252   1.634   0.332   1.893
 2022HOH     H1 6253   1.585   0.341   1.975
 2022HOH     H2 6254   1.694   0.259   1.909
 2023HOH      O 6255   1.997   0.421   3.243
 2023HOH     H1 6256   1.996   0.373   3.160
 2023HOH     H2 6257   2.067   0.381   3.294
 2024HOH      O 6258   3.561   3.912   3.021
 2024HOH     H1 6259   3.572   3.827   2.980
 2024HOH     H2 6260   3.639   3.962   2.995
 2025HOH      O 6261   0.577   0.117   1.448
 2025HOH     H1 6262   0.640   0.187   1.428
 2025HOH     H2 6263   0.541   0.142   1.533
 2026HOH      O 6264   3.569   1.400   1.475
 2026HOH     H1 6265   3.525   1.336   1.419
 2026HOH     H2 6266   3.504   1.469   1.488
 2027HOH      O 6267   3.075   1.555   1.173
 2027HOH     H1 6268   3.097   1.579   1.263
 2027HOH     H2 6269   3.012   1.621   1.145
 2028HOH      O 6270   2.209   3.504   1.912
 2028HOH     H1 6271   2.286   3.561   1.916
 2028HOH     H2 6272   2.197   3.487   1.819
 2029HOH      O 6273   0.545   1.882   3.758
 2029HOH     H1 6274   0.556   1.811   3.695
 2029HOH     H2 6275   0.531   1.960   3.704
 2030HOH      O 6276   3.169   0.847   1.128
 2030HOH     H1 6277   3.215   0.824   1.209
 2030HOH     H2 6278   3.100   0.907   1.156
 2031HOH      O 6279   1.341   3.457   3.918
 2031HOH     H1 6280   1.422   3.509   3.923
 2031HOH     H2 6281   1.371   3.366   3.915
 2032HOH      O 6282   3.920   1.843   1.725
 2032HOH     H1 6283   3.955   1.756   1.743
 2032HOH     H2 6284   3.845   1.852   1.784
 2033HOH      O 6285   2.208   2.912   0.173
 2033HOH     H1 6286   2.240   2.847   0.110
 2033HOH     H2 6287   2.216   2.995   0.127
 2034HOH      O 6288   3.010   1.391   0.200
 2034HOH     H1 6289   3.019   1.447   0.123
 2034HOH     H2 6290   2.925   1.416   0.237
 2035HOH      O 6291   0.620   3.499   3.020
 2035HOH     H1 6292   0.622   3.449   3.102
 2035HOH     H2 6293   0.532   3.486   2.986
 2036HOH      O 6294   0.204   0.953   2.341
 2036HOH     H1 6295   0.168   1.042   2.332
 2036HOH     H2 6296   0.161   0.917   2.418
 2037HOH      O 6297   0.558   2.933   0.383
 2037HOH     H1 6298   0.540   2.907   0.293
 2037HOH     H2 6299   0.646   2.899   0.401
 2038HOH      O 6300   2.699   2.981   3.196
 2038HOH     H1 6301   2.775   3.011   3.246
 2038HOH     H2 6302   2.666   3.060   3.154
 2039HOH      O 6303   2.778   0.847   2.225
 2039HOH     H1 6304   2.851   0.797   2.262
 2039HOH     H2 6305   2.706   0.832   2.285
 2040HOH      O 6306   2.984   3.981   2.953
 2040HOH     H1 6307   2.987   4.076   2.937
 2040HOH     H2 6308   2.900   3.968   2.997
 2041HOH      O 6309   0.305   2.411   1.698
 2041HOH     H1 6310   0.392   2.384   1.669
 2041HOH     H2 6311   0.312   2.418   1.793
 2042HOH      O 6312   0.562   2.127   1.180
 2042HOH     H1 6313   0.631   2.065   1.204
 2042HOH     H2 6314   0.508   2.134   1.259
 2043HOH      O 6315   0.418   1.450   3.764
 2043HOH     H1 6316   0.459   1.407   3.688
 2043HOH     H2 6317   0.492   1.483   3.815
 2044HOH      O 6318   3.790   2.376   1.968
 2044HOH     H1 6319   3.770   2.444   2.033
 2044HOH     H2 6320   3.880   2.397   1.940
 2045HOH      O 6321   1.044   1.503   2.031
 2045HOH     H1 6322   1.041   1.423   1.979
 2045HOH     H2 6323   1.098   1.480   2.106
 2046HOH      O 6324   1.603   0.481   3.157
 2046HOH     H1 6325   1.592   0.435   3.074
 2046HOH     H2 6326   1.698   0.489   3.168
 2047HOH      O 6327   3.935   3.553   3.725
 2047HOH     H1 6328   4.016   3.604   3.730
 2047HOH     H2 6329   3.899   3.557   3.813
 2048HOH      O 6330  -0.015   0.608   1.454
 2048HOH     H1 6331  -0.050   0.610   1.544
 2048HOH     H2 6332   0.076   0.637   1.463
 2049HOH      O 6333   2.676   3.778   2.383
 2049HOH     H1 6334   2.678   3.841   2.312
 2049HOH     H2 6335   2.760   3.732   2.378
 2050HOH      O 6336   2.899   2.541   1.976
 2050HOH     H1 6337   2.980   2.494   1.957
 2050HOH     H2 6338   2.913   2.578   2.064
 2051HOH      O 6339   1.123   3.864   1.754
 2051HOH     H1 6340   1.119   3.959   1.757
 2051HOH     H2 6341   1.113   3.843   1.661
 2052HOH      O 6342   0.463   0.971   1.202
 2052HOH     H1 6343   0.469   0.960   1.107
 2052HOH     H2 6344   0.540   1.023   1.225
 2053HOH      O 6345   3.407   2.895   2.380
 2053HOH     H1 6346   3.359   2.854   2.452
 2053HOH     H2 6347   3.427   2.822   2.321
 2054HOH      O 6348   1.214   0.942   3.187
 2054HOH     H1 6349   1.294   0.890   3.188
 2054HOH     H2 6350   1.183   0.940   3.277
 2055HOH      O 6351   1.867   3.029   3.435
 2055HOH     H1 6352   1.828   3.116   3.435
 2055HOH     H2 6353   1.962   3.045   3.438
 2056HOH      O 6354   3.082   1.806   1.730
 2056HOH     H1 6355   3.128   1.729   1.764
 2056HOH     H2 6356   3.104   1.807   1.637
 2057HOH      O 6357   3.392   2.482   1.741
 2057HOH     H1 6358   3.400   2.506   1.649
 2057HOH     H2 6359   3.439   2.399   1.749
 2058HOH      O 6360   0.832   3.222   1.785
 2058HOH     H1 6361   0.887   3.299   1.801
 2058HOH     H2 6362   0.819   3.222   1.690
 2059HOH      O 6363   1.978   0.663   0.409
 2059HOH     H1 6364   1.950   0.587   0.461
 2059HOH     H2 6365   1.993   0.628   0.322
 2060HOH      O 6366   1.778   0.714   0.912
 2060HOH     H1 6367   1.778   0.625   0.946
 2060HOH     H2 6368   1.802   0.706   0.820
 2061HOH      O 6369   0.934   2.103   3.886
 2061HOH     H1 6370   0.892   2.017   3.878
 2061HOH     H2 6371   1.019   2.092   3.845
 2062HOH      O 6372   0.499   3.642   2.075
 2062HOH     H1 6373   0.432   3.693   2.120
 2062HOH     H2 6374   0.521   3.694   1.998
 2063HOH      O 6375   3.689   0.788   2.708
 2063HOH     H1 6376   3.709   0.695   2.704
 2063HOH     H2 6377   3.603   0.793   2.749
 2064HOH      O 6378   1.020   3.760   2.421
 2064HOH     H1 6379   1.072   3.785   2.344
 2064HOH     H2 6380   1.085   3.729   2.484
 2065HOH      O 6381   2.799   2.030   1.804
 2065HOH     H1 6382   2.849   1.949   1.802
 2065HOH     H2 6383   2.761   2.033   1.892
 2066HOH      O 6384   0.993   1.080   3.795
 2066HOH     H1 6385   0.976   1.087   3.889
 2066HOH     H2 6386   0.918   1.121   3.753
 2067HOH      O 6387   2.045   1.416   2.460
 2067HOH     H1 6388   1.952   1.408   2.480
 2067HOH     H2 6389   2.056   1.508   2.435
 2068HOH      O 6390   3.913   2.375   3.535
 2068HOH     H1 6391   3.875   2.354   3.620
 2068HOH     H2 6392   4.007   2.380   3.551
 2069HOH      O 6393   3.743   0.932   0.777
 2069HOH     H1 6394   3.734   0.937   0.872
 2069HOH     H2 6395   3.658   0.962   0.743
 2070HOH      O 6396   2.662   1.444   0.849
 2070HOH     H1 6397   2.593   1.497   0.888
 2070HOH     H2 6398   2.734   1.447   0.912
 2071HOH      O 6399   3.536   3.072   1.815
 2071HOH     H1 6400   3.552   3.146   1.874
 2071HOH     H2 6401   3.520   3.112   1.730
 2072HOH      O 6402   3.697   3.995   3.914
 2072HOH     H1 6403   3.746   4.060   3.863
 2072HOH     H2 6404   3.688   3.920   3.854
 2073HOH      O 6405   1.786   3.304   3.431
 2073HOH     H1 6406   1.863   3.314   3.375
 2073HOH     H2 6407   1.728   3.376   3.405
 2074HOH      O 6408   2.220   3.727   2.470
 2074HOH     H1 6409   2.207   3.641   2.511
 2074HOH     H2 6410   2.308   3.722   2.433
 2075HOH      O 6411   2.374   3.612   3.703
 2075HOH     H1 6412   2.388   3.519   3.720
 2075HOH     H2 6413   2.383   3.620   3.608
 2076HOH      O 6414   2.991   2.761   3.854
 2076HOH     H1 6415   2.896   2.760   3.864
 2076HOH     H2 6416   3.008   2.829   3.788
 2077HOH      O 6417   2.136   2.269   1.685
 2077HOH     H1 6418   2.113   2.347   1.736
 2077HOH     H2 6419   2.189   2.216   1.744
 2078HOH      O 6420   0.088   1.263   1.767
 2078HOH     H1 6421   0.046   1.267   1.681
 2078HOH     H2 6422   0.167   1.210   1.752
 2079HOH      O 6423   2.777   1.812   1.414
 2079HOH     H1 6424   2.778   1.905   1.389
 2079HOH     H2 6425   2.770   1.765   1.332
 2080HOH      O 6426   3.108   0.466   2.586
 2080HOH     H1 6427   3.196   0.489   2.616
 2080HOH     H2 6428   3.059   0.548   2.591
 2081HOH      O 6429   1.204   0.188   3.820
 2081HOH     H1 6430   1.252   0.106   3.831
 2081HOH     H2 6431   1.243   0.227   3.741
 2082HOH      O 6432   1.115   3.794   2.161
 2082HOH     H1 6433   1.203   3.831   2.169
 2082HOH     H2 6434   1.061   3.867   2.131
 2083HOH      O 6435   3.588   3.858   3.330
 2083HOH     H1 6436   3.532   3.793   3.373
 2083HOH     H2 6437   3.527   3.913   3.282
 2084HOH      O 6438   3.003   1.292   2.190
 2084HOH     H1 6439   2.945   1.261   2.121
 2084HOH     H2 6440   2.952   1.358   2.236
 2085HOH      O 6441   0.629   0.683   2.405
 2085HOH     H1 6442   0.716   0.709   2.375
 2085HOH     H2 6443   0.570   0.710   2.335
 2086HOH      O 6444   1.853   2.364   0.519
 2086HOH     H1 6445   1.907   2.413   0.581
 2086HOH     H2 6446   1.915   2.330   0.455
 2087HOH      O 6447   1.462   2.515   0.504
 2087HOH     H1 6448   1.514   2.440   0.474
 2087HOH     H2 6449   1.526   2.586   0.511
 2088HOH      O 6450   3.586   1.372   3.038
 2088HOH     H1 6451   3.560   1.327   2.957
 2088HOH     H2 6452   3.653   1.435   3.009
 2089HOH      O 6453   0.518   3.029   0.704
 2089HOH     H1 6454   0.503   3.093   0.634
 2089HOH     H2 6455   0.484   3.071   0.783
 2090HOH      O 6456   0.958   1.987   0.711
 2090HOH     H1 6457   0.954   1.910   0.768
 2090HOH     H2 6458   0.866   2.008   0.693
 2091HOH      O 6459   0.289   1.941   3.264
 2091HOH     H1 6460   0.203   1.921   3.299
 2091HOH     H2 6461   0.300   2.035   3.277
 2092HOH      O 6462   3.274   1.092   1.915
 2092HOH     H1 6463   3.266   1.137   1.999
 2092HOH     H2 6464   3.364   1.060   1.913
 2093HOH      O 6465   1.339   3.266   1.701
 2093HOH     H1 6466   1.350   3.173   1.717
 2093HOH     H2 6467   1.347   3.306   1.788
 2094HOH      O 6468   2.948   3.720   0.287
 2094HOH     H1 6469   2.988   3.691   0.205
 2094HOH     H2 6470   2.973   3.812   0.295
 2095HOH      O 6471   3.219   0.126   1.883
 2095HOH     H1 6472   3.218   0.203   1.940
 2095HOH     H2 6473   3.127   0.100   1.877
 2096HOH      O 6474   1.075   3.533   3.916
 2096HOH     H1 6475   1.057   3.619   3.954
 2096HOH     H2 6476   1.170   3.525   3.921
 2097HOH      O 6477   1.695   0.595   2.708
 2097HOH     H1 6478   1.675   0.685   2.684
 2097HOH     H2 6479   1.761   0.567   2.643
 2098HOH      O 6480   3.402   1.109   2.887
 2098HOH     H1 6481   3.362   1.138   2.969
 2098HOH     H2 6482   3.342   1.140   2.819
 2099HOH      O 6483   2.393   3.474   0.559
 2099HOH     H1 6484   2.383   3.396   0.613
 2099HOH     H2 6485   2.460   3.526   0.603
 2100HOH      O 6486   2.095   3.464   1.467
 2100HOH     H1 6487   2.014   3.511   1.446
 2100HOH     H2 6488   2.142   3.524   1.525
 2101HOH      O 6489   1.368   0.857   2.817
 2101HOH     H1 6490   1.405   0.856   2.729
 2101HOH     H2 6491   1.284   0.811   2.809
 2102HOH      O 6492   0.992   2.999   3.750
 2102HOH     H1 6493   1.027   3.074   3.701
 2102HOH     H2 6494   0.900   2.996   3.727
 2103HOH      O 6495   1.310   2.645   3.569
 2103HOH     H1 6496   1.263   2.571   3.608
 2103HOH     H2 6497   1.398   2.612   3.554
 2104HOH      O 6498   3.987   3.282   2.423
 2104HOH     H1 6499   3.931   3.208   2.400
 2104HOH     H2 6500   3.976   3.291   2.518
 2105HOH      O 6501   1.846   3.132   3.813
 2105HOH     H1 6502   1.925   3.098   3.772
 2105HOH     H2 6503   1.829   3.215   3.768
 2106HOH      O 6504   0.611   3.600  -0.007
 2106HOH     H1 6505   0.536   3.541   0.000
 2106HOH     H2 6506   0.675   3.566   0.055
 2107HOH      O 6507   3.344   1.927   3.877
 2107HOH     H1 6508   3.256   1.922   3.914
 2107HOH     H2 6509   3.346   2.010   3.830
 2108HOH      O 6510   3.556   0.594   0.098
 2108HOH     H1 6511   3.517   0.563   0.016
 2108HOH     H2 6512   3.498   0.560   0.166
 2109HOH      O 6513   3.327   0.962   3.513
 2109HOH     H1 6514   3.348   1.032   3.451
 2109HOH     H2 6515   3.382   0.889   3.486
 2110HOH      O 6516   3.672   1.677   1.633
 2110HOH     H1 6517   3.755   1.672   1.585
 2110HOH     H2 6518   3.675   1.603   1.693
 2111HOH      O 6519   2.148   1.760   1.374
 2111HOH     H1 6520   2.137   1.834   1.433
 2111HOH     H2 6521   2.085   1.695   1.405
   4.02727   4.02727   4.02727   0.00000   0.00000   0.00000   0.00000   0.00000   0.00000
