Generated with MDTraj, t= 1246.0
 6521
    1MOL     O1    1   2.253   2.359   0.862
    1MOL     O2    2   2.133   2.439   1.019
    1MOL     N1    3   2.216   2.359   0.979
    1MOL     C1    4   2.247   2.243   1.071
    1MOL     C2    5   2.306   2.123   1.024
    1MOL     C3    6   2.212   2.249   1.206
    1MOL     C4    7   2.321   2.013   1.116
    1MOL     C5    8   2.235   2.142   1.293
    1MOL     C6    9   2.285   2.021   1.248
    1MOL     C7   10   2.378   1.889   1.064
    1MOL     O3   11   2.467   1.887   0.979
    1MOL     O4   12   2.330   1.782   1.091
    1MOL     H1   13   2.334   2.108   0.920
    1MOL     H2   14   2.168   2.341   1.244
    1MOL     H3   15   2.221   2.158   1.400
    1MOL     H4   16   2.295   1.933   1.311
    2OCB     C1   17   2.339   2.940   2.234
    2OCB     C2   18   2.417   3.038   1.983
    2OCB     C3   19   2.289   3.064   2.185
    2OCB     C4   20   2.436   2.875   2.161
    2OCB     C5   21   2.475   2.921   2.035
    2OCB     C6   22   2.325   3.115   2.057
    2OCB     O1   23   2.439   3.068   1.852
    2OCB     C7   24   2.258   3.241   1.997
    2OCB     C8   25   2.335   3.034   1.758
    2OCB     O2   26   2.257   3.148   1.718
    2OCB     C9   27   2.141   3.162   1.784
    2OCB    C10   28   2.131   3.202   1.917
    2OCB    C11   29   2.003   3.186   1.980
    2OCB    C12   30   2.028   3.118   1.715
    2OCB    C13   31   1.888   3.148   1.914
    2OCB    C14   32   1.906   3.116   1.775
    2OCB     O3   33   1.803   3.073   1.695
    2OCB    C15   34   1.750   3.144   1.976
    2OCB    C16   35   1.720   2.998   2.014
    2OCB    C17   36   1.642   2.914   1.925
    2OCB    C18   37   1.742   2.946   1.711
    2OCB     O4   38   1.621   2.956   1.791
    2OCB     O5   39   2.492   2.750   2.196
    2OCB    C19   40   2.292   2.872   2.370
    2OCB    C20   41   2.179   2.777   2.345
    2OCB     O6   42   2.340   2.595   2.300
    2OCB    C21   43   2.209   2.643   2.316
    2OCB    C22   44   1.639   2.778   1.956
    2OCB    C23   45   1.694   2.730   2.071
    2OCB    C24   46   2.109   2.556   2.283
    2OCB    C25   47   1.979   2.598   2.271
    2OCB     O7   48   1.701   2.596   2.099
    2OCB     O8   49   1.895   2.502   2.227
    2OCB    C26   50   1.833   2.529   2.093
    2OCB    C27   51   2.049   2.821   2.331
    2OCB    C28   52   1.946   2.730   2.304
    2OCB    C29   53   1.763   2.950   2.133
    2OCB    C30   54   1.800   2.769   2.301
    2OCB    C31   55   1.744   2.819   2.167
    2OCB    C32   56   2.402   2.635   2.178
    2OCB    C33   57   1.729   3.251   2.089
    2OCB    C34   58   1.578   3.257   2.113
    2OCB    C35   59   1.544   3.370   2.202
    2OCB     O9   60   1.474   3.349   2.301
    2OCB    C36   61   2.228   3.365   2.079
    2OCB    C37   62   2.344   3.398   2.172
    2OCB    C38   63   2.317   3.516   2.263
    2OCB    O10   64   2.351   3.628   2.227
    2OCB    C39   65   2.265   2.981   2.480
    2OCB    C40   66   2.389   3.070   2.512
    2OCB    C41   67   2.384   3.123   2.659
    2OCB    O11   68   2.454   3.073   2.746
    2OCB    C42   69   1.773   2.856   2.424
    2OCB    C43   70   1.631   2.896   2.448
    2OCB    C44   71   1.606   2.932   2.594
    2OCB    O12   72   1.617   2.846   2.685
    2OCB    C45   73   2.397   2.977   1.634
    2OCB    C46   74   2.496   2.847   1.396
    2OCB    C47   75   2.326   2.985   1.510
    2OCB    C48   76   2.512   2.897   1.632
    2OCB    C49   77   2.561   2.832   1.520
    2OCB    C50   78   2.378   2.924   1.394
    2OCB    C51   79   2.473   2.516   2.104
    2OCB    C52   80   2.604   2.310   1.968
    2OCB    C53   81   2.420   2.390   2.109
    2OCB    C54   82   2.588   2.541   2.034
    2OCB    C55   83   2.653   2.440   1.971
    2OCB    C56   84   2.480   2.283   2.045
    2OCB    C57   85   1.821   2.394   2.024
    2OCB    C58   86   1.773   2.150   1.892
    2OCB    C59   87   1.714   2.379   1.937
    2OCB    C60   88   1.914   2.289   2.038
    2OCB    C61   89   1.881   2.168   1.979
    2OCB    C62   90   1.692   2.258   1.868
    2OCB    C63   91   1.704   2.890   1.575
    2OCB    C64   92   1.665   2.751   1.336
    2OCB    C65   93   1.610   2.786   1.568
    2OCB    C66   94   1.772   2.937   1.458
    2OCB    C67   95   1.752   2.865   1.339
    2OCB    C68   96   1.592   2.715   1.446
    2OCB    O13   97   2.763   2.472   1.900
    2OCB    O14   98   1.966   2.060   2.001
    2OCB    O15   99   1.589   2.251   1.774
    2OCB    O16  100   2.675   2.754   1.521
    2OCB    O17  101   2.314   2.928   1.281
    2OCB    O18  102   1.519   2.600   1.442
    2OCB    O19  103   1.831   2.883   1.232
    2OCB    C69  104   2.080   2.053   2.074
    2OCB    C70  105   2.308   2.061   2.228
    2OCB    C71  106   2.196   2.097   2.020
    2OCB    C72  107   2.078   2.017   2.209
    2OCB    C73  108   2.198   2.013   2.284
    2OCB    C74  109   2.315   2.101   2.094
    2OCB    O20  110   2.436   2.147   2.045
    2OCB    C75  111   2.746   2.719   1.629
    2OCB    C76  112   2.886   2.673   1.867
    2OCB    C77  113   2.853   2.796   1.666
    2OCB    C78  114   2.709   2.607   1.708
    2OCB    C79  115   2.781   2.585   1.830
    2OCB    C80  116   2.921   2.781   1.782
    2OCB    C81  117   1.521   2.361   1.726
    2OCB    C82  118   1.363   2.566   1.616
    2OCB    C83  119   1.398   2.396   1.782
    2OCB    C84  120   1.563   2.432   1.613
    2OCB    C85  121   1.483   2.529   1.554
    2OCB    C86  122   1.317   2.497   1.726
    2OCB    C87  123   1.182   2.527   1.794
    2OCB    O21  124   1.130   2.443   1.863
    2OCB    C88  125   2.044   3.318   1.171
    2OCB    O22  126   2.145   3.380   1.172
    2OCB    C89  127   3.041   2.871   1.815
    2OCB    O23  128   3.073   2.963   1.750
    2OCB    O24  129   1.554   3.486   2.159
    2OCB    O25  130   1.557   3.044   2.625
    2OCB    O26  131   2.327   3.229   2.673
    2OCB    C90  132   2.199   1.970   2.427
    2OCB    O27  133   2.300   1.980   2.502
    2OCB    O28  134   1.940   3.374   1.169
    2OCB    O29  135   1.132   2.637   1.795
    2OCB    O30  136   2.097   1.925   2.476
    2OCB    O31  137   3.096   2.862   1.926
    2OCB    O32  138   2.264   3.504   2.374
    2OCB    C91  139   2.187   2.980   1.257
    2OCB    C92  140   1.936   3.088   1.188
    2OCB    C93  141   2.070   2.899   1.259
    2OCB    C94  142   2.175   3.118   1.225
    2OCB    C95  143   2.050   3.170   1.185
    2OCB    C96  144   1.949   2.954   1.222
    2OCB    C97  145   2.073   2.757   1.306
    2OCB    C98  146   2.604   2.513   1.657
    2OCB    C99  147   2.198   2.151   1.875
    2OCB      C  148   1.693   2.404   1.539
    2OCB     H1  149   2.217   3.124   2.240
    2OCB     H2  150   2.544   2.863   1.973
    2OCB     H3  151   2.337   3.273   1.929
    2OCB     H4  152   2.264   2.966   1.807
    2OCB     H5  153   1.992   3.201   2.087
    2OCB     H6  154   2.040   3.085   1.612
    2OCB     H7  155   1.678   3.174   1.900
    2OCB     H8  156   1.820   2.876   1.746
    2OCB     H9  157   2.379   2.817   2.406
    2OCB    H10  158   1.612   2.698   1.888
    2OCB    H11  159   2.136   2.456   2.252
    2OCB    H12  160   1.897   2.595   2.033
    2OCB    H13  161   2.033   2.925   2.357
    2OCB    H14  162   1.821   3.009   2.203
    2OCB    H15  163   1.743   2.678   2.318
    2OCB    H16  164   2.329   2.668   2.102
    2OCB    H17  165   1.781   3.221   2.180
    2OCB    H18  166   1.772   3.345   2.053
    2OCB    H19  167   1.532   3.269   2.015
    2OCB    H20  168   1.551   3.159   2.153
    2OCB    H21  169   2.139   3.350   2.141
    2OCB    H22  170   2.209   3.452   2.015
    2OCB    H23  171   2.372   3.313   2.235
    2OCB    H24  172   2.430   3.420   2.108
    2OCB    H25  173   2.180   3.045   2.459
    2OCB    H26  174   2.236   2.923   2.568
    2OCB    H27  175   2.482   3.015   2.492
    2OCB    H28  176   2.382   3.149   2.437
    2OCB    H29  177   1.812   2.810   2.515
    2OCB    H30  178   1.834   2.946   2.419
    2OCB    H31  179   1.602   2.980   2.386
    2OCB    H32  180   1.569   2.810   2.423
    2OCB    H33  181   2.545   2.802   1.309
    2OCB    H34  182   2.227   3.030   1.501
    2OCB    H35  183   2.564   2.887   1.727
    2OCB    H36  184   2.652   2.230   1.913
    2OCB    H37  185   2.339   2.365   2.177
    2OCB    H38  186   2.634   2.639   2.047
    2OCB    H39  187   1.745   2.051   1.859
    2OCB    H40  188   1.638   2.457   1.931
    2OCB    H41  189   2.001   2.301   2.102
    2OCB    H42  190   1.671   2.689   1.247
    2OCB    H43  191   1.563   2.746   1.658
    2OCB    H44  192   1.848   3.013   1.469
    2OCB    H45  193   2.404   2.046   2.278
    2OCB    H46  194   1.983   1.981   2.247
    2OCB    H47  195   2.956   2.642   1.944
    2OCB    H48  196   2.873   2.883   1.604
    2OCB    H49  197   1.298   2.643   1.576
    2OCB    H50  198   1.369   2.340   1.870
    2OCB    H51  199   1.841   3.136   1.166
    2OCB    H52  200   2.269   3.172   1.218
    2OCB    H53  201   2.093   2.764   1.413
    2OCB    H54  202   1.988   2.699   1.269
    2OCB    H55  203   2.166   2.708   1.274
    2OCB    H56  204   2.509   2.554   1.692
    2OCB    H57  205   2.594   2.516   1.548
    2OCB    H58  206   2.614   2.410   1.693
    2OCB    H59  207   2.177   2.066   1.810
    2OCB    H60  208   2.122   2.228   1.858
    2OCB    H61  209   2.296   2.194   1.852
    2OCB    H62  210   1.782   2.459   1.570
    2OCB    H63  211   1.698   2.295   1.541
    2OCB    H64  212   1.693   2.434   1.434
    3Na+    Na+  213   2.550   2.915   0.930
    4Na+    Na+  214   0.561   1.164   0.056
    5Na+    Na+  215   2.035   3.990   0.194
    6Na+    Na+  216   2.337   3.421   2.591
    7Na+    Na+  217   3.203   3.082   1.927
    8Na+    Na+  218   0.052   2.272   1.746
    9Na+    Na+  219   1.538   3.170   2.830
   10Na+    Na+  220   2.191   3.703   2.465
   11Na+    Na+  221   2.787   3.890   2.939
   12HOH      O  222   3.835   1.914   1.653
   12HOH     H1  223   3.831   1.893   1.747
   12HOH     H2  224   3.756   1.965   1.636
   13HOH      O  225   1.288   1.171   1.648
   13HOH     H1  226   1.353   1.103   1.629
   13HOH     H2  227   1.339   1.242   1.687
   14HOH      O  228   1.671   1.512   0.157
   14HOH     H1  229   1.598   1.558   0.113
   14HOH     H2  230   1.749   1.555   0.123
   15HOH      O  231   2.959   0.568   2.307
   15HOH     H1  232   2.907   0.570   2.388
   15HOH     H2  233   3.018   0.643   2.315
   16HOH      O  234   3.931   0.736   1.621
   16HOH     H1  235   3.984   0.656   1.622
   16HOH     H2  236   3.848   0.710   1.583
   17HOH      O  237   2.299   2.405   0.083
   17HOH     H1  238   2.242   2.418   0.158
   17HOH     H2  239   2.378   2.456   0.104
   18HOH      O  240   3.918   2.562   4.057
   18HOH     H1  241   3.980   2.591   3.989
   18HOH     H2  242   3.901   2.471   4.035
   19HOH      O  243   3.730   0.695   0.280
   19HOH     H1  244   3.744   0.720   0.371
   19HOH     H2  245   3.798   0.630   0.262
   20HOH      O  246   3.089   3.388   0.369
   20HOH     H1  247   3.051   3.472   0.341
   20HOH     H2  248   3.025   3.353   0.431
   21HOH      O  249   0.346   1.948   0.144
   21HOH     H1  250   0.428   1.955   0.193
   21HOH     H2  251   0.299   1.875   0.186
   22HOH      O  252   2.992   2.157   0.662
   22HOH     H1  253   2.933   2.201   0.724
   22HOH     H2  254   3.028   2.228   0.609
   23HOH      O  255   2.363   1.718   2.587
   23HOH     H1  256   2.335   1.771   2.662
   23HOH     H2  257   2.419   1.776   2.537
   24HOH      O  258   3.075   0.301   3.576
   24HOH     H1  259   3.158   0.284   3.530
   24HOH     H2  260   3.021   0.225   3.555
   25HOH      O  261   2.211   2.573   1.917
   25HOH     H1  262   2.183   2.650   1.966
   25HOH     H2  263   2.152   2.569   1.842
   26HOH      O  264   1.127   0.615   3.348
   26HOH     H1  265   1.115   0.613   3.443
   26HOH     H2  266   1.220   0.595   3.335
   27HOH      O  267   3.329   0.566   0.540
   27HOH     H1  268   3.326   0.472   0.521
   27HOH     H2  269   3.238   0.596   0.528
   28HOH      O  270   1.404   0.893   3.647
   28HOH     H1  271   1.430   0.978   3.683
   28HOH     H2  272   1.361   0.914   3.564
   29HOH      O  273   2.264   0.490   0.449
   29HOH     H1  274   2.334   0.428   0.471
   29HOH     H2  275   2.310   0.565   0.411
   30HOH      O  276   2.517   0.541   3.297
   30HOH     H1  277   2.542   0.449   3.283
   30HOH     H2  278   2.456   0.560   3.225
   31HOH      O  279   1.733   1.668   3.825
   31HOH     H1  280   1.659   1.722   3.853
   31HOH     H2  281   1.735   1.678   3.730
   32HOH      O  282   0.654   2.027   1.935
   32HOH     H1  283   0.651   2.002   2.028
   32HOH     H2  284   0.745   2.011   1.909
   33HOH      O  285   3.629   1.089   0.087
   33HOH     H1  286   3.552   1.139   0.116
   33HOH     H2  287   3.604   0.998   0.097
   34HOH      O  288   1.878   0.982   2.473
   34HOH     H1  289   1.791   1.014   2.496
   34HOH     H2  290   1.934   1.010   2.545
   35HOH      O  291   1.455   0.653   0.309
   35HOH     H1  292   1.539   0.622   0.274
   35HOH     H2  293   1.399   0.575   0.308
   36HOH      O  294   1.007   2.284   1.262
   36HOH     H1  295   0.917   2.261   1.286
   36HOH     H2  296   1.058   2.261   1.339
   37HOH      O  297   3.846   2.103   2.974
   37HOH     H1  298   3.858   2.177   3.034
   37HOH     H2  299   3.817   2.032   3.030
   38HOH      O  300   3.087   3.425   1.554
   38HOH     H1  301   3.170   3.426   1.507
   38HOH     H2  302   3.057   3.334   1.549
   39HOH      O  303   1.234   3.877   3.547
   39HOH     H1  304   1.241   3.969   3.523
   39HOH     H2  305   1.307   3.862   3.607
   40HOH      O  306   3.692   1.205   3.776
   40HOH     H1  307   3.649   1.179   3.857
   40HOH     H2  308   3.746   1.280   3.800
   41HOH      O  309   3.183   3.854   1.127
   41HOH     H1  310   3.155   3.800   1.053
   41HOH     H2  311   3.129   3.933   1.121
   42HOH      O  312   3.700   3.555   2.007
   42HOH     H1  313   3.720   3.582   2.096
   42HOH     H2  314   3.711   3.460   2.007
   43HOH      O  315   1.585   3.296   2.551
   43HOH     H1  316   1.552   3.208   2.568
   43HOH     H2  317   1.567   3.311   2.459
   44HOH      O  318   1.201   1.804   1.652
   44HOH     H1  319   1.265   1.865   1.690
   44HOH     H2  320   1.138   1.860   1.607
   45HOH      O  321   0.228  -0.029   2.159
   45HOH     H1  322   0.193  -0.007   2.073
   45HOH     H2  323   0.270   0.051   2.190
   46HOH      O  324   0.709   0.377   1.132
   46HOH     H1  325   0.631   0.402   1.181
   46HOH     H2  326   0.675   0.337   1.052
   47HOH      O  327   0.858   2.516   2.396
   47HOH     H1  328   0.791   2.574   2.432
   47HOH     H2  329   0.897   2.566   2.324
   48HOH      O  330   3.312   0.207   3.750
   48HOH     H1  331   3.384   0.268   3.764
   48HOH     H2  332   3.355   0.127   3.718
   49HOH      O  333   0.357   0.526   2.147
   49HOH     H1  334   0.291   0.591   2.125
   49HOH     H2  335   0.428   0.542   2.085
   50HOH      O  336   3.131   1.714   3.792
   50HOH     H1  337   3.152   1.669   3.873
   50HOH     H2  338   3.107   1.644   3.731
   51HOH      O  339   3.175   0.116   1.427
   51HOH     H1  340   3.217   0.036   1.396
   51HOH     H2  341   3.236   0.151   1.492
   52HOH      O  342   2.042   3.680   0.489
   52HOH     H1  343   2.105   3.611   0.508
   52HOH     H2  344   1.974   3.668   0.556
   53HOH      O  345   1.735   2.336   3.078
   53HOH     H1  346   1.795   2.397   3.122
   53HOH     H2  347   1.698   2.387   3.006
   54HOH      O  348   2.217   2.138   0.422
   54HOH     H1  349   2.240   2.104   0.336
   54HOH     H2  350   2.165   2.068   0.462
   55HOH      O  351   2.528   3.929   1.447
   55HOH     H1  352   2.460   3.940   1.381
   55HOH     H2  353   2.541   4.018   1.482
   56HOH      O  354   2.501   0.617   1.928
   56HOH     H1  355   2.493   0.590   1.837
   56HOH     H2  356   2.551   0.547   1.970
   57HOH      O  357   2.719   3.908   0.278
   57HOH     H1  358   2.814   3.910   0.275
   57HOH     H2  359   2.695   3.822   0.242
   58HOH      O  360   2.000   0.591   0.406
   58HOH     H1  361   2.027   0.682   0.392
   58HOH     H2  362   2.082   0.541   0.406
   59HOH      O  363   1.256   3.823   3.036
   59HOH     H1  364   1.337   3.843   3.084
   59HOH     H2  365   1.188   3.823   3.104
   60HOH      O  366   3.851   2.147   3.644
   60HOH     H1  367   3.940   2.176   3.662
   60HOH     H2  368   3.796   2.219   3.675
   61HOH      O  369   3.517   0.591   0.798
   61HOH     H1  370   3.452   0.605   0.867
   61HOH     H2  371   3.464   0.568   0.721
   62HOH      O  372   3.479   3.294   0.010
   62HOH     H1  373   3.429   3.345   0.073
   62HOH     H2  374   3.488   3.208   0.051
   63HOH      O  375   3.381   2.444   3.663
   63HOH     H1  376   3.418   2.529   3.639
   63HOH     H2  377   3.442   2.380   3.627
   64HOH      O  378   0.069   0.639   0.568
   64HOH     H1  379  -0.002   0.700   0.587
   64HOH     H2  380   0.123   0.639   0.647
   65HOH      O  381   2.608   0.173   0.886
   65HOH     H1  382   2.524   0.208   0.917
   65HOH     H2  383   2.669   0.193   0.956
   66HOH      O  384   1.884   0.367   0.458
   66HOH     H1  385   1.938   0.307   0.509
   66HOH     H2  386   1.934   0.449   0.454
   67HOH      O  387   3.111   3.165   2.840
   67HOH     H1  388   3.187   3.125   2.881
   67HOH     H2  389   3.147   3.230   2.780
   68HOH      O  390   2.523   3.691   3.210
   68HOH     H1  391   2.470   3.662   3.285
   68HOH     H2  392   2.606   3.646   3.221
   69HOH      O  393   2.816   0.805   3.360
   69HOH     H1  394   2.877   0.745   3.402
   69HOH     H2  395   2.796   0.871   3.427
   70HOH      O  396   1.552   2.492   4.025
   70HOH     H1  397   1.519   2.563   3.971
   70HOH     H2  398   1.642   2.478   3.995
   71HOH      O  399   1.743   2.164   2.812
   71HOH     H1  400   1.677   2.152   2.881
   71HOH     H2  401   1.694   2.200   2.738
   72HOH      O  402   1.010   3.388   2.607
   72HOH     H1  403   1.032   3.313   2.663
   72HOH     H2  404   0.965   3.449   2.665
   73HOH      O  405   0.146   2.414   3.011
   73HOH     H1  406   0.192   2.483   3.058
   73HOH     H2  407   0.213   2.346   2.999
   74HOH      O  408   2.075   2.782   1.998
   74HOH     H1  409   2.051   2.792   2.091
   74HOH     H2  410   2.011   2.836   1.951
   75HOH      O  411   0.234   1.439   1.717
   75HOH     H1  412   0.237   1.529   1.685
   75HOH     H2  413   0.301   1.393   1.667
   76HOH      O  414   0.699   2.899   2.988
   76HOH     H1  415   0.727   2.808   2.976
   76HOH     H2  416   0.781   2.947   3.000
   77HOH      O  417   3.687   3.449   3.454
   77HOH     H1  418   3.761   3.393   3.476
   77HOH     H2  419   3.610   3.401   3.483
   78HOH      O  420   0.591   1.085   0.286
   78HOH     H1  421   0.664   1.026   0.306
   78HOH     H2  422   0.527   1.069   0.355
   79HOH      O  423   2.146   2.401   0.393
   79HOH     H1  424   2.205   2.326   0.406
   79HOH     H2  425   2.163   2.459   0.467
   80HOH      O  426   3.943   3.537   3.872
   80HOH     H1  427   3.889   3.483   3.930
   80HOH     H2  428   3.880   3.578   3.812
   81HOH      O  429   0.775   3.359   2.940
   81HOH     H1  430   0.786   3.276   2.894
   81HOH     H2  431   0.850   3.411   2.913
   82HOH      O  432   3.332   2.201   3.862
   82HOH     H1  433   3.414   2.228   3.903
   82HOH     H2  434   3.359   2.135   3.798
   83HOH      O  435   0.697   0.212   0.070
   83HOH     H1  436   0.735   0.127   0.093
   83HOH     H2  437   0.638   0.233   0.143
   84HOH      O  438   2.716   0.195   0.116
   84HOH     H1  439   2.779   0.222   0.183
   84HOH     H2  440   2.717   0.099   0.119
   85HOH      O  441   0.767   0.865   0.283
   85HOH     H1  442   0.686   0.814   0.283
   85HOH     H2  443   0.827   0.814   0.229
   86HOH      O  444   1.059   1.551   1.675
   86HOH     H1  445   1.108   1.631   1.694
   86HOH     H2  446   1.090   1.523   1.589
   87HOH      O  447   2.031   0.723   3.663
   87HOH     H1  448   2.031   0.738   3.569
   87HOH     H2  449   1.941   0.742   3.691
   88HOH      O  450   0.274   2.289   2.198
   88HOH     H1  451   0.329   2.361   2.229
   88HOH     H2  452   0.193   2.297   2.250
   89HOH      O  453   0.951   3.545   2.082
   89HOH     H1  454   1.034   3.527   2.038
   89HOH     H2  455   0.972   3.616   2.143
   90HOH      O  456   3.555   1.704   2.648
   90HOH     H1  457   3.485   1.640   2.638
   90HOH     H2  458   3.587   1.692   2.737
   91HOH      O  459   2.234   3.530   3.209
   91HOH     H1  460   2.139   3.535   3.196
   91HOH     H2  461   2.248   3.571   3.294
   92HOH      O  462   2.949   2.163   3.920
   92HOH     H1  463   2.912   2.076   3.904
   92HOH     H2  464   2.997   2.184   3.841
   93HOH      O  465   0.289   0.471   3.017
   93HOH     H1  466   0.362   0.515   2.973
   93HOH     H2  467   0.228   0.451   2.946
   94HOH      O  468   3.039   2.195   1.644
   94HOH     H1  469   3.092   2.195   1.564
   94HOH     H2  470   3.059   2.111   1.685
   95HOH      O  471   3.998   2.937   2.936
   95HOH     H1  472   4.004   2.855   2.887
   95HOH     H2  473   4.077   2.985   2.912
   96HOH      O  474   3.378   3.631   2.768
   96HOH     H1  475   3.388   3.694   2.839
   96HOH     H2  476   3.377   3.683   2.688
   97HOH      O  477   0.983   1.477   3.136
   97HOH     H1  478   0.926   1.534   3.084
   97HOH     H2  479   1.034   1.538   3.189
   98HOH      O  480   2.730   0.332   1.339
   98HOH     H1  481   2.663   0.400   1.328
   98HOH     H2  482   2.725   0.282   1.257
   99HOH      O  483   3.402   2.777   2.686
   99HOH     H1  484   3.345   2.704   2.661
   99HOH     H2  485   3.413   2.767   2.780
  100HOH      O  486   0.214   0.455   1.438
  100HOH     H1  487   0.195   0.492   1.352
  100HOH     H2  488   0.309   0.458   1.445
  101HOH      O  489   0.228   2.382   3.739
  101HOH     H1  490   0.261   2.471   3.749
  101HOH     H2  491   0.176   2.384   3.659
  102HOH      O  492   0.525   2.359   1.368
  102HOH     H1  493   0.487   2.394   1.449
  102HOH     H2  494   0.466   2.288   1.343
  103HOH      O  495   3.296   0.234   2.630
  103HOH     H1  496   3.328   0.221   2.541
  103HOH     H2  497   3.233   0.305   2.624
  104HOH      O  498   1.358   2.090   3.577
  104HOH     H1  499   1.360   2.184   3.561
  104HOH     H2  500   1.405   2.052   3.503
  105HOH      O  501   2.622   2.179   3.556
  105HOH     H1  502   2.554   2.186   3.489
  105HOH     H2  503   2.703   2.203   3.511
  106HOH      O  504   3.863   0.064   0.672
  106HOH     H1  505   3.797   0.043   0.606
  106HOH     H2  506   3.813   0.091   0.749
  107HOH      O  507   1.239   1.897   0.998
  107HOH     H1  508   1.184   1.853   1.063
  107HOH     H2  509   1.193   1.979   0.980
  108HOH      O  510   3.942   0.572   2.312
  108HOH     H1  511   3.854   0.550   2.341
  108HOH     H2  512   3.930   0.634   2.240
  109HOH      O  513   3.520   1.601   3.697
  109HOH     H1  514   3.477   1.644   3.770
  109HOH     H2  515   3.497   1.508   3.707
  110HOH      O  516   1.343   2.853   1.056
  110HOH     H1  517   1.393   2.929   1.028
  110HOH     H2  518   1.325   2.868   1.149
  111HOH      O  519   3.108   2.260   0.996
  111HOH     H1  520   3.023   2.240   0.957
  111HOH     H2  521   3.093   2.338   1.049
  112HOH      O  522   3.335   3.250   3.777
  112HOH     H1  523   3.392   3.264   3.852
  112HOH     H2  524   3.249   3.277   3.806
  113HOH      O  525   0.224   3.044   2.934
  113HOH     H1  526   0.271   2.975   2.980
  113HOH     H2  527   0.200   3.107   3.003
  114HOH      O  528   2.051   3.084   0.618
  114HOH     H1  529   2.051   2.989   0.608
  114HOH     H2  530   2.138   3.104   0.652
  115HOH      O  531   3.744   1.718   0.015
  115HOH     H1  532   3.656   1.730   0.050
  115HOH     H2  533   3.780   1.644   0.065
  116HOH      O  534   0.901   3.419   3.612
  116HOH     H1  535   0.831   3.393   3.553
  116HOH     H2  536   0.901   3.514   3.611
  117HOH      O  537   2.782   0.681   1.630
  117HOH     H1  538   2.796   0.768   1.592
  117HOH     H2  539   2.694   0.685   1.669
  118HOH      O  540   2.205   1.591   2.962
  118HOH     H1  541   2.259   1.634   3.028
  118HOH     H2  542   2.220   1.642   2.882
  119HOH      O  543   2.552   0.196   3.269
  119HOH     H1  544   2.507   0.233   3.193
  119HOH     H2  545   2.519   0.107   3.276
  120HOH      O  546   2.790   1.626   3.509
  120HOH     H1  547   2.873   1.582   3.528
  120HOH     H2  548   2.799   1.713   3.548
  121HOH      O  549   2.002   3.364   3.277
  121HOH     H1  550   1.995   3.459   3.266
  121HOH     H2  551   1.921   3.330   3.240
  122HOH      O  552   2.613   1.871   1.764
  122HOH     H1  553   2.534   1.884   1.711
  122HOH     H2  554   2.588   1.897   1.852
  123HOH      O  555   3.960   0.062   1.197
  123HOH     H1  556   3.938   0.048   1.289
  123HOH     H2  557   3.877   0.050   1.150
  124HOH      O  558   3.734   3.285   2.014
  124HOH     H1  559   3.814   3.331   2.040
  124HOH     H2  560   3.764   3.212   1.961
  125HOH      O  561   3.070   0.101   0.835
  125HOH     H1  562   3.033   0.041   0.770
  125HOH     H2  563   3.021   0.083   0.915
  126HOH      O  564   2.525   3.671   1.994
  126HOH     H1  565   2.594   3.605   1.993
  126HOH     H2  566   2.494   3.671   2.085
  127HOH      O  567   0.351   3.714   3.233
  127HOH     H1  568   0.258   3.691   3.231
  127HOH     H2  569   0.396   3.639   3.195
  128HOH      O  570   1.159   1.234   3.267
  128HOH     H1  571   1.102   1.275   3.202
  128HOH     H2  572   1.248   1.246   3.232
  129HOH      O  573   3.767   2.424   1.183
  129HOH     H1  574   3.835   2.397   1.244
  129HOH     H2  575   3.808   2.494   1.131
  130HOH      O  576   3.952   0.493   0.357
  130HOH     H1  577   3.877   0.445   0.392
  130HOH     H2  578   4.023   0.475   0.419
  131HOH      O  579   2.531   0.006   0.702
  131HOH     H1  580   2.567   0.056   0.776
  131HOH     H2  581   2.548   0.060   0.625
  132HOH      O  582   2.670   0.318   2.734
  132HOH     H1  583   2.592   0.368   2.713
  132HOH     H2  584   2.709   0.365   2.808
  133HOH      O  585   3.537   0.820   3.071
  133HOH     H1  586   3.533   0.837   2.977
  133HOH     H2  587   3.445   0.817   3.098
  134HOH      O  588   3.896   0.693   3.009
  134HOH     H1  589   3.902   0.620   2.947
  134HOH     H2  590   3.831   0.752   2.970
  135HOH      O  591   0.201   1.133   2.406
  135HOH     H1  592   0.248   1.051   2.418
  135HOH     H2  593   0.265   1.201   2.427
  136HOH      O  594   0.099   2.230   3.963
  136HOH     H1  595   0.135   2.241   3.875
  136HOH     H2  596   0.173   2.248   4.021
  137HOH      O  597   1.134   2.012   3.388
  137HOH     H1  598   1.188   1.980   3.315
  137HOH     H2  599   1.051   1.966   3.377
  138HOH      O  600   0.565   1.071   1.780
  138HOH     H1  601   0.582   1.050   1.872
  138HOH     H2  602   0.651   1.090   1.744
  139HOH      O  603   1.574   1.337   0.347
  139HOH     H1  604   1.480   1.333   0.329
  139HOH     H2  605   1.610   1.384   0.272
  140HOH      O  606   3.050   1.595   1.174
  140HOH     H1  607   2.965   1.583   1.216
  140HOH     H2  608   3.087   1.672   1.218
  141HOH      O  609   1.111   3.743   2.721
  141HOH     H1  610   1.180   3.707   2.778
  141HOH     H2  611   1.122   3.838   2.727
  142HOH      O  612   1.918   3.550   1.949
  142HOH     H1  613   1.905   3.493   1.873
  142HOH     H2  614   1.955   3.631   1.912
  143HOH      O  615   0.170   1.934   1.359
  143HOH     H1  616   0.077   1.921   1.339
  143HOH     H2  617   0.173   1.942   1.454
  144HOH      O  618   3.026   2.373   2.040
  144HOH     H1  619   3.031   2.405   1.950
  144HOH     H2  620   2.977   2.441   2.087
  145HOH      O  621   0.980   3.050   0.755
  145HOH     H1  622   1.054   3.074   0.810
  145HOH     H2  623   1.019   3.029   0.671
  146HOH      O  624   1.085   1.507   0.530
  146HOH     H1  625   1.042   1.588   0.557
  146HOH     H2  626   1.150   1.491   0.598
  147HOH      O  627   3.367   3.482   1.175
  147HOH     H1  628   3.432   3.510   1.238
  147HOH     H2  629   3.284   3.516   1.209
  148HOH      O  630   3.988   3.390   2.070
  148HOH     H1  631   4.007   3.437   1.989
  148HOH     H2  632   4.072   3.350   2.094
  149HOH      O  633   0.829   1.166   0.913
  149HOH     H1  634   0.741   1.198   0.933
  149HOH     H2  635   0.847   1.198   0.825
  150HOH      O  636   0.798   3.125   2.771
  150HOH     H1  637   0.894   3.125   2.769
  150HOH     H2  638   0.773   3.052   2.713
  151HOH      O  639   0.487   0.121   3.498
  151HOH     H1  640   0.444   0.056   3.552
  151HOH     H2  641   0.558   0.155   3.552
  152HOH      O  642   1.653   2.688   3.585
  152HOH     H1  643   1.714   2.705   3.657
  152HOH     H2  644   1.700   2.628   3.527
  153HOH      O  645   3.710   2.130   1.326
  153HOH     H1  646   3.706   2.210   1.380
  153HOH     H2  647   3.796   2.132   1.286
  154HOH      O  648   0.181   0.620   1.192
  154HOH     H1  649   0.106   0.678   1.180
  154HOH     H2  650   0.156   0.540   1.146
  155HOH      O  651   1.472   1.492   2.899
  155HOH     H1  652   1.561   1.468   2.872
  155HOH     H2  653   1.479   1.508   2.993
  156HOH      O  654   1.021   3.938   3.847
  156HOH     H1  655   0.933   3.971   3.862
  156HOH     H2  656   1.028   3.860   3.902
  157HOH      O  657   2.748   3.285   1.289
  157HOH     H1  658   2.777   3.334   1.366
  157HOH     H2  659   2.773   3.195   1.308
  158HOH      O  660   2.011   3.694   3.692
  158HOH     H1  661   1.978   3.706   3.603
  158HOH     H2  662   2.098   3.733   3.691
  159HOH      O  663   2.468   2.570   1.180
  159HOH     H1  664   2.482   2.605   1.268
  159HOH     H2  665   2.486   2.476   1.188
  160HOH      O  666   1.781   2.447   1.163
  160HOH     H1  667   1.717   2.503   1.119
  160HOH     H2  668   1.858   2.449   1.108
  161HOH      O  669   2.041   2.499   1.699
  161HOH     H1  670   1.979   2.481   1.628
  161HOH     H2  671   2.112   2.437   1.685
  162HOH      O  672   1.590   0.744   1.253
  162HOH     H1  673   1.538   0.772   1.328
  162HOH     H2  674   1.572   0.809   1.185
  163HOH      O  675   0.073   1.776   2.849
  163HOH     H1  676   0.114   1.863   2.854
  163HOH     H2  677  -0.021   1.795   2.843
  164HOH      O  678   0.956   0.623   3.830
  164HOH     H1  679   0.888   0.686   3.805
  164HOH     H2  680   0.908   0.545   3.857
  165HOH      O  681   1.134   3.391   0.611
  165HOH     H1  682   1.043   3.374   0.637
  165HOH     H2  683   1.185   3.322   0.651
  166HOH      O  684   2.411   1.528   0.979
  166HOH     H1  685   2.506   1.518   0.974
  166HOH     H2  686   2.398   1.613   1.022
  167HOH      O  687   3.510   1.495   1.158
  167HOH     H1  688   3.433   1.490   1.100
  167HOH     H2  689   3.477   1.533   1.239
  168HOH      O  690   2.674   1.013   3.187
  168HOH     H1  691   2.767   1.035   3.180
  168HOH     H2  692   2.672   0.940   3.248
  169HOH      O  693   1.912   1.516   2.775
  169HOH     H1  694   1.931   1.559   2.858
  169HOH     H2  695   1.984   1.541   2.718
  170HOH      O  696   0.650   3.251   3.856
  170HOH     H1  697   0.706   3.186   3.814
  170HOH     H2  698   0.591   3.281   3.787
  171HOH      O  699   0.362   2.035   2.257
  171HOH     H1  700   0.325   1.969   2.199
  171HOH     H2  701   0.323   2.117   2.229
  172HOH      O  702   3.991   3.753   2.013
  172HOH     H1  703   3.976   3.752   1.919
  172HOH     H2  704   4.075   3.708   2.025
  173HOH      O  705   3.472   3.536   2.332
  173HOH     H1  706   3.524   3.460   2.306
  173HOH     H2  707   3.381   3.509   2.321
  174HOH      O  708   2.582   0.714   3.575
  174HOH     H1  709   2.584   0.689   3.483
  174HOH     H2  710   2.635   0.648   3.619
  175HOH      O  711   1.312   1.480   0.042
  175HOH     H1  712   1.364   1.547  -0.003
  175HOH     H2  713   1.300   1.515   0.131
  176HOH      O  714   2.920   0.797   0.822
  176HOH     H1  715   2.929   0.893   0.821
  176HOH     H2  716   2.827   0.782   0.809
  177HOH      O  717   1.898   0.931   3.498
  177HOH     H1  718   1.908   0.844   3.459
  177HOH     H2  719   1.971   0.982   3.462
  178HOH      O  720   3.352   3.723   0.327
  178HOH     H1  721   3.319   3.810   0.348
  178HOH     H2  722   3.344   3.674   0.410
  179HOH      O  723   2.018   0.721   2.743
  179HOH     H1  724   2.055   0.687   2.824
  179HOH     H2  725   1.924   0.726   2.760
  180HOH      O  726   2.208   0.042   2.054
  180HOH     H1  727   2.202  -0.053   2.063
  180HOH     H2  728   2.117   0.070   2.039
  181HOH      O  729   2.722   0.693   2.413
  181HOH     H1  730   2.691   0.646   2.337
  181HOH     H2  731   2.661   0.766   2.423
  182HOH      O  732   3.047   2.098   3.611
  182HOH     H1  733   3.007   2.068   3.529
  182HOH     H2  734   3.008   2.043   3.679
  183HOH      O  735   2.318   1.076   0.600
  183HOH     H1  736   2.236   1.027   0.594
  183HOH     H2  737   2.351   1.077   0.510
  184HOH      O  738   0.516   1.880   1.746
  184HOH     H1  739   0.552   1.925   1.822
  184HOH     H2  740   0.592   1.860   1.692
  185HOH      O  741   2.920   4.033   2.202
  185HOH     H1  742   2.901   3.958   2.147
  185HOH     H2  743   3.014   4.025   2.223
  186HOH      O  744   1.019   1.213   2.568
  186HOH     H1  745   1.051   1.301   2.552
  186HOH     H2  746   0.938   1.207   2.517
  187HOH      O  747   0.753   3.208   3.238
  187HOH     H1  748   0.680   3.159   3.276
  187HOH     H2  749   0.717   3.296   3.224
  188HOH      O  750   1.895   2.084   2.535
  188HOH     H1  751   1.966   2.024   2.512
  188HOH     H2  752   1.842   2.034   2.597
  189HOH      O  753   0.628   0.388   0.687
  189HOH     H1  754   0.705   0.428   0.646
  189HOH     H2  755   0.664   0.329   0.753
  190HOH      O  756   0.965   1.069   0.512
  190HOH     H1  757   0.993   0.994   0.458
  190HOH     H2  758   0.904   1.032   0.575
  191HOH      O  759   2.002   0.641   3.387
  191HOH     H1  760   1.945   0.564   3.382
  191HOH     H2  761   2.036   0.651   3.298
  192HOH      O  762   1.956   0.384   1.739
  192HOH     H1  763   2.002   0.431   1.808
  192HOH     H2  764   1.869   0.366   1.776
  193HOH      O  765   2.780   0.407   2.976
  193HOH     H1  766   2.869   0.371   2.973
  193HOH     H2  767   2.788   0.485   3.030
  194HOH      O  768   2.327   3.516   1.283
  194HOH     H1  769   2.361   3.453   1.346
  194HOH     H2  770   2.270   3.465   1.226
  195HOH      O  771   3.201   1.290   1.456
  195HOH     H1  772   3.108   1.301   1.437
  195HOH     H2  773   3.204   1.223   1.524
  196HOH      O  774   1.706   1.376   2.695
  196HOH     H1  775   1.709   1.393   2.601
  196HOH     H2  776   1.769   1.437   2.732
  197HOH      O  777   3.809   0.969   1.082
  197HOH     H1  778   3.827   1.019   1.161
  197HOH     H2  779   3.814   1.033   1.011
  198HOH      O  780   0.343   2.201   3.068
  198HOH     H1  781   0.428   2.158   3.063
  198HOH     H2  782   0.322   2.201   3.161
  199HOH      O  783   3.111   3.649   3.178
  199HOH     H1  784   3.035   3.620   3.127
  199HOH     H2  785   3.146   3.722   3.127
  200HOH      O  786   3.708   2.235   2.010
  200HOH     H1  787   3.666   2.152   1.991
  200HOH     H2  788   3.636   2.292   2.038
  201HOH      O  789   3.016   3.417   2.555
  201HOH     H1  790   3.099   3.396   2.598
  201HOH     H2  791   3.023   3.511   2.536
  202HOH      O  792   3.429   0.641   3.483
  202HOH     H1  793   3.426   0.591   3.401
  202HOH     H2  794   3.496   0.708   3.468
  203HOH      O  795   1.841   1.938   3.981
  203HOH     H1  796   1.826   1.861   4.036
  203HOH     H2  797   1.835   2.012   4.041
  204HOH      O  798   2.584   2.677   2.955
  204HOH     H1  799   2.675   2.705   2.952
  204HOH     H2  800   2.561   2.681   3.048
  205HOH      O  801   3.929   0.427   0.072
  205HOH     H1  802   3.987   0.480   0.017
  205HOH     H2  803   3.963   0.439   0.160
  206HOH      O  804   2.677   3.507   1.131
  206HOH     H1  805   2.725   3.477   1.208
  206HOH     H2  806   2.599   3.452   1.129
  207HOH      O  807   0.175   0.355   1.133
  207HOH     H1  808   0.128   0.294   1.077
  207HOH     H2  809   0.211   0.300   1.203
  208HOH      O  810   2.370   0.962   1.355
  208HOH     H1  811   2.411   1.020   1.419
  208HOH     H2  812   2.375   0.875   1.394
  209HOH      O  813   1.369   0.491   3.065
  209HOH     H1  814   1.302   0.560   3.066
  209HOH     H2  815   1.343   0.433   2.994
  210HOH      O  816   4.056   3.052   0.252
  210HOH     H1  817   3.969   3.065   0.289
  210HOH     H2  818   4.040   3.007   0.169
  211HOH      O  819   0.385   2.890   1.197
  211HOH     H1  820   0.423   2.904   1.111
  211HOH     H2  821   0.453   2.844   1.247
  212HOH      O  822   2.131  -0.012   0.438
  212HOH     H1  823   2.114   0.074   0.476
  212HOH     H2  824   2.226  -0.023   0.444
  213HOH      O  825   2.398   3.244   3.376
  213HOH     H1  826   2.409   3.287   3.291
  213HOH     H2  827   2.307   3.259   3.399
  214HOH      O  828   1.626   3.172   0.313
  214HOH     H1  829   1.709   3.213   0.287
  214HOH     H2  830   1.620   3.189   0.407
  215HOH      O  831   3.416   0.335   1.448
  215HOH     H1  832   3.362   0.346   1.526
  215HOH     H2  833   3.378   0.396   1.384
  216HOH      O  834   1.839   0.429   2.811
  216HOH     H1  835   1.908   0.452   2.873
  216HOH     H2  836   1.798   0.512   2.788
  217HOH      O  837   0.547   0.389   2.652
  217HOH     H1  838   0.583   0.319   2.707
  217HOH     H2  839   0.506   0.450   2.714
  218HOH      O  840   3.709   1.236   2.213
  218HOH     H1  841   3.804   1.244   2.212
  218HOH     H2  842   3.691   1.169   2.278
  219HOH      O  843   2.099   2.984   4.018
  219HOH     H1  844   2.066   3.023   4.099
  219HOH     H2  845   2.048   3.026   3.949
  220HOH      O  846   2.657   1.011   0.849
  220HOH     H1  847   2.694   1.063   0.777
  220HOH     H2  848   2.710   1.033   0.925
  221HOH      O  849   1.409   2.948   1.319
  221HOH     H1  850   1.491   2.930   1.364
  221HOH     H2  851   1.418   3.038   1.287
  222HOH      O  852   3.638   3.045   3.427
  222HOH     H1  853   3.619   3.100   3.503
  222HOH     H2  854   3.619   2.956   3.456
  223HOH      O  855   3.513   1.393   2.238
  223HOH     H1  856   3.594   1.343   2.232
  223HOH     H2  857   3.446   1.328   2.259
  224HOH      O  858   0.456   1.060   3.142
  224HOH     H1  859   0.513   1.012   3.082
  224HOH     H2  860   0.402   1.115   3.085
  225HOH      O  861   0.693   0.764   2.162
  225HOH     H1  862   0.686   0.670   2.179
  225HOH     H2  863   0.603   0.796   2.163
  226HOH      O  864   1.310   2.416   2.656
  226HOH     H1  865   1.375   2.479   2.688
  226HOH     H2  866   1.250   2.468   2.603
  227HOH      O  867   0.430   3.579   2.220
  227HOH     H1  868   0.417   3.658   2.167
  227HOH     H2  869   0.521   3.554   2.204
  228HOH      O  870   2.454   1.188   1.213
  228HOH     H1  871   2.439   1.103   1.253
  228HOH     H2  872   2.373   1.237   1.230
  229HOH      O  873   2.448   3.325   1.612
  229HOH     H1  874   2.454   3.377   1.692
  229HOH     H2  875   2.397   3.248   1.637
  230HOH      O  876   0.443   0.854   2.041
  230HOH     H1  877   0.364   0.870   2.093
  230HOH     H2  878   0.411   0.845   1.951
  231HOH      O  879   3.010   2.800   2.191
  231HOH     H1  880   2.932   2.851   2.171
  231HOH     H2  881   3.067   2.813   2.115
  232HOH      O  882   3.494   3.290   2.138
  232HOH     H1  883   3.552   3.279   2.063
  232HOH     H2  884   3.505   3.209   2.189
  233HOH      O  885   1.198   3.289   1.709
  233HOH     H1  886   1.104   3.303   1.701
  233HOH     H2  887   1.219   3.226   1.640
  234HOH      O  888   1.990   3.694   3.230
  234HOH     H1  889   2.055   3.763   3.223
  234HOH     H2  890   1.923   3.716   3.164
  235HOH      O  891   3.362   2.441   2.407
  235HOH     H1  892   3.345   2.415   2.316
  235HOH     H2  893   3.290   2.498   2.430
  236HOH      O  894   0.888   1.261   0.667
  236HOH     H1  895   0.924   1.203   0.600
  236HOH     H2  896   0.854   1.336   0.618
  237HOH      O  897   2.214   2.721   0.111
  237HOH     H1  898   2.304   2.691   0.110
  237HOH     H2  899   2.220   2.816   0.115
  238HOH      O  900   2.574   1.528   1.272
  238HOH     H1  901   2.623   1.588   1.216
  238HOH     H2  902   2.482   1.550   1.257
  239HOH      O  903   1.508   2.948   2.911
  239HOH     H1  904   1.548   2.910   2.832
  239HOH     H2  905   1.519   2.881   2.978
  240HOH      O  906   2.828   1.316   3.365
  240HOH     H1  907   2.752   1.263   3.343
  240HOH     H2  908   2.802   1.363   3.444
  241HOH      O  909   0.224   3.395   2.264
  241HOH     H1  910   0.180   3.434   2.339
  241HOH     H2  911   0.300   3.452   2.248
  242HOH      O  912   2.097   1.048   2.311
  242HOH     H1  913   2.004   1.042   2.336
  242HOH     H2  914   2.144   1.021   2.390
  243HOH      O  915   3.340   1.402   1.716
  243HOH     H1  916   3.323   1.320   1.670
  243HOH     H2  917   3.273   1.404   1.785
  244HOH      O  918   1.607   0.035   3.708
  244HOH     H1  919   1.672   0.071   3.648
  244HOH     H2  920   1.551   0.108   3.730
  245HOH      O  921   3.866   1.896   2.778
  245HOH     H1  922   3.853   1.928   2.689
  245HOH     H2  923   3.873   1.975   2.832
  246HOH      O  924   3.541   2.247   2.615
  246HOH     H1  925   3.448   2.255   2.637
  246HOH     H2  926   3.572   2.173   2.667
  247HOH      O  927   1.851   1.417   3.650
  247HOH     H1  928   1.772   1.425   3.595
  247HOH     H2  929   1.918   1.465   3.601
  248HOH      O  930   2.984   0.871   1.850
  248HOH     H1  931   2.944   0.918   1.924
  248HOH     H2  932   3.058   0.824   1.888
  249HOH      O  933   2.624   0.149   1.177
  249HOH     H1  934   2.538   0.119   1.204
  249HOH     H2  935   2.609   0.237   1.141
  250HOH      O  936   0.123   0.971   2.773
  250HOH     H1  937   0.182   0.950   2.846
  250HOH     H2  938   0.113   1.066   2.778
  251HOH      O  939   3.626   2.444   1.753
  251HOH     H1  940   3.578   2.386   1.812
  251HOH     H2  941   3.639   2.524   1.803
  252HOH      O  942   3.798   1.161   2.646
  252HOH     H1  943   3.799   1.159   2.742
  252HOH     H2  944   3.866   1.224   2.623
  253HOH      O  945   0.772   2.305   0.132
  253HOH     H1  946   0.704   2.357   0.089
  253HOH     H2  947   0.837   2.370   0.161
  254HOH      O  948   1.240   1.552   0.305
  254HOH     H1  949   1.318   1.521   0.350
  254HOH     H2  950   1.168   1.533   0.365
  255HOH      O  951   0.843   3.636   0.060
  255HOH     H1  952   0.863   3.560   0.005
  255HOH     H2  953   0.929   3.675   0.078
  256HOH      O  954   1.794   1.513   2.319
  256HOH     H1  955   1.832   1.434   2.281
  256HOH     H2  956   1.861   1.543   2.381
  257HOH      O  957   0.909   2.596   1.184
  257HOH     H1  958   0.964   2.563   1.112
  257HOH     H2  959   0.826   2.548   1.174
  258HOH      O  960   0.414   3.333   0.102
  258HOH     H1  961   0.390   3.272   0.171
  258HOH     H2  962   0.470   3.282   0.043
  259HOH      O  963   1.525   1.867   3.852
  259HOH     H1  964   1.451   1.903   3.803
  259HOH     H2  965   1.586   1.940   3.862
  260HOH      O  966   3.215   3.864   3.040
  260HOH     H1  967   3.295   3.832   2.999
  260HOH     H2  968   3.245   3.916   3.115
  261HOH      O  969   0.902   0.326   3.592
  261HOH     H1  970   0.943   0.241   3.604
  261HOH     H2  971   0.914   0.345   3.499
  262HOH      O  972   2.365   2.387   2.837
  262HOH     H1  973   2.428   2.404   2.767
  262HOH     H2  974   2.324   2.472   2.854
  263HOH      O  975   3.989   1.015   3.736
  263HOH     H1  976   3.959   1.088   3.682
  263HOH     H2  977   4.064   1.049   3.784
  264HOH      O  978  -0.020   1.322   3.287
  264HOH     H1  979   0.040   1.325   3.213
  264HOH     H2  980   0.005   1.397   3.341
  265HOH      O  981   1.398   1.322   2.651
  265HOH     H1  982   1.458   1.358   2.716
  265HOH     H2  983   1.433   1.353   2.567
  266HOH      O  984   0.741   2.162   1.407
  266HOH     H1  985   0.680   2.218   1.358
  266HOH     H2  986   0.733   2.192   1.497
  267HOH      O  987   3.306   2.606   0.812
  267HOH     H1  988   3.325   2.606   0.906
  267HOH     H2  989   3.390   2.583   0.771
  268HOH      O  990   3.147   0.449   2.586
  268HOH     H1  991   3.150   0.504   2.664
  268HOH     H2  992   3.203   0.493   2.522
  269HOH      O  993   3.681   3.417   0.292
  269HOH     H1  994   3.722   3.454   0.370
  269HOH     H2  995   3.736   3.447   0.220
  270HOH      O  996   0.294   1.800   3.759
  270HOH     H1  997   0.304   1.764   3.671
  270HOH     H2  998   0.364   1.760   3.810
  271HOH      O  999   1.698   0.334   1.796
  271HOH     H1 1000   1.620   0.332   1.741
  271HOH     H2 1001   1.698   0.421   1.836
  272HOH      O 1002   3.714   3.392   0.993
  272HOH     H1 1003   3.777   3.441   0.942
  272HOH     H2 1004   3.638   3.450   0.999
  273HOH      O 1005   0.472   0.391   1.555
  273HOH     H1 1006   0.487   0.424   1.644
  273HOH     H2 1007   0.522   0.451   1.499
  274HOH      O 1008   3.836   2.399   2.178
  274HOH     H1 1009   3.930   2.380   2.177
  274HOH     H2 1010   3.805   2.372   2.091
  275HOH      O 1011   0.087   3.644   3.192
  275HOH     H1 1012   0.023   3.712   3.173
  275HOH     H2 1013   0.118   3.614   3.107
  276HOH      O 1014   3.402   1.624   1.420
  276HOH     H1 1015   3.329   1.566   1.440
  276HOH     H2 1016   3.361   1.708   1.399
  277HOH      O 1017   4.030   1.636   2.591
  277HOH     H1 1018   3.970   1.700   2.554
  277HOH     H2 1019   4.059   1.675   2.673
  278HOH      O 1020   3.011   0.355   3.299
  278HOH     H1 1021   3.077   0.301   3.343
  278HOH     H2 1022   2.928   0.314   3.321
  279HOH      O 1023   3.489   2.777   1.093
  279HOH     H1 1024   3.424   2.835   1.054
  279HOH     H2 1025   3.480   2.791   1.187
  280HOH      O 1026   0.441   1.352   0.093
  280HOH     H1 1027   0.359   1.318   0.057
  280HOH     H2 1028   0.414   1.413   0.162
  281HOH      O 1029   2.377   3.877   0.427
  281HOH     H1 1030   2.381   3.786   0.457
  281HOH     H2 1031   2.444   3.882   0.359
  282HOH      O 1032   3.601   0.839   0.629
  282HOH     H1 1033   3.543   0.778   0.675
  282HOH     H2 1034   3.563   0.925   0.647
  283HOH      O 1035   0.618   0.328   0.343
  283HOH     H1 1036   0.689   0.392   0.353
  283HOH     H2 1037   0.544   0.367   0.390
  284HOH      O 1038   3.694   2.236   3.350
  284HOH     H1 1039   3.647   2.240   3.267
  284HOH     H2 1040   3.641   2.289   3.410
  285HOH      O 1041   1.586   1.700   2.290
  285HOH     H1 1042   1.627   1.728   2.208
  285HOH     H2 1043   1.641   1.628   2.321
  286HOH      O 1044   0.419   0.966   0.488
  286HOH     H1 1045   0.341   0.975   0.434
  286HOH     H2 1046   0.439   0.872   0.487
  287HOH      O 1047   0.986   2.050   2.372
  287HOH     H1 1048   0.964   2.120   2.433
  287HOH     H2 1049   1.036   2.094   2.302
  288HOH      O 1050   1.793   3.629   0.575
  288HOH     H1 1051   1.768   3.609   0.665
  288HOH     H2 1052   1.743   3.566   0.522
  289HOH      O 1053   3.158   2.710   1.192
  289HOH     H1 1054   3.227   2.754   1.241
  289HOH     H2 1055   3.174   2.735   1.101
  290HOH      O 1056   0.384   3.230   1.007
  290HOH     H1 1057   0.361   3.248   1.098
  290HOH     H2 1058   0.300   3.212   0.964
  291HOH      O 1059   1.122   3.403   3.809
  291HOH     H1 1060   1.190   3.470   3.804
  291HOH     H2 1061   1.078   3.407   3.725
  292HOH      O 1062   0.459   0.283   3.143
  292HOH     H1 1063   0.523   0.329   3.196
  292HOH     H2 1064   0.409   0.352   3.100
  293HOH      O 1065   3.299   1.506   0.330
  293HOH     H1 1066   3.388   1.520   0.297
  293HOH     H2 1067   3.311   1.458   0.412
  294HOH      O 1068   1.922   2.737   0.025
  294HOH     H1 1069   2.007   2.780   0.026
  294HOH     H2 1070   1.920   2.685   0.106
  295HOH      O 1071   1.081   1.642   3.611
  295HOH     H1 1072   1.077   1.550   3.588
  295HOH     H2 1073   1.156   1.676   3.561
  296HOH      O 1074   3.612   1.576   3.235
  296HOH     H1 1075   3.678   1.507   3.237
  296HOH     H2 1076   3.661   1.657   3.226
  297HOH      O 1077   0.101   2.926   1.237
  297HOH     H1 1078   0.136   2.844   1.272
  297HOH     H2 1079   0.160   2.994   1.270
  298HOH      O 1080   3.209   2.898   1.543
  298HOH     H1 1081   3.139   2.838   1.517
  298HOH     H2 1082   3.182   2.931   1.628
  299HOH      O 1083   3.535   1.122   0.692
  299HOH     H1 1084   3.563   1.155   0.777
  299HOH     H2 1085   3.440   1.125   0.695
  300HOH      O 1086   1.596   0.343   0.277
  300HOH     H1 1087   1.505   0.339   0.309
  300HOH     H2 1088   1.642   0.392   0.345
  301HOH      O 1089   1.115   2.125   0.933
  301HOH     H1 1090   1.135   2.186   1.005
  301HOH     H2 1091   1.133   2.175   0.854
  302HOH      O 1092   0.950   1.048   2.073
  302HOH     H1 1093   0.943   1.079   2.163
  302HOH     H2 1094   0.862   1.058   2.037
  303HOH      O 1095   2.150   0.399   2.648
  303HOH     H1 1096   2.072   0.385   2.701
  303HOH     H2 1097   2.123   0.462   2.581
  304HOH      O 1098   0.583   0.031   0.710
  304HOH     H1 1099   0.531   0.108   0.689
  304HOH     H2 1100   0.519  -0.032   0.743
  305HOH      O 1101   0.094   3.170   1.036
  305HOH     H1 1102   0.050   3.086   1.047
  305HOH     H2 1103   0.046   3.230   1.094
  306HOH      O 1104   0.418   3.353   0.734
  306HOH     H1 1105   0.458   3.347   0.821
  306HOH     H2 1106   0.373   3.269   0.723
  307HOH      O 1107   0.859   1.510   2.031
  307HOH     H1 1108   0.774   1.473   2.005
  307HOH     H2 1109   0.875   1.476   2.119
  308HOH      O 1110   0.515   1.465   2.893
  308HOH     H1 1111   0.466   1.546   2.880
  308HOH     H2 1112   0.605   1.495   2.910
  309HOH      O 1113   3.913   3.055   3.879
  309HOH     H1 1114   3.850   3.090   3.941
  309HOH     H2 1115   3.883   3.087   3.794
  310HOH      O 1116   3.087   0.805   1.603
  310HOH     H1 1117   3.016   0.811   1.538
  310HOH     H2 1118   3.043   0.819   1.687
  311HOH      O 1119   3.426   2.793   3.929
  311HOH     H1 1120   3.336   2.760   3.937
  311HOH     H2 1121   3.479   2.725   3.970
  312HOH      O 1122   1.268   2.380   0.160
  312HOH     H1 1123   1.189   2.434   0.161
  312HOH     H2 1124   1.339   2.442   0.176
  313HOH      O 1125   0.034   1.154   1.162
  313HOH     H1 1126  -0.051   1.155   1.207
  313HOH     H2 1127   0.069   1.241   1.175
  314HOH      O 1128   1.490   2.199   3.839
  314HOH     H1 1129   1.410   2.228   3.796
  314HOH     H2 1130   1.558   2.212   3.773
  315HOH      O 1131   1.136   3.991   2.461
  315HOH     H1 1132   1.159   4.015   2.551
  315HOH     H2 1133   1.193   3.917   2.441
  316HOH      O 1134   1.102   0.656   0.498
  316HOH     H1 1135   1.198   0.655   0.489
  316HOH     H2 1136   1.075   0.735   0.451
  317HOH      O 1137   0.497   1.226   3.850
  317HOH     H1 1138   0.493   1.179   3.767
  317HOH     H2 1139   0.439   1.302   3.837
  318HOH      O 1140   0.457   2.931   3.816
  318HOH     H1 1141   0.420   2.843   3.809
  318HOH     H2 1142   0.445   2.955   3.908
  319HOH      O 1143   0.399   2.115   1.294
  319HOH     H1 1144   0.456   2.046   1.262
  319HOH     H2 1145   0.344   2.072   1.360
  320HOH      O 1146   1.452   2.302   3.444
  320HOH     H1 1147   1.384   2.342   3.390
  320HOH     H2 1148   1.472   2.367   3.511
  321HOH      O 1149   2.853   1.762   0.235
  321HOH     H1 1150   2.935   1.728   0.271
  321HOH     H2 1151   2.877   1.848   0.199
  322HOH      O 1152   0.711   0.570   3.555
  322HOH     H1 1153   0.752   0.485   3.570
  322HOH     H2 1154   0.619   0.549   3.540
  323HOH      O 1155   3.902   1.177   1.852
  323HOH     H1 1156   3.964   1.120   1.808
  323HOH     H2 1157   3.841   1.117   1.895
  324HOH      O 1158   3.727   2.192   2.436
  324HOH     H1 1159   3.751   2.268   2.382
  324HOH     H2 1160   3.656   2.224   2.492
  325HOH      O 1161   3.377   2.789   1.340
  325HOH     H1 1162   3.310   2.813   1.404
  325HOH     H2 1163   3.437   2.732   1.387
  326HOH      O 1164   0.051   3.873   1.388
  326HOH     H1 1165   0.121   3.860   1.324
  326HOH     H2 1166   0.092   3.926   1.457
  327HOH      O 1167   3.072   0.270   0.165
  327HOH     H1 1168   3.086   0.245   0.073
  327HOH     H2 1169   3.040   0.360   0.160
  328HOH      O 1170   1.114   1.295   0.895
  328HOH     H1 1171   1.166   1.258   0.966
  328HOH     H2 1172   1.052   1.226   0.871
  329HOH      O 1173   1.959   3.721   2.514
  329HOH     H1 1174   1.899   3.647   2.505
  329HOH     H2 1175   1.909   3.797   2.484
  330HOH      O 1176   1.670   1.432   1.226
  330HOH     H1 1177   1.732   1.359   1.223
  330HOH     H2 1178   1.724   1.510   1.217
  331HOH      O 1179   2.868   2.588   1.358
  331HOH     H1 1180   2.827   2.506   1.388
  331HOH     H2 1181   2.925   2.614   1.431
  332HOH      O 1182   2.512   1.433   2.608
  332HOH     H1 1183   2.480   1.523   2.602
  332HOH     H2 1184   2.483   1.403   2.694
  333HOH      O 1185   3.262   2.074   2.404
  333HOH     H1 1186   3.289   2.009   2.468
  333HOH     H2 1187   3.282   2.158   2.445
  334HOH      O 1188   3.765   2.365   0.303
  334HOH     H1 1189   3.816   2.441   0.333
  334HOH     H2 1190   3.831   2.299   0.282
  335HOH      O 1191   3.343   1.290   2.831
  335HOH     H1 1192   3.409   1.264   2.896
  335HOH     H2 1193   3.314   1.376   2.860
  336HOH      O 1194   1.159   1.815   3.994
  336HOH     H1 1195   1.177   1.845   3.905
  336HOH     H2 1196   1.218   1.865   4.049
  337HOH      O 1197   2.366   1.964   1.613
  337HOH     H1 1198   2.318   1.893   1.569
  337HOH     H2 1199   2.300   2.030   1.632
  338HOH      O 1200   0.430   0.220   0.586
  338HOH     H1 1201   0.478   0.302   0.597
  338HOH     H2 1202   0.340   0.241   0.614
  339HOH      O 1203   1.159   2.234   0.674
  339HOH     H1 1204   1.106   2.217   0.596
  339HOH     H2 1205   1.215   2.157   0.681
  340HOH      O 1206   0.737   1.406   3.909
  340HOH     H1 1207   0.785   1.486   3.932
  340HOH     H2 1208   0.651   1.417   3.948
  341HOH      O 1209   1.708   1.940   2.116
  341HOH     H1 1210   1.712   1.981   2.203
  341HOH     H2 1211   1.788   1.969   2.072
  342HOH      O 1212   2.438   3.727   3.850
  342HOH     H1 1213   2.423   3.650   3.904
  342HOH     H2 1214   2.501   3.779   3.899
  343HOH      O 1215   2.408   0.358   2.665
  343HOH     H1 1216   2.439   0.366   2.574
  343HOH     H2 1217   2.315   0.378   2.660
  344HOH      O 1218   1.331   2.294   3.082
  344HOH     H1 1219   1.271   2.247   3.140
  344HOH     H2 1220   1.285   2.298   2.998
  345HOH      O 1221   1.484   3.765   0.419
  345HOH     H1 1222   1.514   3.680   0.451
  345HOH     H2 1223   1.529   3.776   0.335
  346HOH      O 1224   1.596   0.608   3.174
  346HOH     H1 1225   1.523   0.547   3.170
  346HOH     H2 1226   1.560   0.685   3.218
  347HOH      O 1227   1.220   2.311   3.789
  347HOH     H1 1228   1.230   2.240   3.851
  347HOH     H2 1229   1.162   2.374   3.833
  348HOH      O 1230   3.233   1.319   3.195
  348HOH     H1 1231   3.172   1.311   3.268
  348HOH     H2 1232   3.295   1.247   3.206
  349HOH      O 1233   3.609   2.431   3.493
  349HOH     H1 1234   3.541   2.479   3.446
  349HOH     H2 1235   3.640   2.491   3.560
  350HOH      O 1236   2.462   0.342   2.161
  350HOH     H1 1237   2.485   0.324   2.070
  350HOH     H2 1238   2.371   0.371   2.159
  351HOH      O 1239  -0.022   0.084   3.330
  351HOH     H1 1240   0.035   0.010   3.307
  351HOH     H2 1241  -0.009   0.095   3.425
  352HOH      O 1242   3.738   0.032   3.194
  352HOH     H1 1243   3.654   0.070   3.169
  352HOH     H2 1244   3.724  -0.062   3.187
  353HOH      O 1245   3.583   1.151   2.464
  353HOH     H1 1246   3.661   1.188   2.506
  353HOH     H2 1247   3.524   1.132   2.536
  354HOH      O 1248   2.582   2.589   2.620
  354HOH     H1 1249   2.537   2.509   2.593
  354HOH     H2 1250   2.585   2.584   2.715
  355HOH      O 1251   0.511   2.728   1.360
  355HOH     H1 1252   0.604   2.721   1.383
  355HOH     H2 1253   0.468   2.664   1.416
  356HOH      O 1254   2.360   2.541   3.479
  356HOH     H1 1255   2.332   2.590   3.556
  356HOH     H2 1256   2.352   2.449   3.506
  357HOH      O 1257   0.140   0.423   2.307
  357HOH     H1 1258   0.203   0.457   2.243
  357HOH     H2 1259   0.060   0.473   2.290
  358HOH      O 1260   0.844   3.068   3.784
  358HOH     H1 1261   0.914   3.045   3.844
  358HOH     H2 1262   0.887   3.078   3.699
  359HOH      O 1263   0.472   0.543   4.023
  359HOH     H1 1264   0.448   0.459   3.983
  359HOH     H2 1265   0.447   0.608   3.957
  360HOH      O 1266   2.708   0.411   0.690
  360HOH     H1 1267   2.706   0.486   0.749
  360HOH     H2 1268   2.698   0.335   0.747
  361HOH      O 1269   0.976   2.916   3.050
  361HOH     H1 1270   1.042   2.979   3.023
  361HOH     H2 1271   1.011   2.831   3.021
  362HOH      O 1272   2.859   2.511   2.587
  362HOH     H1 1273   2.808   2.554   2.656
  362HOH     H2 1274   2.856   2.572   2.513
  363HOH      O 1275   2.843   2.343   1.488
  363HOH     H1 1276   2.912   2.338   1.555
  363HOH     H2 1277   2.780   2.276   1.514
  364HOH      O 1278   1.805   3.125   0.785
  364HOH     H1 1279   1.813   3.204   0.837
  364HOH     H2 1280   1.891   3.115   0.744
  365HOH      O 1281   1.935   2.345   2.817
  365HOH     H1 1282   1.910   2.421   2.764
  365HOH     H2 1283   1.860   2.285   2.809
  366HOH      O 1284   1.550   3.499   0.157
  366HOH     H1 1285   1.620   3.560   0.135
  366HOH     H2 1286   1.553   3.491   0.252
  367HOH      O 1287   0.962   0.008   3.382
  367HOH     H1 1288   0.874   0.017   3.345
  367HOH     H2 1289   0.948   0.016   3.477
  368HOH      O 1290   2.920   0.891   2.773
  368HOH     H1 1291   2.830   0.870   2.749
  368HOH     H2 1292   2.920   0.986   2.785
  369HOH      O 1293   3.806   1.954   3.220
  369HOH     H1 1294   3.726   1.954   3.274
  369HOH     H2 1295   3.876   1.971   3.283
  370HOH      O 1296   2.684   0.789   2.079
  370HOH     H1 1297   2.765   0.809   2.126
  370HOH     H2 1298   2.678   0.693   2.081
  371HOH      O 1299   3.997   0.807   1.875
  371HOH     H1 1300   3.948   0.777   1.799
  371HOH     H2 1301   4.045   0.883   1.844
  372HOH      O 1302   4.033   1.471   2.003
  372HOH     H1 1303   3.948   1.446   1.965
  372HOH     H2 1304   4.016   1.479   2.097
  373HOH      O 1305   1.526   3.344   3.359
  373HOH     H1 1306   1.482   3.421   3.323
  373HOH     H2 1307   1.481   3.327   3.442
  374HOH      O 1308   0.332   2.880   2.149
  374HOH     H1 1309   0.398   2.941   2.118
  374HOH     H2 1310   0.251   2.931   2.154
  375HOH      O 1311   2.182   3.409   3.996
  375HOH     H1 1312   2.115   3.341   4.011
  375HOH     H2 1313   2.158   3.446   3.911
  376HOH      O 1314   1.574   1.980   0.687
  376HOH     H1 1315   1.596   2.002   0.777
  376HOH     H2 1316   1.659   1.959   0.647
  377HOH      O 1317   2.935   2.782   2.713
  377HOH     H1 1318   2.872   2.818   2.650
  377HOH     H2 1319   2.883   2.761   2.790
  378HOH      O 1320   2.746   3.285   0.763
  378HOH     H1 1321   2.802   3.264   0.838
  378HOH     H2 1322   2.806   3.320   0.697
  379HOH      O 1323   2.128   1.399   0.912
  379HOH     H1 1324   2.219   1.429   0.920
  379HOH     H2 1325   2.134   1.323   0.854
  380HOH      O 1326   0.143   2.314   1.964
  380HOH     H1 1327   0.183   2.291   2.048
  380HOH     H2 1328   0.155   2.408   1.957
  381HOH      O 1329   2.645   3.777   0.761
  381HOH     H1 1330   2.599   3.861   0.754
  381HOH     H2 1331   2.663   3.767   0.855
  382HOH      O 1332   0.638   3.482   3.459
  382HOH     H1 1333   0.662   3.574   3.471
  382HOH     H2 1334   0.669   3.461   3.371
  383HOH      O 1335   3.233   0.915   2.072
  383HOH     H1 1336   3.323   0.933   2.100
  383HOH     H2 1337   3.240   0.837   2.016
  384HOH      O 1338   3.527   3.051   2.927
  384HOH     H1 1339   3.581   3.005   2.863
  384HOH     H2 1340   3.570   3.034   3.011
  385HOH      O 1341   2.912   1.458   0.751
  385HOH     H1 1342   2.908   1.455   0.655
  385HOH     H2 1343   3.005   1.471   0.770
  386HOH      O 1344   1.027   1.815   0.376
  386HOH     H1 1345   1.121   1.831   0.390
  386HOH     H2 1346   0.996   1.781   0.459
  387HOH      O 1347   1.801   2.687   3.828
  387HOH     H1 1348   1.805   2.593   3.843
  387HOH     H2 1349   1.840   2.726   3.906
  388HOH      O 1350   0.218   3.115   1.392
  388HOH     H1 1351   0.305   3.092   1.424
  388HOH     H2 1352   0.211   3.209   1.407
  389HOH      O 1353   2.978   3.916   0.635
  389HOH     H1 1354   3.031   3.836   0.626
  389HOH     H2 1355   2.889   3.884   0.651
  390HOH      O 1356   2.551   1.748   1.489
  390HOH     H1 1357   2.468   1.783   1.519
  390HOH     H2 1358   2.529   1.690   1.417
  391HOH      O 1359   3.994   3.655   3.475
  391HOH     H1 1360   4.070   3.709   3.496
  391HOH     H2 1361   4.001   3.639   3.381
  392HOH      O 1362   3.456   1.070   1.829
  392HOH     H1 1363   3.478   0.977   1.829
  392HOH     H2 1364   3.524   1.110   1.775
  393HOH      O 1365   2.675   1.407   0.883
  393HOH     H1 1366   2.737   1.428   0.813
  393HOH     H2 1367   2.598   1.374   0.838
  394HOH      O 1368   0.013   3.022   2.487
  394HOH     H1 1369  -0.003   3.109   2.450
  394HOH     H2 1370   0.097   3.030   2.533
  395HOH      O 1371   0.076   2.458   3.516
  395HOH     H1 1372   0.065   2.551   3.493
  395HOH     H2 1373   0.018   2.412   3.456
  396HOH      O 1374   3.037   1.069   0.856
  396HOH     H1 1375   3.131   1.053   0.857
  396HOH     H2 1376   3.021   1.128   0.929
  397HOH      O 1377   0.712   3.911   2.431
  397HOH     H1 1378   0.776   3.978   2.408
  397HOH     H2 1379   0.633   3.936   2.384
  398HOH      O 1380   3.357   2.217   1.826
  398HOH     H1 1381   3.338   2.228   1.733
  398HOH     H2 1382   3.366   2.123   1.838
  399HOH      O 1383   3.047   2.442   1.770
  399HOH     H1 1384   3.056   2.351   1.739
  399HOH     H2 1385   2.957   2.466   1.749
  400HOH      O 1386   1.191   3.947   1.377
  400HOH     H1 1387   1.265   3.925   1.320
  400HOH     H2 1388   1.222   4.020   1.430
  401HOH      O 1389   0.592   2.980   3.271
  401HOH     H1 1390   0.660   2.945   3.328
  401HOH     H2 1391   0.621   2.958   3.183
  402HOH      O 1392   3.223   0.701   1.900
  402HOH     H1 1393   3.241   0.617   1.943
  402HOH     H2 1394   3.308   0.729   1.865
  403HOH      O 1395   0.191   3.952   3.263
  403HOH     H1 1396   0.213   3.889   3.331
  403HOH     H2 1397   0.275   3.982   3.229
  404HOH      O 1398   3.891   1.982   2.524
  404HOH     H1 1399   3.814   2.038   2.510
  404HOH     H2 1400   3.885   1.916   2.455
  405HOH      O 1401   3.828   1.143   2.931
  405HOH     H1 1402   3.786   1.197   2.999
  405HOH     H2 1403   3.878   1.078   2.981
  406HOH      O 1404   2.113   0.975   1.326
  406HOH     H1 1405   2.208   0.966   1.334
  406HOH     H2 1406   2.078   0.922   1.397
  407HOH      O 1407   1.929   3.016   3.099
  407HOH     H1 1408   1.969   3.102   3.112
  407HOH     H2 1409   1.991   2.970   3.041
  408HOH      O 1410   1.940   0.842   1.495
  408HOH     H1 1411   1.864   0.788   1.517
  408HOH     H2 1412   1.942   0.909   1.564
  409HOH      O 1413   0.284   0.701   2.758
  409HOH     H1 1414   0.253   0.690   2.668
  409HOH     H2 1415   0.216   0.756   2.799
  410HOH      O 1416   3.746   3.248   3.110
  410HOH     H1 1417   3.802   3.184   3.154
  410HOH     H2 1418   3.787   3.261   3.025
  411HOH      O 1419   1.467   3.268   3.023
  411HOH     H1 1420   1.410   3.341   3.000
  411HOH     H2 1421   1.437   3.241   3.110
  412HOH      O 1422   2.712   0.112   2.915
  412HOH     H1 1423   2.781   0.175   2.936
  412HOH     H2 1424   2.677   0.141   2.831
  413HOH      O 1425   2.443   4.057   1.811
  413HOH     H1 1426   2.524   4.010   1.833
  413HOH     H2 1427   2.375   4.011   1.860
  414HOH      O 1428   0.892   3.376   1.376
  414HOH     H1 1429   0.967   3.328   1.412
  414HOH     H2 1430   0.911   3.467   1.395
  415HOH      O 1431   3.087   0.164   1.958
  415HOH     H1 1432   3.165   0.122   1.995
  415HOH     H2 1433   3.018   0.146   2.022
  416HOH      O 1434   3.409   3.016   1.827
  416HOH     H1 1435   3.477   3.069   1.787
  416HOH     H2 1436   3.434   2.926   1.809
  417HOH      O 1437   1.194   2.748   0.831
  417HOH     H1 1438   1.219   2.793   0.912
  417HOH     H2 1439   1.120   2.693   0.856
  418HOH      O 1440   0.145   1.282   2.705
  418HOH     H1 1441   0.177   1.372   2.708
  418HOH     H2 1442   0.218   1.232   2.668
  419HOH      O 1443   2.333   0.685   2.233
  419HOH     H1 1444   2.365   0.770   2.202
  419HOH     H2 1445   2.409   0.645   2.274
  420HOH      O 1446   2.416   3.534   0.045
  420HOH     H1 1447   2.346   3.469   0.053
  420HOH     H2 1448   2.484   3.489  -0.005
  421HOH      O 1449   2.956   3.568   1.003
  421HOH     H1 1450   2.901   3.490   1.014
  421HOH     H2 1451   2.896   3.641   1.016
  422HOH      O 1452   1.429   0.778   1.530
  422HOH     H1 1453   1.435   0.684   1.514
  422HOH     H2 1454   1.393   0.786   1.618
  423HOH      O 1455   2.810   0.256   2.291
  423HOH     H1 1456   2.903   0.258   2.270
  423HOH     H2 1457   2.793   0.165   2.316
  424HOH      O 1458   3.679   4.024   0.478
  424HOH     H1 1459   3.689   4.007   0.384
  424HOH     H2 1460   3.593   3.988   0.499
  425HOH      O 1461   2.098   3.408   2.542
  425HOH     H1 1462   2.159   3.417   2.469
  425HOH     H2 1463   2.012   3.431   2.506
  426HOH      O 1464   2.338   2.830   1.044
  426HOH     H1 1465   2.382   2.760   1.092
  426HOH     H2 1466   2.297   2.883   1.112
  427HOH      O 1467   2.817   1.726   0.890
  427HOH     H1 1468   2.871   1.756   0.817
  427HOH     H2 1469   2.798   1.634   0.869
  428HOH      O 1470   3.567   0.794   1.571
  428HOH     H1 1471   3.602   0.877   1.538
  428HOH     H2 1472   3.485   0.782   1.524
  429HOH      O 1473   0.700   2.288   1.670
  429HOH     H1 1474   0.712   2.376   1.634
  429HOH     H2 1475   0.772   2.278   1.732
  430HOH      O 1476   2.453   0.528   3.808
  430HOH     H1 1477   2.506   0.573   3.742
  430HOH     H2 1478   2.505   0.452   3.832
  431HOH      O 1479   0.405   1.301   3.290
  431HOH     H1 1480   0.490   1.345   3.276
  431HOH     H2 1481   0.412   1.220   3.239
  432HOH      O 1482   2.936   1.504   2.320
  432HOH     H1 1483   2.949   1.529   2.229
  432HOH     H2 1484   2.865   1.560   2.351
  433HOH      O 1485   0.340   2.220   0.348
  433HOH     H1 1486   0.433   2.222   0.371
  433HOH     H2 1487   0.306   2.141   0.391
  434HOH      O 1488   2.568   1.111   1.499
  434HOH     H1 1489   2.506   1.104   1.572
  434HOH     H2 1490   2.588   1.204   1.493
  435HOH      O 1491   3.907   3.812   1.035
  435HOH     H1 1492   3.862   3.895   1.047
  435HOH     H2 1493   3.902   3.769   1.120
  436HOH      O 1494   2.897   1.576   2.064
  436HOH     H1 1495   2.842   1.649   2.038
  436HOH     H2 1496   2.865   1.502   2.012
  437HOH      O 1497   2.234   0.308   1.224
  437HOH     H1 1498   2.270   0.374   1.283
  437HOH     H2 1499   2.163   0.268   1.274
  438HOH      O 1500   1.216   0.894   3.913
  438HOH     H1 1501   1.281   0.929   3.852
  438HOH     H2 1502   1.133   0.934   3.886
  439HOH      O 1503   3.154   3.524   0.836
  439HOH     H1 1504   3.083   3.558   0.890
  439HOH     H2 1505   3.209   3.475   0.897
  440HOH      O 1506   1.426   1.759   2.491
  440HOH     H1 1507   1.381   1.837   2.458
  440HOH     H2 1508   1.449   1.709   2.412
  441HOH      O 1509   2.749   1.669   2.458
  441HOH     H1 1510   2.722   1.639   2.545
  441HOH     H2 1511   2.674   1.717   2.424
  442HOH      O 1512   3.857   2.802   0.751
  442HOH     H1 1513   3.909   2.813   0.830
  442HOH     H2 1514   3.870   2.711   0.726
  443HOH      O 1515   1.520   1.934   3.408
  443HOH     H1 1516   1.518   1.865   3.341
  443HOH     H2 1517   1.612   1.938   3.436
  444HOH      O 1518   0.370   1.555   1.152
  444HOH     H1 1519   0.353   1.626   1.214
  444HOH     H2 1520   0.459   1.571   1.121
  445HOH      O 1521   0.813   2.799   2.228
  445HOH     H1 1522   0.812   2.815   2.134
  445HOH     H2 1523   0.720   2.789   2.252
  446HOH      O 1524   1.115   0.501   1.464
  446HOH     H1 1525   1.161   0.482   1.382
  446HOH     H2 1526   1.059   0.576   1.445
  447HOH      O 1527   1.457   0.157   3.280
  447HOH     H1 1528   1.528   0.095   3.262
  447HOH     H2 1529   1.489   0.211   3.353
  448HOH      O 1530   1.586   1.760   1.104
  448HOH     H1 1531   1.507   1.707   1.114
  448HOH     H2 1532   1.565   1.843   1.149
  449HOH      O 1533   3.932   2.351   3.126
  449HOH     H1 1534   3.958   2.324   3.214
  449HOH     H2 1535   4.010   2.395   3.091
  450HOH      O 1536   1.974   1.165   2.654
  450HOH     H1 1537   2.037   1.176   2.725
  450HOH     H2 1538   1.888   1.177   2.695
  451HOH      O 1539   1.092   0.712   3.608
  451HOH     H1 1540   1.047   0.651   3.666
  451HOH     H2 1541   1.182   0.717   3.642
  452HOH      O 1542   3.194   3.091   0.183
  452HOH     H1 1543   3.168   3.149   0.112
  452HOH     H2 1544   3.270   3.043   0.148
  453HOH      O 1545   1.705   0.233   0.047
  453HOH     H1 1546   1.765   0.187   0.107
  453HOH     H2 1547   1.665   0.301   0.102
  454HOH      O 1548   2.543   0.321   1.903
  454HOH     H1 1549   2.468   0.270   1.872
  454HOH     H2 1550   2.619   0.278   1.865
  455HOH      O 1551   0.101   1.806   1.905
  455HOH     H1 1552   0.168   1.790   1.972
  455HOH     H2 1553   0.074   1.718   1.877
  456HOH      O 1554   2.688   3.491   0.425
  456HOH     H1 1555   2.635   3.443   0.489
  456HOH     H2 1556   2.691   3.434   0.349
  457HOH      O 1557   1.290   3.857   3.817
  457HOH     H1 1558   1.335   3.886   3.896
  457HOH     H2 1559   1.202   3.891   3.824
  458HOH      O 1560   1.999   2.597   0.244
  458HOH     H1 1561   2.020   2.524   0.303
  458HOH     H2 1562   2.084   2.631   0.216
  459HOH      O 1563   1.653   1.117   2.662
  459HOH     H1 1564   1.645   1.118   2.567
  459HOH     H2 1565   1.650   1.209   2.688
  460HOH      O 1566   0.173   0.973   0.356
  460HOH     H1 1567   0.084   0.952   0.385
  460HOH     H2 1568   0.186   0.919   0.278
  461HOH      O 1569   1.812   0.268   3.576
  461HOH     H1 1570   1.875   0.307   3.515
  461HOH     H2 1571   1.864   0.241   3.651
  462HOH      O 1572   2.675   0.764   0.491
  462HOH     H1 1573   2.700   0.750   0.582
  462HOH     H2 1574   2.737   0.830   0.459
  463HOH      O 1575   0.359   0.904   1.771
  463HOH     H1 1576   0.425   0.972   1.760
  463HOH     H2 1577   0.374   0.844   1.698
  464HOH      O 1578   1.527   3.661   3.465
  464HOH     H1 1579   1.572   3.648   3.381
  464HOH     H2 1580   1.590   3.709   3.519
  465HOH      O 1581   3.499   1.808   0.799
  465HOH     H1 1582   3.585   1.839   0.828
  465HOH     H2 1583   3.453   1.785   0.880
  466HOH      O 1584   2.605   1.558   1.718
  466HOH     H1 1585   2.593   1.587   1.809
  466HOH     H2 1586   2.643   1.634   1.674
  467HOH      O 1587   2.603   1.227   2.997
  467HOH     H1 1588   2.668   1.160   2.972
  467HOH     H2 1589   2.558   1.189   3.072
  468HOH      O 1590   1.788   2.767   0.340
  468HOH     H1 1591   1.856   2.704   0.316
  468HOH     H2 1592   1.797   2.776   0.435
  469HOH      O 1593   3.838   2.076   0.168
  469HOH     H1 1594   3.789   2.005   0.210
  469HOH     H2 1595   3.926   2.042   0.158
  470HOH      O 1596   2.459   2.756   0.410
  470HOH     H1 1597   2.539   2.756   0.462
  470HOH     H2 1598   2.479   2.700   0.336
  471HOH      O 1599   0.370   3.814   0.066
  471HOH     H1 1600   0.466   3.820   0.060
  471HOH     H2 1601   0.352   3.810   0.160
  472HOH      O 1602   0.635   2.675   1.665
  472HOH     H1 1603   0.682   2.682   1.747
  472HOH     H2 1604   0.703   2.667   1.598
  473HOH      O 1605   1.956   2.175   3.097
  473HOH     H1 1606   1.880   2.226   3.123
  473HOH     H2 1607   2.024   2.240   3.081
  474HOH      O 1608   3.857   2.186   1.017
  474HOH     H1 1609   3.767   2.163   0.992
  474HOH     H2 1610   3.848   2.267   1.066
  475HOH      O 1611   1.572   2.493   2.473
  475HOH     H1 1612   1.664   2.467   2.486
  475HOH     H2 1613   1.545   2.529   2.557
  476HOH      O 1614   2.485   2.576   0.216
  476HOH     H1 1615   2.510   2.615   0.132
  476HOH     H2 1616   2.559   2.520   0.239
  477HOH      O 1617   0.933   2.280   3.539
  477HOH     H1 1618   0.930   2.255   3.631
  477HOH     H2 1619   0.998   2.350   3.535
  478HOH      O 1620   1.908   3.841   0.318
  478HOH     H1 1621   1.961   3.796   0.384
  478HOH     H2 1622   1.846   3.893   0.368
  479HOH      O 1623   1.308   0.416   0.299
  479HOH     H1 1624   1.237   0.375   0.348
  479HOH     H2 1625   1.271   0.434   0.212
  480HOH      O 1626   0.707   2.632   2.631
  480HOH     H1 1627   0.748   2.620   2.717
  480HOH     H2 1628   0.623   2.588   2.638
  481HOH      O 1629   3.743   3.388   1.629
  481HOH     H1 1630   3.752   3.339   1.548
  481HOH     H2 1631   3.793   3.469   1.614
  482HOH      O 1632   0.396   3.875   2.717
  482HOH     H1 1633   0.481   3.834   2.705
  482HOH     H2 1634   0.372   3.855   2.808
  483HOH      O 1635   2.111   0.393   0.045
  483HOH     H1 1636   2.073   0.479   0.060
  483HOH     H2 1637   2.203   0.410   0.023
  484HOH      O 1638   1.754   1.368   3.893
  484HOH     H1 1639   1.735   1.460   3.913
  484HOH     H2 1640   1.805   1.372   3.812
  485HOH      O 1641   2.341   3.741   0.916
  485HOH     H1 1642   2.290   3.659   0.915
  485HOH     H2 1643   2.322   3.781   0.831
  486HOH      O 1644   3.728   0.879   2.795
  486HOH     H1 1645   3.795   0.851   2.733
  486HOH     H2 1646   3.767   0.954   2.840
  487HOH      O 1647   0.848   2.283   2.151
  487HOH     H1 1648   0.800   2.362   2.174
  487HOH     H2 1649   0.789   2.211   2.176
  488HOH      O 1650   0.856   1.221   3.458
  488HOH     H1 1651   0.894   1.135   3.438
  488HOH     H2 1652   0.814   1.209   3.543
  489HOH      O 1653   3.003   3.807   3.756
  489HOH     H1 1654   2.926   3.752   3.747
  489HOH     H2 1655   3.075   3.753   3.725
  490HOH      O 1656   3.967   1.185   2.360
  490HOH     H1 1657   4.059   1.160   2.355
  490HOH     H2 1658   3.961   1.234   2.442
  491HOH      O 1659   3.088   1.391   3.877
  491HOH     H1 1660   2.994   1.385   3.890
  491HOH     H2 1661   3.119   1.448   3.948
  492HOH      O 1662   2.369   3.180   0.342
  492HOH     H1 1663   2.275   3.164   0.347
  492HOH     H2 1664   2.377   3.275   0.342
  493HOH      O 1665   1.399   0.877   2.472
  493HOH     H1 1666   1.386   0.821   2.549
  493HOH     H2 1667   1.336   0.948   2.484
  494HOH      O 1668   0.189   0.803   3.017
  494HOH     H1 1669   0.130   0.728   3.013
  494HOH     H2 1670   0.269   0.768   3.057
  495HOH      O 1671   3.377   0.856   1.184
  495HOH     H1 1672   3.305   0.916   1.166
  495HOH     H2 1673   3.372   0.841   1.279
  496HOH      O 1674   0.775   0.697   3.134
  496HOH     H1 1675   0.792   0.790   3.120
  496HOH     H2 1676   0.862   0.657   3.132
  497HOH      O 1677   3.785   3.372   0.554
  497HOH     H1 1678   3.792   3.426   0.633
  497HOH     H2 1679   3.866   3.321   0.552
  498HOH      O 1680   0.437   3.217   3.366
  498HOH     H1 1681   0.454   3.127   3.339
  498HOH     H2 1682   0.437   3.214   3.462
  499HOH      O 1683   2.793   1.753   0.606
  499HOH     H1 1684   2.710   1.775   0.648
  499HOH     H2 1685   2.821   1.834   0.563
  500HOH      O 1686   0.084   3.330   1.769
  500HOH     H1 1687   0.128   3.245   1.755
  500HOH     H2 1688   0.151   3.384   1.811
  501HOH      O 1689   2.390   0.434   0.020
  501HOH     H1 1690   2.402   0.461  -0.072
  501HOH     H2 1691   2.428   0.507   0.070
  502HOH      O 1692   3.936   0.843   2.672
  502HOH     H1 1693   4.006   0.894   2.713
  502HOH     H2 1694   3.964   0.833   2.581
  503HOH      O 1695   3.257   1.472   1.046
  503HOH     H1 1696   3.255   1.385   1.087
  503HOH     H2 1697   3.189   1.522   1.093
  504HOH      O 1698   2.984   0.028   1.094
  504HOH     H1 1699   2.910  -0.007   1.143
  504HOH     H2 1700   3.004   0.112   1.137
  505HOH      O 1701   0.918   0.687   0.164
  505HOH     H1 1702   0.901   0.605   0.211
  505HOH     H2 1703   0.922   0.661   0.072
  506HOH      O 1704   0.397   1.219   1.308
  506HOH     H1 1705   0.481   1.254   1.280
  506HOH     H2 1706   0.398   1.128   1.279
  507HOH      O 1707   2.818   0.088   3.592
  507HOH     H1 1708   2.783   0.021   3.532
  507HOH     H2 1709   2.897   0.047   3.628
  508HOH      O 1710   0.615   2.765   0.728
  508HOH     H1 1711   0.581   2.676   0.716
  508HOH     H2 1712   0.604   2.806   0.642
  509HOH      O 1713   0.597   0.581   1.388
  509HOH     H1 1714   0.535   0.611   1.322
  509HOH     H2 1715   0.683   0.608   1.356
  510HOH      O 1716   2.167   2.197   2.852
  510HOH     H1 1717   2.088   2.250   2.843
  510HOH     H2 1718   2.237   2.261   2.865
  511HOH      O 1719   3.485   1.770   0.520
  511HOH     H1 1720   3.469   1.795   0.611
  511HOH     H2 1721   3.497   1.675   0.523
  512HOH      O 1722   1.210   1.422   3.782
  512HOH     H1 1723   1.216   1.518   3.776
  512HOH     H2 1724   1.166   1.406   3.865
  513HOH      O 1725   3.074   3.248   1.315
  513HOH     H1 1726   3.082   3.184   1.244
  513HOH     H2 1727   3.053   3.196   1.392
  514HOH      O 1728   0.231   2.663   1.308
  514HOH     H1 1729   0.318   2.695   1.283
  514HOH     H2 1730   0.236   2.568   1.299
  515HOH      O 1731   3.716   1.357   1.977
  515HOH     H1 1732   3.755   1.288   1.924
  515HOH     H2 1733   3.706   1.318   2.064
  516HOH      O 1734   0.778   1.983   2.193
  516HOH     H1 1735   0.837   1.995   2.267
  516HOH     H2 1736   0.814   1.909   2.145
  517HOH      O 1737   0.757   3.184   0.805
  517HOH     H1 1738   0.846   3.153   0.792
  517HOH     H2 1739   0.741   3.175   0.899
  518HOH      O 1740   1.602   0.482   0.583
  518HOH     H1 1741   1.687   0.526   0.582
  518HOH     H2 1742   1.541   0.550   0.614
  519HOH      O 1743   1.245   1.033   0.152
  519HOH     H1 1744   1.208   0.978   0.082
  519HOH     H2 1745   1.310   1.087   0.108
  520HOH      O 1746   3.805   2.602   1.482
  520HOH     H1 1747   3.787   2.652   1.402
  520HOH     H2 1748   3.898   2.618   1.499
  521HOH      O 1749   1.626   2.444   0.529
  521HOH     H1 1750   1.577   2.435   0.610
  521HOH     H2 1751   1.587   2.379   0.470
  522HOH      O 1752   3.356   2.459   0.513
  522HOH     H1 1753   3.435   2.503   0.543
  522HOH     H2 1754   3.387   2.394   0.450
  523HOH      O 1755   2.181   1.225   2.063
  523HOH     H1 1756   2.243   1.230   2.136
  523HOH     H2 1757   2.136   1.309   2.063
  524HOH      O 1758   0.768   2.894   2.567
  524HOH     H1 1759   0.756   2.808   2.605
  524HOH     H2 1760   0.690   2.908   2.514
  525HOH      O 1761   3.988   3.002   1.651
  525HOH     H1 1762   3.949   2.915   1.644
  525HOH     H2 1763   4.081   2.985   1.666
  526HOH      O 1764   2.067   0.536   2.927
  526HOH     H1 1765   2.159   0.532   2.902
  526HOH     H2 1766   2.064   0.493   3.012
  527HOH      O 1767   1.707   2.624   0.968
  527HOH     H1 1768   1.648   2.560   0.930
  527HOH     H2 1769   1.699   2.702   0.912
  528HOH      O 1770   2.580   2.345   0.948
  528HOH     H1 1771   2.599   2.438   0.953
  528HOH     H2 1772   2.509   2.338   0.884
  529HOH      O 1773   1.141   3.242   1.399
  529HOH     H1 1774   1.193   3.315   1.363
  529HOH     H2 1775   1.140   3.177   1.329
  530HOH      O 1776   1.673   2.892   0.813
  530HOH     H1 1777   1.728   2.969   0.799
  530HOH     H2 1778   1.612   2.919   0.882
  531HOH      O 1779   3.726   2.355   1.515
  531HOH     H1 1780   3.717   2.380   1.607
  531HOH     H2 1781   3.777   2.427   1.475
  532HOH      O 1782   0.402   0.112   2.839
  532HOH     H1 1783   0.358   0.036   2.800
  532HOH     H2 1784   0.345   0.138   2.912
  533HOH      O 1785   3.466   3.997   2.480
  533HOH     H1 1786   3.478   3.959   2.393
  533HOH     H2 1787   3.484   4.090   2.468
  534HOH      O 1788   1.760   0.650   1.058
  534HOH     H1 1789   1.708   0.674   1.135
  534HOH     H2 1790   1.786   0.734   1.019
  535HOH      O 1791   2.628   0.090   0.420
  535HOH     H1 1792   2.657   0.006   0.384
  535HOH     H2 1793   2.707   0.144   0.423
  536HOH      O 1794   2.528   1.893   2.017
  536HOH     H1 1795   2.611   1.892   2.065
  536HOH     H2 1796   2.504   1.986   2.014
  537HOH      O 1797   3.262   0.798   3.108
  537HOH     H1 1798   3.173   0.829   3.120
  537HOH     H2 1799   3.257   0.703   3.118
  538HOH      O 1800   1.001   3.471   3.029
  538HOH     H1 1801   1.048   3.398   2.988
  538HOH     H2 1802   1.012   3.456   3.123
  539HOH      O 1803   0.770   0.779   3.730
  539HOH     H1 1804   0.758   0.697   3.682
  539HOH     H2 1805   0.792   0.843   3.662
  540HOH      O 1806   2.008   1.317   2.291
  540HOH     H1 1807   2.040   1.372   2.220
  540HOH     H2 1808   2.012   1.228   2.256
  541HOH      O 1809   1.062   2.541   2.098
  541HOH     H1 1810   1.088   2.507   2.012
  541HOH     H2 1811   1.042   2.633   2.082
  542HOH      O 1812   2.551   1.131   2.000
  542HOH     H1 1813   2.590   1.198   2.056
  542HOH     H2 1814   2.517   1.066   2.061
  543HOH      O 1815   3.062   1.549   3.570
  543HOH     H1 1816   3.057   1.456   3.591
  543HOH     H2 1817   3.133   1.555   3.506
  544HOH      O 1818   3.158   0.457   2.955
  544HOH     H1 1819   3.112   0.534   2.921
  544HOH     H2 1820   3.088   0.399   2.985
  545HOH      O 1821   1.650   1.901   3.018
  545HOH     H1 1822   1.606   1.901   2.933
  545HOH     H2 1823   1.607   1.971   3.068
  546HOH      O 1824   3.325   1.082   3.334
  546HOH     H1 1825   3.261   1.011   3.328
  546HOH     H2 1826   3.340   1.094   3.428
  547HOH      O 1827   0.931   0.246   2.890
  547HOH     H1 1828   0.981   0.166   2.901
  547HOH     H2 1829   0.840   0.219   2.900
  548HOH      O 1830   1.164   3.294   3.301
  548HOH     H1 1831   1.221   3.285   3.377
  548HOH     H2 1832   1.106   3.217   3.305
  549HOH      O 1833   0.464   0.595   1.869
  549HOH     H1 1834   0.415   0.651   1.809
  549HOH     H2 1835   0.550   0.584   1.828
  550HOH      O 1836   3.520   3.039   2.318
  550HOH     H1 1837   3.565   2.955   2.333
  550HOH     H2 1838   3.449   3.039   2.382
  551HOH      O 1839   3.921   2.096   2.116
  551HOH     H1 1840   3.876   2.012   2.123
  551HOH     H2 1841   3.858   2.152   2.070
  552HOH      O 1842   1.544   1.835   1.566
  552HOH     H1 1843   1.490   1.812   1.491
  552HOH     H2 1844   1.486   1.888   1.622
  553HOH      O 1845   2.374   2.861   0.773
  553HOH     H1 1846   2.307   2.840   0.838
  553HOH     H2 1847   2.325   2.891   0.697
  554HOH      O 1848   2.201   1.866   2.750
  554HOH     H1 1849   2.191   1.893   2.658
  554HOH     H2 1850   2.111   1.865   2.784
  555HOH      O 1851   3.582   0.232   0.690
  555HOH     H1 1852   3.492   0.224   0.659
  555HOH     H2 1853   3.632   0.258   0.612
  556HOH      O 1854   2.360   2.404   3.170
  556HOH     H1 1855   2.331   2.448   3.090
  556HOH     H2 1856   2.433   2.458   3.202
  557HOH      O 1857   2.773   2.986   0.265
  557HOH     H1 1858   2.785   3.052   0.198
  557HOH     H2 1859   2.856   2.940   0.270
  558HOH      O 1860   2.803   3.949   3.168
  558HOH     H1 1861   2.877   3.972   3.225
  558HOH     H2 1862   2.735   3.921   3.229
  559HOH      O 1863   0.310   2.275   0.077
  559HOH     H1 1864   0.356   2.204   0.032
  559HOH     H2 1865   0.322   2.256   0.170
  560HOH      O 1866   0.923   0.419   3.337
  560HOH     H1 1867   1.003   0.367   3.347
  560HOH     H2 1868   0.953   0.510   3.337
  561HOH      O 1869   3.773   1.282   0.638
  561HOH     H1 1870   3.695   1.229   0.654
  561HOH     H2 1871   3.765   1.310   0.547
  562HOH      O 1872   0.747   1.878   2.860
  562HOH     H1 1873   0.680   1.946   2.853
  562HOH     H2 1874   0.816   1.917   2.913
  563HOH      O 1875   3.699   3.090   0.044
  563HOH     H1 1876   3.713   3.116   0.135
  563HOH     H2 1877   3.721   2.997   0.041
  564HOH      O 1878   1.743   0.660   0.245
  564HOH     H1 1879   1.748   0.568   0.219
  564HOH     H2 1880   1.817   0.671   0.306
  565HOH      O 1881   0.519   3.250   1.741
  565HOH     H1 1882   0.591   3.188   1.729
  565HOH     H2 1883   0.543   3.326   1.688
  566HOH      O 1884   0.409   0.943   2.428
  566HOH     H1 1885   0.500   0.971   2.416
  566HOH     H2 1886   0.412   0.848   2.417
  567HOH      O 1887   0.474   0.669   2.393
  567HOH     H1 1888   0.433   0.623   2.320
  567HOH     H2 1889   0.422   0.645   2.469
  568HOH      O 1890   2.415   1.623   2.299
  568HOH     H1 1891   2.419   1.712   2.335
  568HOH     H2 1892   2.372   1.571   2.366
  569HOH      O 1893   3.469   2.056   2.074
  569HOH     H1 1894   3.491   1.969   2.106
  569HOH     H2 1895   3.395   2.085   2.127
  570HOH      O 1896   1.542   3.554   1.901
  570HOH     H1 1897   1.530   3.509   1.985
  570HOH     H2 1898   1.509   3.493   1.836
  571HOH      O 1899   0.262   2.934   0.710
  571HOH     H1 1900   0.202   2.883   0.655
  571HOH     H2 1901   0.277   2.878   0.786
  572HOH      O 1902   0.807   1.128   1.711
  572HOH     H1 1903   0.883   1.128   1.770
  572HOH     H2 1904   0.846   1.122   1.623
  573HOH      O 1905   2.947   2.084   2.000
  573HOH     H1 1906   2.966   2.117   2.087
  573HOH     H2 1907   2.908   2.158   1.954
  574HOH      O 1908   0.694   0.185   0.928
  574HOH     H1 1909   0.672   0.130   0.853
  574HOH     H2 1910   0.704   0.124   1.001
  575HOH      O 1911   3.968   3.536   1.686
  575HOH     H1 1912   3.989   3.536   1.593
  575HOH     H2 1913   4.021   3.465   1.722
  576HOH      O 1914   1.168   2.339   2.877
  576HOH     H1 1915   1.221   2.370   2.803
  576HOH     H2 1916   1.106   2.278   2.838
  577HOH      O 1917   3.911   2.991   3.454
  577HOH     H1 1918   3.818   2.968   3.449
  577HOH     H2 1919   3.930   3.033   3.370
  578HOH      O 1920   2.833   1.039   1.214
  578HOH     H1 1921   2.785   0.958   1.196
  578HOH     H2 1922   2.788   1.106   1.163
  579HOH      O 1923   0.485   1.569   2.169
  579HOH     H1 1924   0.462   1.631   2.238
  579HOH     H2 1925   0.412   1.575   2.106
  580HOH      O 1926   0.236   0.468   0.182
  580HOH     H1 1927   0.318   0.489   0.137
  580HOH     H2 1928   0.256   0.477   0.275
  581HOH      O 1929   2.021   2.896   2.748
  581HOH     H1 1930   2.097   2.883   2.692
  581HOH     H2 1931   2.025   2.824   2.811
  582HOH      O 1932   2.739   0.715   4.011
  582HOH     H1 1933   2.830   0.685   4.002
  582HOH     H2 1934   2.718   0.751   3.924
  583HOH      O 1935   3.755   2.652   1.894
  583HOH     H1 1936   3.773   2.674   1.985
  583HOH     H2 1937   3.779   2.732   1.846
  584HOH      O 1938   2.362   3.622   0.556
  584HOH     H1 1939   2.410   3.546   0.524
  584HOH     H2 1940   2.351   3.606   0.650
  585HOH      O 1941   1.940   0.265   3.905
  585HOH     H1 1942   1.861   0.254   3.958
  585HOH     H2 1943   1.994   0.327   3.954
  586HOH      O 1944   0.227   0.383   0.694
  586HOH     H1 1945   0.134   0.381   0.716
  586HOH     H2 1946   0.268   0.425   0.770
  587HOH      O 1947   0.557   2.040   2.749
  587HOH     H1 1948   0.567   1.975   2.678
  587HOH     H2 1949   0.486   2.096   2.720
  588HOH      O 1950   1.059   1.636   0.123
  588HOH     H1 1951   1.108   1.695   0.065
  588HOH     H2 1952   1.110   1.635   0.204
  589HOH      O 1953   1.297   3.038   2.604
  589HOH     H1 1954   1.298   3.106   2.536
  589HOH     H2 1955   1.388   3.014   2.616
  590HOH      O 1956   3.523   0.021   1.450
  590HOH     H1 1957   3.483   0.090   1.397
  590HOH     H2 1958   3.582   0.067   1.509
  591HOH      O 1959   0.589   1.549   0.983
  591HOH     H1 1960   0.663   1.518   0.931
  591HOH     H2 1961   0.597   1.645   0.982
  592HOH      O 1962   0.928   3.684   1.409
  592HOH     H1 1963   0.907   3.686   1.502
  592HOH     H2 1964   1.024   3.690   1.406
  593HOH      O 1965   3.074   0.192   3.935
  593HOH     H1 1966   2.998   0.243   3.907
  593HOH     H2 1967   3.138   0.203   3.864
  594HOH      O 1968   3.956   3.344   2.520
  594HOH     H1 1969   3.919   3.409   2.580
  594HOH     H2 1970   3.880   3.297   2.487
  595HOH      O 1971   1.981   0.032   2.821
  595HOH     H1 1972   1.895   0.071   2.838
  595HOH     H2 1973   1.966  -0.062   2.819
  596HOH      O 1974   0.979   1.318   0.270
  596HOH     H1 1975   1.043   1.387   0.253
  596HOH     H2 1976   1.021   1.264   0.338
  597HOH      O 1977   1.524   0.299   3.530
  597HOH     H1 1978   1.610   0.335   3.552
  597HOH     H2 1979   1.469   0.376   3.515
  598HOH      O 1980   0.297   2.907   0.280
  598HOH     H1 1981   0.215   2.859   0.268
  598HOH     H2 1982   0.271   2.986   0.329
  599HOH      O 1983   0.838   1.869   2.572
  599HOH     H1 1984   0.928   1.902   2.571
  599HOH     H2 1985   0.810   1.877   2.663
  600HOH      O 1986   0.065   0.478   3.570
  600HOH     H1 1987   0.138   0.443   3.519
  600HOH     H2 1988  -0.009   0.422   3.547
  601HOH      O 1989   4.015   2.063   1.848
  601HOH     H1 1990   3.968   2.064   1.931
  601HOH     H2 1991   4.073   1.987   1.855
  602HOH      O 1992   3.158   0.058   0.337
  602HOH     H1 1993   3.253   0.047   0.343
  602HOH     H2 1994   3.143   0.085   0.246
  603HOH      O 1995   0.612   2.472   2.162
  603HOH     H1 1996   0.528   2.500   2.199
  603HOH     H2 1997   0.662   2.553   2.152
  604HOH      O 1998   2.533   0.540   0.870
  604HOH     H1 1999   2.451   0.493   0.855
  604HOH     H2 2000   2.511   0.604   0.937
  605HOH      O 2001   2.989   3.936   1.576
  605HOH     H1 2002   2.978   3.888   1.494
  605HOH     H2 2003   3.083   3.952   1.582
  606HOH      O 2004   1.953   0.236   2.467
  606HOH     H1 2005   1.979   0.193   2.385
  606HOH     H2 2006   2.011   0.199   2.533
  607HOH      O 2007   3.826   0.845   3.387
  607HOH     H1 2008   3.733   0.866   3.399
  607HOH     H2 2009   3.872   0.918   3.429
  608HOH      O 2010   0.583   1.884   0.287
  608HOH     H1 2011   0.658   1.855   0.235
  608HOH     H2 2012   0.574   1.818   0.356
  609HOH      O 2013   0.801   2.518   0.334
  609HOH     H1 2014   0.728   2.575   0.311
  609HOH     H2 2015   0.862   2.575   0.380
  610HOH      O 2016   3.467   2.396   1.984
  610HOH     H1 2017   3.419   2.326   1.940
  610HOH     H2 2018   3.432   2.476   1.945
  611HOH      O 2019   2.814   3.455   1.486
  611HOH     H1 2020   2.903   3.462   1.521
  611HOH     H2 2021   2.786   3.546   1.475
  612HOH      O 2022   0.929   0.541   2.393
  612HOH     H1 2023   0.869   0.569   2.462
  612HOH     H2 2024   0.877   0.484   2.337
  613HOH      O 2025   0.228   3.524   3.467
  613HOH     H1 2026   0.285   3.513   3.391
  613HOH     H2 2027   0.156   3.462   3.453
  614HOH      O 2028   1.602   3.899   0.962
  614HOH     H1 2029   1.521   3.866   0.924
  614HOH     H2 2030   1.661   3.910   0.888
  615HOH      O 2031   1.967   1.685   2.481
  615HOH     H1 2032   2.011   1.770   2.470
  615HOH     H2 2033   2.021   1.639   2.545
  616HOH      O 2034   2.272   2.564   0.621
  616HOH     H1 2035   2.361   2.596   0.608
  616HOH     H2 2036   2.280   2.493   0.684
  617HOH      O 2037   1.171   2.534   1.350
  617HOH     H1 2038   1.088   2.516   1.306
  617HOH     H2 2039   1.159   2.619   1.391
  618HOH      O 2040   3.262   3.595   3.428
  618HOH     H1 2041   3.307   3.520   3.391
  618HOH     H2 2042   3.234   3.647   3.352
  619HOH      O 2043   1.110   2.189   1.786
  619HOH     H1 2044   1.126   2.135   1.863
  619HOH     H2 2045   1.092   2.276   1.822
  620HOH      O 2046   3.727   2.933   0.565
  620HOH     H1 2047   3.659   2.986   0.606
  620HOH     H2 2048   3.774   2.892   0.639
  621HOH      O 2049   3.269   2.455   3.932
  621HOH     H1 2050   3.340   2.484   3.875
  621HOH     H2 2051   3.276   2.359   3.933
  622HOH      O 2052   2.215   0.442   2.221
  622HOH     H1 2053   2.222   0.534   2.246
  622HOH     H2 2054   2.151   0.442   2.150
  623HOH      O 2055   2.770   0.299   3.414
  623HOH     H1 2056   2.771   0.220   3.468
  623HOH     H2 2057   2.703   0.283   3.348
  624HOH      O 2058   0.056   2.781   0.568
  624HOH     H1 2059   0.050   2.784   0.473
  624HOH     H2 2060  -0.029   2.814   0.599
  625HOH      O 2061   2.778   0.897   1.480
  625HOH     H1 2062   2.783   0.871   1.388
  625HOH     H2 2063   2.723   0.976   1.479
  626HOH      O 2064   3.775   0.582   0.800
  626HOH     H1 2065   3.801   0.674   0.800
  626HOH     H2 2066   3.679   0.584   0.795
  627HOH      O 2067   2.712   2.317   3.931
  627HOH     H1 2068   2.789   2.261   3.933
  627HOH     H2 2069   2.733   2.384   3.866
  628HOH      O 2070   1.095   0.126   1.699
  628HOH     H1 2071   1.143   0.172   1.629
  628HOH     H2 2072   1.164   0.090   1.755
  629HOH      O 2073   1.503   3.999   2.894
  629HOH     H1 2074   1.535   4.018   2.806
  629HOH     H2 2075   1.528   3.908   2.910
  630HOH      O 2076   2.000   0.073   1.578
  630HOH     H1 2077   2.008   0.159   1.536
  630HOH     H2 2078   1.907   0.065   1.598
  631HOH      O 2079   3.162   1.576   1.971
  631HOH     H1 2080   3.079   1.591   2.016
  631HOH     H2 2081   3.151   1.491   1.929
  632HOH      O 2082   2.926   1.455   0.475
  632HOH     H1 2083   2.958   1.531   0.426
  632HOH     H2 2084   2.844   1.432   0.432
  633HOH      O 2085   2.641   1.541   0.474
  633HOH     H1 2086   2.711   1.588   0.520
  633HOH     H2 2087   2.570   1.605   0.468
  634HOH      O 2088   1.213   0.905   1.110
  634HOH     H1 2089   1.199   0.918   1.204
  634HOH     H2 2090   1.307   0.917   1.098
  635HOH      O 2091   2.399   3.505   1.787
  635HOH     H1 2092   2.325   3.558   1.756
  635HOH     H2 2093   2.424   3.546   1.870
  636HOH      O 2094   2.300   3.885   0.689
  636HOH     H1 2095   2.379   3.936   0.704
  636HOH     H2 2096   2.285   3.891   0.595
  637HOH      O 2097   1.474   1.695   0.045
  637HOH     H1 2098   1.456   1.755  -0.028
  637HOH     H2 2099   1.470   1.751   0.123
  638HOH      O 2100   0.578   3.374   2.477
  638HOH     H1 2101   0.522   3.312   2.431
  638HOH     H2 2102   0.667   3.348   2.454
  639HOH      O 2103   3.160   0.624   0.793
  639HOH     H1 2104   3.075   0.666   0.787
  639HOH     H2 2105   3.141   0.530   0.785
  640HOH      O 2106   0.292   1.512   0.605
  640HOH     H1 2107   0.342   1.475   0.678
  640HOH     H2 2108   0.273   1.601   0.632
  641HOH      O 2109   3.280   0.328   0.417
  641HOH     H1 2110   3.209   0.290   0.366
  641HOH     H2 2111   3.347   0.350   0.352
  642HOH      O 2112   3.140   0.775   2.309
  642HOH     H1 2113   3.177   0.808   2.227
  642HOH     H2 2114   3.139   0.850   2.367
  643HOH      O 2115   0.139   0.604   1.999
  643HOH     H1 2116   0.126   0.676   1.937
  643HOH     H2 2117   0.076   0.537   1.972
  644HOH      O 2118   2.426   0.020   3.572
  644HOH     H1 2119   2.520   0.034   3.572
  644HOH     H2 2120   2.391   0.089   3.629
  645HOH      O 2121   1.797   3.848   2.731
  645HOH     H1 2122   1.844   3.773   2.695
  645HOH     H2 2123   1.809   3.918   2.668
  646HOH      O 2124   0.624   3.786   0.214
  646HOH     H1 2125   0.675   3.774   0.134
  646HOH     H2 2126   0.650   3.871   0.247
  647HOH      O 2127   2.708   2.271   2.344
  647HOH     H1 2128   2.693   2.319   2.262
  647HOH     H2 2129   2.798   2.292   2.368
  648HOH      O 2130   1.257   2.957   3.448
  648HOH     H1 2131   1.212   2.874   3.434
  648HOH     H2 2132   1.284   2.956   3.540
  649HOH      O 2133   0.171   0.707   2.522
  649HOH     H1 2134   0.115   0.663   2.458
  649HOH     H2 2135   0.144   0.799   2.519
  650HOH      O 2136   1.436   0.470   3.851
  650HOH     H1 2137   1.418   0.379   3.872
  650HOH     H2 2138   1.365   0.519   3.892
  651HOH      O 2139   3.083   2.217   3.303
  651HOH     H1 2140   3.092   2.284   3.370
  651HOH     H2 2141   3.158   2.159   3.318
  652HOH      O 2142   0.811   3.091   1.538
  652HOH     H1 2143   0.867   3.167   1.550
  652HOH     H2 2144   0.808   3.078   1.443
  653HOH      O 2145   0.334   3.711   1.455
  653HOH     H1 2146   0.304   3.750   1.372
  653HOH     H2 2147   0.428   3.702   1.444
  654HOH      O 2148   1.332   0.674   2.784
  654HOH     H1 2149   1.253   0.693   2.834
  654HOH     H2 2150   1.379   0.610   2.837
  655HOH      O 2151   1.309   3.574   3.618
  655HOH     H1 2152   1.384   3.607   3.569
  655HOH     H2 2153   1.271   3.652   3.659
  656HOH      O 2154   3.086   4.035   3.642
  656HOH     H1 2155   3.053   3.979   3.713
  656HOH     H2 2156   3.179   4.044   3.660
  657HOH      O 2157   2.262   3.563   2.922
  657HOH     H1 2158   2.223   3.475   2.916
  657HOH     H2 2159   2.257   3.585   3.015
  658HOH      O 2160   3.248   3.314   1.857
  658HOH     H1 2161   3.239   3.401   1.894
  658HOH     H2 2162   3.333   3.316   1.812
  659HOH      O 2163   3.498   3.086   0.667
  659HOH     H1 2164   3.497   3.181   0.677
  659HOH     H2 2165   3.433   3.068   0.599
  660HOH      O 2166   0.312   1.989   3.405
  660HOH     H1 2167   0.306   1.920   3.471
  660HOH     H2 2168   0.298   2.070   3.455
  661HOH      O 2169   1.874   3.767   1.328
  661HOH     H1 2170   1.830   3.802   1.405
  661HOH     H2 2171   1.946   3.714   1.364
  662HOH      O 2172   2.594   2.027   0.543
  662HOH     H1 2173   2.578   1.976   0.623
  662HOH     H2 2174   2.679   1.996   0.512
  663HOH      O 2175   3.002   2.304   2.637
  663HOH     H1 2176   2.945   2.242   2.682
  663HOH     H2 2177   2.952   2.385   2.632
  664HOH      O 2178   2.727   2.764   0.465
  664HOH     H1 2179   2.736   2.830   0.397
  664HOH     H2 2180   2.780   2.796   0.537
  665HOH      O 2181   1.604   0.169   0.639
  665HOH     H1 2182   1.654   0.159   0.720
  665HOH     H2 2183   1.599   0.264   0.626
  666HOH      O 2184   3.309   3.657   0.014
  666HOH     H1 2185   3.214   3.665   0.008
  666HOH     H2 2186   3.325   3.564   0.031
  667HOH      O 2187   2.427   2.202   3.361
  667HOH     H1 2188   2.406   2.273   3.300
  667HOH     H2 2189   2.345   2.152   3.368
  668HOH      O 2190   1.672   1.850   2.554
  668HOH     H1 2191   1.740   1.786   2.576
  668HOH     H2 2192   1.592   1.799   2.546
  669HOH      O 2193   0.716   0.040   1.554
  669HOH     H1 2194   0.758   0.092   1.622
  669HOH     H2 2195   0.773   0.051   1.477
  670HOH      O 2196   3.710   3.643   0.006
  670HOH     H1 2197   3.678   3.663   0.094
  670HOH     H2 2198   3.672   3.711  -0.050
  671HOH      O 2199   3.095   2.016   2.630
  671HOH     H1 2200   3.045   2.052   2.703
  671HOH     H2 2201   3.145   2.091   2.596
  672HOH      O 2202   1.142   2.841   1.413
  672HOH     H1 2203   1.232   2.866   1.395
  672HOH     H2 2204   1.091   2.880   1.342
  673HOH      O 2205   3.394   2.923   0.469
  673HOH     H1 2206   3.341   2.844   0.461
  673HOH     H2 2207   3.331   2.995   0.464
  674HOH      O 2208   1.106   1.773   2.215
  674HOH     H1 2209   1.035   1.768   2.151
  674HOH     H2 2210   1.177   1.721   2.177
  675HOH      O 2211   3.077   0.676   3.998
  675HOH     H1 2212   3.125   0.614   3.943
  675HOH     H2 2213   3.044   0.742   3.938
  676HOH      O 2214   3.223   2.127   1.394
  676HOH     H1 2215   3.254   2.135   1.303
  676HOH     H2 2216   3.136   2.088   1.386
  677HOH      O 2217   3.511   2.470   1.111
  677HOH     H1 2218   3.504   2.565   1.121
  677HOH     H2 2219   3.602   2.450   1.129
  678HOH      O 2220   3.053   3.681   2.528
  678HOH     H1 2221   3.000   3.756   2.502
  678HOH     H2 2222   3.142   3.715   2.534
  679HOH      O 2223   3.190   3.141   3.228
  679HOH     H1 2224   3.117   3.105   3.278
  679HOH     H2 2225   3.151   3.211   3.175
  680HOH      O 2226   0.951   0.630   1.073
  680HOH     H1 2227   0.890   0.584   1.016
  680HOH     H2 2228   1.010   0.676   1.013
  681HOH      O 2229   2.431   1.530   3.768
  681HOH     H1 2230   2.461   1.590   3.837
  681HOH     H2 2231   2.351   1.491   3.803
  682HOH      O 2232   1.352   3.803   0.916
  682HOH     H1 2233   1.383   3.859   0.845
  682HOH     H2 2234   1.295   3.860   0.968
  683HOH      O 2235   1.125   1.477   2.555
  683HOH     H1 2236   1.067   1.547   2.525
  683HOH     H2 2237   1.193   1.523   2.605
  684HOH      O 2238   0.719   0.495   2.200
  684HOH     H1 2239   0.653   0.445   2.249
  684HOH     H2 2240   0.748   0.434   2.132
  685HOH      O 2241   3.976   2.545   0.431
  685HOH     H1 2242   4.008   2.459   0.402
  685HOH     H2 2243   4.015   2.607   0.370
  686HOH      O 2244   1.967   1.131   3.017
  686HOH     H1 2245   1.972   1.191   3.091
  686HOH     H2 2246   2.043   1.151   2.963
  687HOH      O 2247   0.984   2.039   0.245
  687HOH     H1 2248   0.984   1.955   0.291
  687HOH     H2 2249   0.967   2.103   0.314
  688HOH      O 2250   3.677   0.081   0.182
  688HOH     H1 2251   3.694   0.073   0.088
  688HOH     H2 2252   3.762   0.063   0.223
  689HOH      O 2253   2.127   1.181   1.773
  689HOH     H1 2254   2.114   1.275   1.774
  689HOH     H2 2255   2.154   1.159   1.862
  690HOH      O 2256   2.037   2.699   3.653
  690HOH     H1 2257   1.975   2.725   3.721
  690HOH     H2 2258   2.085   2.625   3.691
  691HOH      O 2259   3.964   3.368   1.140
  691HOH     H1 2260   3.874   3.373   1.106
  691HOH     H2 2261   3.962   3.421   1.219
  692HOH      O 2262   3.192   1.077   1.624
  692HOH     H1 2263   3.227   1.087   1.713
  692HOH     H2 2264   3.166   0.985   1.618
  693HOH      O 2265   3.256   2.026   3.346
  693HOH     H1 2266   3.323   2.018   3.279
  693HOH     H2 2267   3.208   1.943   3.343
  694HOH      O 2268   4.054   3.369   3.317
  694HOH     H1 2269   4.036   3.461   3.301
  694HOH     H2 2270   3.988   3.343   3.382
  695HOH      O 2271   0.348   1.664   1.642
  695HOH     H1 2272   0.351   1.693   1.551
  695HOH     H2 2273   0.399   1.730   1.690
  696HOH      O 2274   2.121   4.016   1.069
  696HOH     H1 2275   2.176   3.937   1.076
  696HOH     H2 2276   2.034   3.987   1.097
  697HOH      O 2277   4.003   4.010   2.252
  697HOH     H1 2278   3.987   3.958   2.330
  697HOH     H2 2279   4.091   3.986   2.224
  698HOH      O 2280   2.903   2.876   3.479
  698HOH     H1 2281   2.932   2.787   3.496
  698HOH     H2 2282   2.853   2.870   3.397
  699HOH      O 2283   1.405   2.576   3.583
  699HOH     H1 2284   1.384   2.597   3.674
  699HOH     H2 2285   1.490   2.619   3.569
  700HOH      O 2286   1.342   2.975   3.720
  700HOH     H1 2287   1.314   3.060   3.755
  700HOH     H2 2288   1.362   2.924   3.798
  701HOH      O 2289   2.661   3.321   0.212
  701HOH     H1 2290   2.607   3.244   0.230
  701HOH     H2 2291   2.751   3.288   0.212
  702HOH      O 2292   3.651   1.135   1.648
  702HOH     H1 2293   3.681   1.226   1.639
  702HOH     H2 2294   3.732   1.085   1.664
  703HOH      O 2295   2.654   0.753   0.759
  703HOH     H1 2296   2.625   0.841   0.783
  703HOH     H2 2297   2.592   0.695   0.802
  704HOH      O 2298   2.221   0.704   1.905
  704HOH     H1 2299   2.310   0.671   1.917
  704HOH     H2 2300   2.208   0.764   1.978
  705HOH      O 2301   0.109   2.700   0.249
  705HOH     H1 2302   0.184   2.642   0.238
  705HOH     H2 2303   0.092   2.735   0.162
  706HOH      O 2304   1.685   1.020   0.323
  706HOH     H1 2305   1.641   0.999   0.240
  706HOH     H2 2306   1.665   1.112   0.338
  707HOH      O 2307   3.131   1.933   2.943
  707HOH     H1 2308   3.180   1.852   2.932
  707HOH     H2 2309   3.041   1.910   2.918
  708HOH      O 2310   1.785   1.760   0.890
  708HOH     H1 2311   1.817   1.849   0.874
  708HOH     H2 2312   1.738   1.765   0.973
  709HOH      O 2313   0.772   1.432   1.204
  709HOH     H1 2314   0.699   1.446   1.144
  709HOH     H2 2315   0.733   1.436   1.291
  710HOH      O 2316   0.793   1.476   0.500
  710HOH     H1 2317   0.848   1.504   0.427
  710HOH     H2 2318   0.705   1.504   0.475
  711HOH      O 2319   1.671   3.804   1.845
  711HOH     H1 2320   1.643   3.727   1.895
  711HOH     H2 2321   1.677   3.772   1.755
  712HOH      O 2322   1.329   3.145   0.308
  712HOH     H1 2323   1.386   3.069   0.320
  712HOH     H2 2324   1.269   3.118   0.239
  713HOH      O 2325   1.743   3.232   3.242
  713HOH     H1 2326   1.668   3.276   3.282
  713HOH     H2 2327   1.710   3.147   3.214
  714HOH      O 2328   1.147   3.714   1.748
  714HOH     H1 2329   1.171   3.634   1.795
  714HOH     H2 2330   1.061   3.694   1.710
  715HOH      O 2331   2.857   1.873   2.327
  715HOH     H1 2332   2.830   1.816   2.399
  715HOH     H2 2333   2.949   1.852   2.313
  716HOH      O 2334   0.823   0.944   3.503
  716HOH     H1 2335   0.733   0.958   3.475
  716HOH     H2 2336   0.859   0.884   3.437
  717HOH      O 2337   2.705   1.485   3.851
  717HOH     H1 2338   2.619   1.445   3.865
  717HOH     H2 2339   2.742   1.494   3.939
  718HOH      O 2340   1.911   3.102   0.175
  718HOH     H1 2341   1.890   3.191   0.202
  718HOH     H2 2342   1.830   3.070   0.135
  719HOH      O 2343   2.837   2.429   0.611
  719HOH     H1 2344   2.918   2.402   0.568
  719HOH     H2 2345   2.768   2.403   0.550
  720HOH      O 2346   2.856   1.124   0.663
  720HOH     H1 2347   2.939   1.141   0.706
  720HOH     H2 2348   2.874   1.052   0.602
  721HOH      O 2349   0.897   1.776   2.044
  721HOH     H1 2350   0.862   1.688   2.028
  721HOH     H2 2351   0.897   1.818   1.958
  722HOH      O 2352   1.361   3.581   2.412
  722HOH     H1 2353   1.406   3.510   2.367
  722HOH     H2 2354   1.268   3.564   2.395
  723HOH      O 2355   3.574   3.578   3.720
  723HOH     H1 2356   3.539   3.491   3.705
  723HOH     H2 2357   3.647   3.586   3.658
  724HOH      O 2358   0.369   2.670   3.752
  724HOH     H1 2359   0.415   2.628   3.825
  724HOH     H2 2360   0.430   2.664   3.678
  725HOH      O 2361   3.572   1.786   2.147
  725HOH     H1 2362   3.481   1.759   2.137
  725HOH     H2 2363   3.584   1.796   2.241
  726HOH      O 2364   2.221   0.986   2.597
  726HOH     H1 2365   2.263   0.908   2.560
  726HOH     H2 2366   2.180   0.954   2.678
  727HOH      O 2367   1.937   0.876   0.396
  727HOH     H1 2368   1.854   0.894   0.353
  727HOH     H2 2369   1.997   0.856   0.323
  728HOH      O 2370   3.325   2.007   3.640
  728HOH     H1 2371   3.235   1.973   3.637
  728HOH     H2 2372   3.334   2.056   3.558
  729HOH      O 2373   0.478   3.624   2.504
  729HOH     H1 2374   0.461   3.621   2.410
  729HOH     H2 2375   0.541   3.554   2.519
  730HOH      O 2376   0.054   0.130   3.609
  730HOH     H1 2377   0.036   0.186   3.684
  730HOH     H2 2378   0.046   0.041   3.643
  731HOH      O 2379   3.291   1.080   0.859
  731HOH     H1 2380   3.359   1.120   0.914
  731HOH     H2 2381   3.305   0.986   0.867
  732HOH      O 2382   1.948   3.213   2.389
  732HOH     H1 2383   1.939   3.212   2.484
  732HOH     H2 2384   1.916   3.299   2.363
  733HOH      O 2385   1.955   0.995   3.917
  733HOH     H1 2386   1.903   1.062   3.961
  733HOH     H2 2387   1.947   0.918   3.972
  734HOH      O 2388   0.301   3.875   2.964
  734HOH     H1 2389   0.308   3.849   3.056
  734HOH     H2 2390   0.207   3.881   2.948
  735HOH      O 2391   2.009   2.294   1.492
  735HOH     H1 2392   1.968   2.259   1.413
  735HOH     H2 2393   1.974   2.240   1.563
  736HOH      O 2394   0.731   4.014   3.238
  736HOH     H1 2395   0.708   3.925   3.211
  736HOH     H2 2396   0.648   4.060   3.243
  737HOH      O 2397   2.884   0.501   0.147
  737HOH     H1 2398   2.912   0.590   0.167
  737HOH     H2 2399   2.816   0.481   0.212
  738HOH      O 2400   0.247   1.216   3.520
  738HOH     H1 2401   0.203   1.292   3.558
  738HOH     H2 2402   0.272   1.244   3.432
  739HOH      O 2403   3.889   1.851   3.864
  739HOH     H1 2404   3.842   1.798   3.929
  739HOH     H2 2405   3.978   1.857   3.898
  740HOH      O 2406   2.933   0.403   1.991
  740HOH     H1 2407   2.886   0.324   1.965
  740HOH     H2 2408   2.987   0.425   1.915
  741HOH      O 2409   2.993   3.148   2.561
  741HOH     H1 2410   3.002   3.128   2.654
  741HOH     H2 2411   2.978   3.242   2.557
  742HOH      O 2412   3.790   3.084   1.096
  742HOH     H1 2413   3.719   3.083   1.160
  742HOH     H2 2414   3.766   3.155   1.035
  743HOH      O 2415   2.494   1.007   2.758
  743HOH     H1 2416   2.470   1.007   2.851
  743HOH     H2 2417   2.462   0.924   2.725
  744HOH      O 2418   0.352   3.947   2.452
  744HOH     H1 2419   0.302   3.866   2.451
  744HOH     H2 2420   0.376   3.960   2.544
  745HOH      O 2421   2.126   1.833   0.495
  745HOH     H1 2422   2.062   1.786   0.548
  745HOH     H2 2423   2.145   1.773   0.422
  746HOH      O 2424   1.759   1.112   1.169
  746HOH     H1 2425   1.804   1.165   1.103
  746HOH     H2 2426   1.798   1.025   1.160
  747HOH      O 2427   2.437   3.937   3.295
  747HOH     H1 2428   2.342   3.936   3.308
  747HOH     H2 2429   2.457   3.851   3.258
  748HOH      O 2430   0.850   0.670   1.317
  748HOH     H1 2431   0.915   0.721   1.366
  748HOH     H2 2432   0.887   0.660   1.230
  749HOH      O 2433   2.397   2.133   2.671
  749HOH     H1 2434   2.345   2.075   2.614
  749HOH     H2 2435   2.337   2.157   2.741
  750HOH      O 2436   0.715   3.592   2.249
  750HOH     H1 2437   0.798   3.545   2.255
  750HOH     H2 2438   0.738   3.683   2.270
  751HOH      O 2439   2.103   1.042   3.381
  751HOH     H1 2440   2.130   1.095   3.307
  751HOH     H2 2441   2.183   1.024   3.429
  752HOH      O 2442   0.709   2.037   0.050
  752HOH     H1 2443   0.731   2.128   0.068
  752HOH     H2 2444   0.703   1.997   0.137
  753HOH      O 2445   1.856   2.373   2.512
  753HOH     H1 2446   1.864   2.378   2.417
  753HOH     H2 2447   1.855   2.279   2.531
  754HOH      O 2448   2.593   3.727   3.590
  754HOH     H1 2449   2.545   3.734   3.672
  754HOH     H2 2450   2.564   3.645   3.552
  755HOH      O 2451   0.230   3.226   0.297
  755HOH     H1 2452   0.194   3.303   0.342
  755HOH     H2 2453   0.156   3.167   0.288
  756HOH      O 2454   3.447   3.395   3.583
  756HOH     H1 2455   3.413   3.389   3.494
  756HOH     H2 2456   3.402   3.327   3.631
  757HOH      O 2457   1.298   3.589   0.165
  757HOH     H1 2458   1.385   3.558   0.140
  757HOH     H2 2459   1.276   3.538   0.243
  758HOH      O 2460   2.271   2.085   0.160
  758HOH     H1 2461   2.325   2.037   0.098
  758HOH     H2 2462   2.248   2.167   0.115
  759HOH      O 2463   3.447   0.383   1.064
  759HOH     H1 2464   3.359   0.368   1.096
  759HOH     H2 2465   3.446   0.471   1.028
  760HOH      O 2466   3.892   0.811   0.641
  760HOH     H1 2467   3.923   0.901   0.654
  760HOH     H2 2468   3.805   0.820   0.604
  761HOH      O 2469   3.159   3.990   4.049
  761HOH     H1 2470   3.137   4.075   4.011
  761HOH     H2 2471   3.243   3.966   4.009
  762HOH      O 2472   1.340   0.155   3.035
  762HOH     H1 2473   1.388   0.089   2.985
  762HOH     H2 2474   1.371   0.144   3.125
  763HOH      O 2475   0.282   2.547   0.106
  763HOH     H1 2476   0.360   2.581   0.063
  763HOH     H2 2477   0.278   2.455   0.080
  764HOH      O 2478   3.264   2.269   2.585
  764HOH     H1 2479   3.289   2.335   2.521
  764HOH     H2 2480   3.173   2.291   2.607
  765HOH      O 2481   3.752   0.272   0.884
  765HOH     H1 2482   3.689   0.286   0.812
  765HOH     H2 2483   3.736   0.345   0.943
  766HOH      O 2484   2.921   0.409   3.910
  766HOH     H1 2485   2.993   0.457   3.869
  766HOH     H2 2486   2.909   0.451   3.995
  767HOH      O 2487   3.343   3.822   1.950
  767HOH     H1 2488   3.367   3.802   1.860
  767HOH     H2 2489   3.405   3.890   1.977
  768HOH      O 2490   1.271   1.094   2.547
  768HOH     H1 2491   1.183   1.128   2.565
  768HOH     H2 2492   1.330   1.155   2.592
  769HOH      O 2493   1.800   1.894   1.394
  769HOH     H1 2494   1.719   1.923   1.435
  769HOH     H2 2495   1.853   1.974   1.386
  770HOH      O 2496   1.202   2.751   3.279
  770HOH     H1 2497   1.227   2.674   3.228
  770HOH     H2 2498   1.261   2.820   3.250
  771HOH      O 2499   1.536   3.148   1.519
  771HOH     H1 2500   1.614   3.104   1.552
  771HOH     H2 2501   1.463   3.103   1.561
  772HOH      O 2502   1.181   0.922   2.080
  772HOH     H1 2503   1.186   0.847   2.140
  772HOH     H2 2504   1.088   0.945   2.078
  773HOH      O 2505   1.109   0.209   3.259
  773HOH     H1 2506   1.030   0.161   3.285
  773HOH     H2 2507   1.172   0.140   3.238
  774HOH      O 2508   1.648   2.967   3.280
  774HOH     H1 2509   1.660   2.964   3.375
  774HOH     H2 2510   1.732   2.939   3.244
  775HOH      O 2511   0.303   0.548   3.263
  775HOH     H1 2512   0.394   0.578   3.253
  775HOH     H2 2513   0.277   0.522   3.175
  776HOH      O 2514   1.789   2.694   3.244
  776HOH     H1 2515   1.756   2.622   3.298
  776HOH     H2 2516   1.846   2.744   3.303
  777HOH      O 2517   1.215   0.617   3.937
  777HOH     H1 2518   1.128   0.595   3.901
  777HOH     H2 2519   1.213   0.712   3.948
  778HOH      O 2520   2.823   3.673   0.591
  778HOH     H1 2521   2.764   3.669   0.666
  778HOH     H2 2522   2.775   3.630   0.520
  779HOH      O 2523   2.199  -0.016   3.971
  779HOH     H1 2524   2.234  -0.038   3.884
  779HOH     H2 2525   2.247   0.064   3.996
  780HOH      O 2526   0.311   1.499   0.335
  780HOH     H1 2527   0.266   1.415   0.331
  780HOH     H2 2528   0.320   1.518   0.428
  781HOH      O 2529   0.592   0.128   1.810
  781HOH     H1 2530   0.526   0.197   1.826
  781HOH     H2 2531   0.676   0.173   1.820
  782HOH      O 2532   0.674   3.766   2.669
  782HOH     H1 2533   0.595   3.724   2.634
  782HOH     H2 2534   0.711   3.812   2.594
  783HOH      O 2535   1.310   2.797   2.133
  783HOH     H1 2536   1.342   2.731   2.195
  783HOH     H2 2537   1.280   2.746   2.057
  784HOH      O 2538   0.877   3.587   2.749
  784HOH     H1 2539   0.950   3.647   2.744
  784HOH     H2 2540   0.799   3.643   2.743
  785HOH      O 2541   1.409   1.227   4.012
  785HOH     H1 2542   1.404   1.320   4.034
  785HOH     H2 2543   1.324   1.207   3.972
  786HOH      O 2544   2.083   0.492   1.963
  786HOH     H1 2545   2.000   0.518   2.003
  786HOH     H2 2546   2.116   0.572   1.922
  787HOH      O 2547   3.847   2.272   3.988
  787HOH     H1 2548   3.832   2.203   4.054
  787HOH     H2 2549   3.942   2.270   3.974
  788HOH      O 2550   3.640   3.775   0.277
  788HOH     H1 2551   3.577   3.806   0.212
  788HOH     H2 2552   3.586   3.739   0.347
  789HOH      O 2553   3.740   1.371   1.549
  789HOH     H1 2554   3.693   1.440   1.501
  789HOH     H2 2555   3.809   1.417   1.596
  790HOH      O 2556   1.445   3.950   0.696
  790HOH     H1 2557   1.479   4.037   0.676
  790HOH     H2 2558   1.500   3.891   0.645
  791HOH      O 2559   2.238   2.944   3.481
  791HOH     H1 2560   2.228   2.850   3.499
  791HOH     H2 2561   2.148   2.978   3.487
  792HOH      O 2562   2.678   1.199   1.078
  792HOH     H1 2563   2.674   1.267   1.012
  792HOH     H2 2564   2.593   1.204   1.123
  793HOH      O 2565   0.249   1.846   0.882
  793HOH     H1 2566   0.210   1.922   0.925
  793HOH     H2 2567   0.179   1.781   0.880
  794HOH      O 2568   1.209   3.092   0.870
  794HOH     H1 2569   1.269   3.164   0.891
  794HOH     H2 2570   1.250   3.047   0.796
  795HOH      O 2571   0.024   3.915   3.713
  795HOH     H1 2572   0.102   3.883   3.668
  795HOH     H2 2573   0.039   3.894   3.805
  796HOH      O 2574   0.797  -0.003   0.265
  796HOH     H1 2575   0.801   0.055   0.342
  796HOH     H2 2576   0.887  -0.032   0.252
  797HOH      O 2577   0.656   2.909   0.508
  797HOH     H1 2578   0.669   3.001   0.532
  797HOH     H2 2579   0.658   2.909   0.412
  798HOH      O 2580   2.376   2.036   2.995
  798HOH     H1 2581   2.330   2.026   2.912
  798HOH     H2 2582   2.426   2.117   2.986
  799HOH      O 2583   1.014   0.266   2.524
  799HOH     H1 2584   0.976   0.183   2.493
  799HOH     H2 2585   0.949   0.332   2.501
  800HOH      O 2586   3.500   2.948   3.202
  800HOH     H1 2587   3.571   2.891   3.172
  800HOH     H2 2588   3.538   3.000   3.272
  801HOH      O 2589   1.076   2.561   2.988
  801HOH     H1 2590   1.154   2.585   3.040
  801HOH     H2 2591   1.090   2.469   2.966
  802HOH      O 2592   1.772   1.954   3.683
  802HOH     H1 2593   1.729   1.871   3.663
  802HOH     H2 2594   1.823   1.937   3.762
  803HOH      O 2595   0.491   0.576   2.853
  803HOH     H1 2596   0.424   0.641   2.834
  803HOH     H2 2597   0.573   0.624   2.848
  804HOH      O 2598   1.328   0.355   1.904
  804HOH     H1 2599   1.273   0.294   1.953
  804HOH     H2 2600   1.408   0.362   1.956
  805HOH      O 2601   1.275   2.029   2.904
  805HOH     H1 2602   1.221   2.070   2.836
  805HOH     H2 2603   1.342   1.980   2.856
  806HOH      O 2604   2.759   2.083   1.698
  806HOH     H1 2605   2.854   2.073   1.693
  806HOH     H2 2606   2.728   2.000   1.735
  807HOH      O 2607   2.283   2.315   3.625
  807HOH     H1 2608   2.267   2.348   3.714
  807HOH     H2 2609   2.349   2.246   3.637
  808HOH      O 2610   0.356   0.487   0.429
  808HOH     H1 2611   0.293   0.446   0.488
  808HOH     H2 2612   0.382   0.567   0.473
  809HOH      O 2613   3.301   2.637   3.098
  809HOH     H1 2614   3.250   2.666   3.023
  809HOH     H2 2615   3.393   2.643   3.069
  810HOH      O 2616   2.395   0.918   0.853
  810HOH     H1 2617   2.382   0.941   0.762
  810HOH     H2 2618   2.481   0.954   0.875
  811HOH      O 2619   2.262   3.464   0.321
  811HOH     H1 2620   2.319   3.541   0.329
  811HOH     H2 2621   2.177   3.500   0.295
  812HOH      O 2622   0.980   1.015   2.364
  812HOH     H1 2623   1.056   1.072   2.352
  812HOH     H2 2624   0.998   0.969   2.446
  813HOH      O 2625   3.131   1.337   0.242
  813HOH     H1 2626   3.191   1.405   0.274
  813HOH     H2 2627   3.131   1.349   0.146
  814HOH      O 2628   0.067   3.322   0.732
  814HOH     H1 2629   0.054   3.235   0.769
  814HOH     H2 2630   0.120   3.307   0.654
  815HOH      O 2631   0.871   3.421   3.947
  815HOH     H1 2632   0.805   3.361   3.912
  815HOH     H2 2633   0.951   3.400   3.898
  816HOH      O 2634   3.565   0.842   0.138
  816HOH     H1 2635   3.619   0.792   0.199
  816HOH     H2 2636   3.536   0.778   0.073
  817HOH      O 2637   1.895   4.007   4.039
  817HOH     H1 2638   1.946   4.033   3.962
  817HOH     H2 2639   1.804   4.004   4.007
  818HOH      O 2640   1.770   0.894   3.735
  818HOH     H1 2641   1.829   0.933   3.799
  818HOH     H2 2642   1.816   0.903   3.652
  819HOH      O 2643   3.892   3.320   3.540
  819HOH     H1 2644   3.937   3.370   3.609
  819HOH     H2 2645   3.834   3.260   3.588
  820HOH      O 2646   1.414   2.562   1.143
  820HOH     H1 2647   1.367   2.590   1.222
  820HOH     H2 2648   1.431   2.643   1.096
  821HOH      O 2649   0.369   1.232   2.927
  821HOH     H1 2650   0.383   1.205   2.836
  821HOH     H2 2651   0.401   1.322   2.930
  822HOH      O 2652   2.244   2.000   3.473
  822HOH     H1 2653   2.186   2.061   3.517
  822HOH     H2 2654   2.209   1.993   3.384
  823HOH      O 2655   3.834   0.774   3.715
  823HOH     H1 2656   3.870   0.861   3.729
  823HOH     H2 2657   3.887   0.738   3.643
  824HOH      O 2658   1.347   3.484   1.348
  824HOH     H1 2659   1.303   3.547   1.405
  824HOH     H2 2660   1.377   3.536   1.274
  825HOH      O 2661   1.732   3.890   0.721
  825HOH     H1 2662   1.734   3.795   0.709
  825HOH     H2 2663   1.822   3.918   0.704
  826HOH      O 2664   0.176   3.562   3.798
  826HOH     H1 2665   0.085   3.537   3.787
  826HOH     H2 2666   0.209   3.576   3.709
  827HOH      O 2667   0.474   0.737   0.892
  827HOH     H1 2668   0.561   0.733   0.930
  827HOH     H2 2669   0.454   0.830   0.887
  828HOH      O 2670   1.748   0.629   1.462
  828HOH     H1 2671   1.785   0.541   1.455
  828HOH     H2 2672   1.711   0.646   1.375
  829HOH      O 2673   3.924   3.487   0.212
  829HOH     H1 2674   3.887   3.563   0.167
  829HOH     H2 2675   3.991   3.454   0.153
  830HOH      O 2676   3.104   1.012   1.186
  830HOH     H1 2677   3.086   0.919   1.200
  830HOH     H2 2678   3.019   1.050   1.166
  831HOH      O 2679   0.281   2.852   2.693
  831HOH     H1 2680   0.332   2.914   2.746
  831HOH     H2 2681   0.214   2.819   2.752
  832HOH      O 2682   2.991   0.165   1.690
  832HOH     H1 2683   2.977   0.074   1.661
  832HOH     H2 2684   3.025   0.157   1.779
  833HOH      O 2685   1.231   3.001   2.972
  833HOH     H1 2686   1.297   2.988   3.040
  833HOH     H2 2687   1.277   2.984   2.890
  834HOH      O 2688   1.766   1.629   3.238
  834HOH     H1 2689   1.842   1.608   3.292
  834HOH     H2 2690   1.778   1.576   3.158
  835HOH      O 2691   2.063   1.217   0.378
  835HOH     H1 2692   2.142   1.186   0.422
  835HOH     H2 2693   2.017   1.268   0.445
  836HOH      O 2694   1.596   3.766   2.395
  836HOH     H1 2695   1.639   3.762   2.310
  836HOH     H2 2696   1.503   3.763   2.375
  837HOH      O 2697   1.777   3.456   2.695
  837HOH     H1 2698   1.795   3.362   2.692
  837HOH     H2 2699   1.696   3.466   2.646
  838HOH      O 2700   3.129   3.042   1.153
  838HOH     H1 2701   3.107   2.993   1.074
  838HOH     H2 2702   3.222   3.064   1.142
  839HOH      O 2703   1.537   4.000   2.638
  839HOH     H1 2704   1.524   4.064   2.568
  839HOH     H2 2705   1.577   3.925   2.594
  840HOH      O 2706   1.670   0.589   1.890
  840HOH     H1 2707   1.738   0.631   1.943
  840HOH     H2 2708   1.647   0.655   1.824
  841HOH      O 2709   1.989   3.067   3.580
  841HOH     H1 2710   1.973   3.073   3.674
  841HOH     H2 2711   1.906   3.036   3.544
  842HOH      O 2712   1.785   2.468   3.397
  842HOH     H1 2713   1.880   2.454   3.393
  842HOH     H2 2714   1.748   2.380   3.394
  843HOH      O 2715   2.014   0.861   3.093
  843HOH     H1 2716   1.945   0.815   3.045
  843HOH     H2 2717   1.974   0.944   3.119
  844HOH      O 2718   0.493   1.557   2.498
  844HOH     H1 2719   0.424   1.523   2.556
  844HOH     H2 2720   0.446   1.606   2.431
  845HOH      O 2721   1.026   2.154  -0.032
  845HOH     H1 2722   0.990   2.131   0.053
  845HOH     H2 2723   1.120   2.156  -0.019
  846HOH      O 2724   0.451   0.687   1.178
  846HOH     H1 2725   0.445   0.677   1.083
  846HOH     H2 2726   0.361   0.676   1.208
  847HOH      O 2727   3.734   1.656   0.555
  847HOH     H1 2728   3.651   1.702   0.560
  847HOH     H2 2729   3.763   1.647   0.646
  848HOH      O 2730   3.899   1.231   3.596
  848HOH     H1 2731   3.952   1.302   3.634
  848HOH     H2 2732   3.812   1.244   3.632
  849HOH      O 2733   2.253   2.891   0.541
  849HOH     H1 2734   2.309   2.819   0.512
  849HOH     H2 2735   2.229   2.937   0.460
  850HOH      O 2736   3.982   1.600   3.463
  850HOH     H1 2737   3.907   1.609   3.522
  850HOH     H2 2738   3.957   1.648   3.385
  851HOH      O 2739   2.585   1.735   0.182
  851HOH     H1 2740   2.679   1.745   0.192
  851HOH     H2 2741   2.549   1.767   0.265
  852HOH      O 2742   1.461   3.211   1.251
  852HOH     H1 2743   1.490   3.197   1.341
  852HOH     H2 2744   1.448   3.305   1.245
  853HOH      O 2745   2.562   3.014   3.101
  853HOH     H1 2746   2.541   2.925   3.072
  853HOH     H2 2747   2.617   3.001   3.179
  854HOH      O 2748   0.676   1.298   2.685
  854HOH     H1 2749   0.716   1.382   2.665
  854HOH     H2 2750   0.612   1.317   2.754
  855HOH      O 2751   2.890   0.554   0.996
  855HOH     H1 2752   2.925   0.566   0.908
  855HOH     H2 2753   2.950   0.603   1.052
  856HOH      O 2754   3.882   3.536   0.784
  856HOH     H1 2755   3.967   3.491   0.775
  856HOH     H2 2756   3.903   3.628   0.769
  857HOH      O 2757   0.163   1.270   0.313
  857HOH     H1 2758   0.104   1.282   0.387
  857HOH     H2 2759   0.213   1.191   0.336
  858HOH      O 2760   2.008   2.004   1.586
  858HOH     H1 2761   1.991   1.939   1.654
  858HOH     H2 2762   2.031   1.953   1.509
  859HOH      O 2763   1.709   1.483   0.868
  859HOH     H1 2764   1.683   1.450   0.783
  859HOH     H2 2765   1.743   1.571   0.851
  860HOH      O 2766   0.772   0.468   3.933
  860HOH     H1 2767   0.700   0.527   3.957
  860HOH     H2 2768   0.754   0.387   3.981
  861HOH      O 2769   3.479   3.803   2.966
  861HOH     H1 2770   3.507   3.873   2.906
  861HOH     H2 2771   3.549   3.797   3.031
  862HOH      O 2772   3.764   3.950   1.620
  862HOH     H1 2773   3.755   3.887   1.692
  862HOH     H2 2774   3.815   4.022   1.658
  863HOH      O 2775   3.325   0.214   1.718
  863HOH     H1 2776   3.360   0.127   1.702
  863HOH     H2 2777   3.289   0.209   1.807
  864HOH      O 2778   1.055   2.743   3.744
  864HOH     H1 2779   0.975   2.795   3.740
  864HOH     H2 2780   1.062   2.705   3.656
  865HOH      O 2781   2.570   0.940   2.464
  865HOH     H1 2782   2.476   0.944   2.483
  865HOH     H2 2783   2.599   1.031   2.469
  866HOH      O 2784   1.282   3.411   0.363
  866HOH     H1 2785   1.220   3.398   0.435
  866HOH     H2 2786   1.291   3.324   0.324
  867HOH      O 2787   3.738   3.900   2.609
  867HOH     H1 2788   3.664   3.958   2.626
  867HOH     H2 2789   3.698   3.815   2.589
  868HOH      O 2790   3.407   3.975   2.750
  868HOH     H1 2791   3.311   3.972   2.755
  868HOH     H2 2792   3.426   3.979   2.656
  869HOH      O 2793   3.153   0.972   0.146
  869HOH     H1 2794   3.192   0.908   0.087
  869HOH     H2 2795   3.109   1.034   0.088
  870HOH      O 2796   3.090   0.363   2.209
  870HOH     H1 2797   3.051   0.348   2.122
  870HOH     H2 2798   3.043   0.438   2.244
  871HOH      O 2799   1.327   3.849   2.284
  871HOH     H1 2800   1.330   3.771   2.229
  871HOH     H2 2801   1.369   3.917   2.232
  872HOH      O 2802   0.621   3.374   0.520
  872HOH     H1 2803   0.556   3.359   0.588
  872HOH     H2 2804   0.591   3.454   0.476
  873HOH      O 2805   1.450   1.199   3.330
  873HOH     H1 2806   1.545   1.184   3.335
  873HOH     H2 2807   1.430   1.252   3.407
  874HOH      O 2808   0.035   2.737   2.747
  874HOH     H1 2809   0.024   2.779   2.662
  874HOH     H2 2810   0.035   2.643   2.728
  875HOH      O 2811   4.009   1.540   3.982
  875HOH     H1 2812   4.051   1.625   3.994
  875HOH     H2 2813   3.947   1.533   4.054
  876HOH      O 2814   0.577   3.645   1.404
  876HOH     H1 2815   0.577   3.584   1.330
  876HOH     H2 2816   0.651   3.704   1.386
  877HOH      O 2817   0.978   0.330   1.121
  877HOH     H1 2818   0.884   0.346   1.106
  877HOH     H2 2819   1.008   0.410   1.164
  878HOH      O 2820   3.707   0.449   1.084
  878HOH     H1 2821   3.703   0.544   1.078
  878HOH     H2 2822   3.617   0.420   1.068
  879HOH      O 2823   3.115   1.759   2.331
  879HOH     H1 2824   3.193   1.713   2.301
  879HOH     H2 2825   3.149   1.839   2.371
  880HOH      O 2826   0.282   0.785   3.424
  880HOH     H1 2827   0.216   0.841   3.383
  880HOH     H2 2828   0.283   0.706   3.370
  881HOH      O 2829   3.211   3.960   2.177
  881HOH     H1 2830   3.294   3.994   2.209
  881HOH     H2 2831   3.234   3.885   2.124
  882HOH      O 2832   0.670   0.983   2.661
  882HOH     H1 2833   0.658   1.075   2.635
  882HOH     H2 2834   0.662   0.934   2.579
  883HOH      O 2835   1.578   0.481   0.951
  883HOH     H1 2836   1.636   0.411   0.922
  883HOH     H2 2837   1.637   0.550   0.983
  884HOH      O 2838   3.489   1.010   2.255
  884HOH     H1 2839   3.510   1.053   2.339
  884HOH     H2 2840   3.424   1.068   2.215
  885HOH      O 2841   0.039   2.706   3.435
  885HOH     H1 2842   0.087   2.715   3.517
  885HOH     H2 2843   0.092   2.754   3.371
  886HOH      O 2844   0.642   2.068   0.627
  886HOH     H1 2845   0.551   2.055   0.654
  886HOH     H2 2846   0.636   2.093   0.535
  887HOH      O 2847   0.925   3.411   0.787
  887HOH     H1 2848   0.881   3.455   0.860
  887HOH     H2 2849   0.854   3.377   0.733
  888HOH      O 2850   1.026   0.459   2.074
  888HOH     H1 2851   1.073   0.468   2.156
  888HOH     H2 2852   1.080   0.506   2.010
  889HOH      O 2853   1.011   2.783   1.983
  889HOH     H1 2854   1.032   2.876   1.993
  889HOH     H2 2855   1.064   2.754   1.909
  890HOH      O 2856   0.390   0.071   0.367
  890HOH     H1 2857   0.388   0.143   0.430
  890HOH     H2 2858   0.388   0.113   0.281
  891HOH      O 2859   3.947   0.305   0.572
  891HOH     H1 2860   3.949   0.374   0.638
  891HOH     H2 2861   3.902   0.232   0.615
  892HOH      O 2862   2.757   3.909   1.219
  892HOH     H1 2863   2.691   3.978   1.229
  892HOH     H2 2864   2.784   3.888   1.308
  893HOH      O 2865   1.259   1.490   2.101
  893HOH     H1 2866   1.203   1.441   2.040
  893HOH     H2 2867   1.299   1.558   2.046
  894HOH      O 2868   1.293   0.215   2.373
  894HOH     H1 2869   1.222   0.178   2.425
  894HOH     H2 2870   1.298   0.306   2.402
  895HOH      O 2871   2.131   0.637   2.501
  895HOH     H1 2872   2.092   0.672   2.581
  895HOH     H2 2873   2.067   0.655   2.433
  896HOH      O 2874   2.663   1.436   2.244
  896HOH     H1 2875   2.677   1.508   2.182
  896HOH     H2 2876   2.738   1.442   2.304
  897HOH      O 2877   0.762   1.186   3.724
  897HOH     H1 2878   0.759   1.272   3.765
  897HOH     H2 2879   0.731   1.126   3.792
  898HOH      O 2880   0.039   2.663   1.510
  898HOH     H1 2881   0.084   2.722   1.570
  898HOH     H2 2882   0.080   2.680   1.425
  899HOH      O 2883   2.240   2.684   3.280
  899HOH     H1 2884   2.269   2.602   3.320
  899HOH     H2 2885   2.320   2.732   3.261
  900HOH      O 2886   3.631   2.331   0.739
  900HOH     H1 2887   3.536   2.328   0.746
  900HOH     H2 2888   3.657   2.240   0.722
  901HOH      O 2889   0.776   3.858   0.723
  901HOH     H1 2890   0.734   3.780   0.688
  901HOH     H2 2891   0.727   3.931   0.685
  902HOH      O 2892   0.010   2.867   4.042
  902HOH     H1 2893  -0.037   2.914   3.973
  902HOH     H2 2894   0.065   2.804   3.994
  903HOH      O 2895   0.726   1.376   1.729
  903HOH     H1 2896   0.670   1.361   1.805
  903HOH     H2 2897   0.776   1.295   1.719
  904HOH      O 2898   1.882   1.669   0.437
  904HOH     H1 2899   1.874   1.573   0.438
  904HOH     H2 2900   1.943   1.687   0.509
  905HOH      O 2901   1.027   2.157   2.714
  905HOH     H1 2902   1.061   2.215   2.647
  905HOH     H2 2903   1.069   2.072   2.698
  906HOH      O 2904   1.394   0.221   1.189
  906HOH     H1 2905   1.389   0.214   1.093
  906HOH     H2 2906   1.477   0.179   1.212
  907HOH      O 2907   3.989   1.076   0.577
  907HOH     H1 2908   3.922   1.102   0.514
  907HOH     H2 2909   4.042   1.155   0.589
  908HOH      O 2910   1.563   0.806   3.889
  908HOH     H1 2911   1.628   0.820   3.820
  908HOH     H2 2912   1.482   0.785   3.842
  909HOH      O 2913   0.404   3.010   0.045
  909HOH     H1 2914   0.338   3.015   0.115
  909HOH     H2 2915   0.488   3.020   0.090
  910HOH      O 2916   3.194   2.564   2.653
  910HOH     H1 2917   3.206   2.487   2.708
  910HOH     H2 2918   3.100   2.573   2.643
  911HOH      O 2919   1.004   1.549   1.098
  911HOH     H1 2920   1.090   1.511   1.117
  911HOH     H2 2921   0.941   1.482   1.123
  912HOH      O 2922   1.351   1.640   1.107
  912HOH     H1 2923   1.338   1.572   1.173
  912HOH     H2 2924   1.333   1.596   1.023
  913HOH      O 2925   2.357   1.638   0.715
  913HOH     H1 2926   2.269   1.662   0.744
  913HOH     H2 2927   2.395   1.594   0.792
  914HOH      O 2928   2.259   3.869   3.691
  914HOH     H1 2929   2.321   3.931   3.652
  914HOH     H2 2930   2.310   3.824   3.759
  915HOH      O 2931   2.280   2.504   3.846
  915HOH     H1 2932   2.307   2.516   3.937
  915HOH     H2 2933   2.281   2.592   3.808
  916HOH      O 2934   3.872   1.168   0.889
  916HOH     H1 2935   3.876   1.166   0.793
  916HOH     H2 2936   3.963   1.182   0.916
  917HOH      O 2937   1.719   0.246   0.940
  917HOH     H1 2938   1.804   0.287   0.956
  917HOH     H2 2939   1.689   0.220   1.027
  918HOH      O 2940   0.817   0.936   0.729
  918HOH     H1 2941   0.729   0.973   0.735
  918HOH     H2 2942   0.856   0.951   0.815
  919HOH      O 2943   3.738   0.142   2.145
  919HOH     H1 2944   3.737   0.071   2.209
  919HOH     H2 2945   3.813   0.196   2.169
  920HOH      O 2946   0.155   2.558   0.703
  920HOH     H1 2947   0.148   2.638   0.651
  920HOH     H2 2948   0.093   2.497   0.663
  921HOH      O 2949   3.173   1.533   2.866
  921HOH     H1 2950   3.191   1.603   2.803
  921HOH     H2 2951   3.228   1.553   2.941
  922HOH      O 2952   2.699   1.213   2.535
  922HOH     H1 2953   2.696   1.174   2.622
  922HOH     H2 2954   2.631   1.281   2.538
  923HOH      O 2955   0.806   3.444   0.325
  923HOH     H1 2956   0.773   3.493   0.250
  923HOH     H2 2957   0.727   3.419   0.373
  924HOH      O 2958   1.693   2.056   2.368
  924HOH     H1 2959   1.771   2.067   2.423
  924HOH     H2 2960   1.646   1.983   2.408
  925HOH      O 2961   3.110   3.549   2.840
  925HOH     H1 2962   3.204   3.537   2.852
  925HOH     H2 2963   3.101   3.583   2.751
  926HOH      O 2964   0.134   1.407   3.674
  926HOH     H1 2965   0.212   1.446   3.714
  926HOH     H2 2966   0.069   1.477   3.675
  927HOH      O 2967   1.580   1.403   2.437
  927HOH     H1 2968   1.523   1.379   2.364
  927HOH     H2 2969   1.661   1.432   2.396
  928HOH      O 2970   2.523   0.679   0.120
  928HOH     H1 2971   2.618   0.678   0.112
  928HOH     H2 2972   2.493   0.726   0.043
  929HOH      O 2973   3.478   0.960   2.815
  929HOH     H1 2974   3.451   1.035   2.763
  929HOH     H2 2975   3.572   0.952   2.799
  930HOH      O 2976   2.266   0.283   1.894
  930HOH     H1 2977   2.230   0.195   1.905
  930HOH     H2 2978   2.192   0.341   1.907
  931HOH      O 2979   2.705   0.978   1.858
  931HOH     H1 2980   2.721   0.907   1.920
  931HOH     H2 2981   2.648   1.039   1.905
  932HOH      O 2982   1.856   0.356   1.354
  932HOH     H1 2983   1.784   0.294   1.360
  932HOH     H2 2984   1.926   0.317   1.406
  933HOH      O 2985   3.062   3.382   3.155
  933HOH     H1 2986   3.111   3.463   3.138
  933HOH     H2 2987   3.059   3.377   3.251
  934HOH      O 2988   0.315   1.860   2.063
  934HOH     H1 2989   0.337   1.767   2.061
  934HOH     H2 2990   0.360   1.897   1.987
  935HOH      O 2991   1.639   3.956   3.945
  935HOH     H1 2992   1.559   3.959   3.997
  935HOH     H2 2993   1.610   3.972   3.855
  936HOH      O 2994   1.805   1.941   3.281
  936HOH     H1 2995   1.826   1.849   3.264
  936HOH     H2 2996   1.832   1.987   3.201
  937HOH      O 2997   1.621   3.964   3.338
  937HOH     H1 2998   1.571   3.885   3.360
  937HOH     H2 2999   1.709   3.932   3.321
  938HOH      O 3000   2.613   1.617   2.010
  938HOH     H1 3001   2.555   1.692   2.014
  938HOH     H2 3002   2.557   1.544   1.984
  939HOH      O 3003   0.220   1.992   2.923
  939HOH     H1 3004   0.217   2.087   2.922
  939HOH     H2 3005   0.291   1.971   2.985
  940HOH      O 3006   0.747   3.537   0.951
  940HOH     H1 3007   0.690   3.518   1.026
  940HOH     H2 3008   0.760   3.632   0.955
  941HOH      O 3009   2.887   0.980   2.117
  941HOH     H1 3010   2.936   1.051   2.076
  941HOH     H2 3011   2.841   1.022   2.190
  942HOH      O 3012   0.694   0.632   1.686
  942HOH     H1 3013   0.753   0.653   1.759
  942HOH     H2 3014   0.749   0.587   1.623
  943HOH      O 3015   1.415   3.557   0.831
  943HOH     H1 3016   1.366   3.636   0.854
  943HOH     H2 3017   1.347   3.492   0.814
  944HOH      O 3018   0.447   1.246   2.427
  944HOH     H1 3019   0.541   1.260   2.416
  944HOH     H2 3020   0.410   1.334   2.429
  945HOH      O 3021   2.300   1.608   1.286
  945HOH     H1 3022   2.299   1.686   1.231
  945HOH     H2 3023   2.226   1.555   1.255
  946HOH      O 3024   3.031   2.191   2.236
  946HOH     H1 3025   3.122   2.171   2.260
  946HOH     H2 3026   3.039   2.257   2.167
  947HOH      O 3027   3.692   3.611   2.520
  947HOH     H1 3028   3.607   3.592   2.481
  947HOH     H2 3029   3.688   3.572   2.607
  948HOH      O 3030   3.682   0.306   1.345
  948HOH     H1 3031   3.595   0.323   1.383
  948HOH     H2 3032   3.680   0.349   1.260
  949HOH      O 3033   1.051   0.749   2.254
  949HOH     H1 3034   0.997   0.672   2.268
  949HOH     H2 3035   1.029   0.807   2.327
  950HOH      O 3036   0.456   2.239   1.828
  950HOH     H1 3037   0.494   2.184   1.897
  950HOH     H2 3038   0.530   2.259   1.771
  951HOH      O 3039   3.096   2.346   0.250
  951HOH     H1 3040   3.144   2.290   0.189
  951HOH     H2 3041   3.068   2.421   0.197
  952HOH      O 3042   0.831   1.761   3.614
  952HOH     H1 3043   0.906   1.702   3.606
  952HOH     H2 3044   0.856   1.823   3.683
  953HOH      O 3045   3.235   2.715   3.597
  953HOH     H1 3046   3.216   2.718   3.503
  953HOH     H2 3047   3.262   2.804   3.620
  954HOH      O 3048   0.060   1.790   1.595
  954HOH     H1 3049   0.033   1.722   1.534
  954HOH     H2 3050  -0.018   1.844   1.608
  955HOH      O 3051   3.558   2.982   3.813
  955HOH     H1 3052   3.602   2.996   3.897
  955HOH     H2 3053   3.500   2.908   3.828
  956HOH      O 3054   2.373   1.341   2.241
  956HOH     H1 3055   2.455   1.389   2.254
  956HOH     H2 3056   2.353   1.305   2.327
  957HOH      O 3057   3.291   0.467   0.032
  957HOH     H1 3058   3.331   0.383   0.058
  957HOH     H2 3059   3.273   0.512   0.115
  958HOH      O 3060   3.696   1.834   1.252
  958HOH     H1 3061   3.671   1.899   1.317
  958HOH     H2 3062   3.636   1.850   1.179
  959HOH      O 3063   0.500   3.074   2.012
  959HOH     H1 3064   0.556   3.033   1.946
  959HOH     H2 3065   0.535   3.162   2.022
  960HOH      O 3066   0.752   0.563   0.357
  960HOH     H1 3067   0.767   0.597   0.445
  960HOH     H2 3068   0.668   0.601   0.331
  961HOH      O 3069   1.480   1.172   1.299
  961HOH     H1 3070   1.563   1.146   1.260
  961HOH     H2 3071   1.505   1.231   1.371
  962HOH      O 3072   3.189   3.758   0.680
  962HOH     H1 3073   3.178   3.681   0.737
  962HOH     H2 3074   3.227   3.722   0.599
  963HOH      O 3075   0.569   3.492   1.171
  963HOH     H1 3076   0.526   3.422   1.220
  963HOH     H2 3077   0.502   3.524   1.110
  964HOH      O 3078   1.529   0.428   2.097
  964HOH     H1 3079   1.581   0.471   2.029
  964HOH     H2 3080   1.577   0.444   2.178
  965HOH      O 3081   1.450   0.566   2.564
  965HOH     H1 3082   1.417   0.599   2.647
  965HOH     H2 3083   1.373   0.557   2.508
  966HOH      O 3084   2.015   2.732   2.977
  966HOH     H1 3085   1.934   2.719   2.927
  966HOH     H2 3086   1.991   2.709   3.067
  967HOH      O 3087   0.062   1.312   0.579
  967HOH     H1 3088   0.077   1.308   0.673
  967HOH     H2 3089   0.082   1.403   0.555
  968HOH      O 3090   0.764   3.918   2.885
  968HOH     H1 3091   0.712   3.998   2.876
  968HOH     H2 3092   0.733   3.862   2.814
  969HOH      O 3093   3.219   2.011   1.111
  969HOH     H1 3094   3.171   1.949   1.055
  969HOH     H2 3095   3.187   2.097   1.085
  970HOH      O 3096   2.025   0.091   3.734
  970HOH     H1 3097   2.106   0.136   3.709
  970HOH     H2 3098   1.994   0.138   3.811
  971HOH      O 3099   1.185   2.045   1.997
  971HOH     H1 3100   1.145   1.970   2.042
  971HOH     H2 3101   1.279   2.034   2.012
  972HOH      O 3102   2.561   0.801   1.721
  972HOH     H1 3103   2.619   0.876   1.714
  972HOH     H2 3104   2.563   0.778   1.814
  973HOH      O 3105   1.931   0.431   1.106
  973HOH     H1 3106   1.904   0.409   1.195
  973HOH     H2 3107   1.874   0.503   1.081
  974HOH      O 3108   2.418   0.057   2.217
  974HOH     H1 3109   2.337   0.050   2.166
  974HOH     H2 3110   2.439   0.150   2.216
  975HOH      O 3111   3.429   2.590   3.367
  975HOH     H1 3112   3.378   2.669   3.350
  975HOH     H2 3113   3.373   2.518   3.338
  976HOH      O 3114   0.969   0.868   2.605
  976HOH     H1 3115   0.884   0.905   2.629
  976HOH     H2 3116   0.987   0.803   2.673
  977HOH      O 3117   1.485   1.384   1.020
  977HOH     H1 3118   1.565   1.381   0.967
  977HOH     H2 3119   1.516   1.395   1.110
  978HOH      O 3120   1.264   3.057   1.585
  978HOH     H1 3121   1.184   3.072   1.533
  978HOH     H2 3122   1.267   2.962   1.596
  979HOH      O 3123   1.258   2.759   2.714
  979HOH     H1 3124   1.189   2.694   2.727
  979HOH     H2 3125   1.218   2.824   2.656
  980HOH      O 3126   1.529   2.343   1.233
  980HOH     H1 3127   1.481   2.420   1.203
  980HOH     H2 3128   1.621   2.365   1.220
  981HOH      O 3129   3.601   2.694   0.842
  981HOH     H1 3130   3.603   2.738   0.927
  981HOH     H2 3131   3.689   2.658   0.831
  982HOH      O 3132   0.007   1.979   3.386
  982HOH     H1 3133   0.067   1.940   3.323
  982HOH     H2 3134   0.026   1.935   3.469
  983HOH      O 3135   4.025   0.237   0.980
  983HOH     H1 3136   4.030   0.166   1.044
  983HOH     H2 3137   3.931   0.248   0.964
  984HOH      O 3138   0.778   2.135   3.396
  984HOH     H1 3139   0.832   2.061   3.369
  984HOH     H2 3140   0.840   2.196   3.436
  985HOH      O 3141   3.023   3.296   0.623
  985HOH     H1 3142   3.034   3.206   0.655
  985HOH     H2 3143   3.081   3.348   0.680
  986HOH      O 3144   2.940   1.065   3.104
  986HOH     H1 3145   2.974   0.979   3.129
  986HOH     H2 3146   3.017   1.113   3.073
  987HOH      O 3147   1.808   2.410   3.884
  987HOH     H1 3148   1.895   2.370   3.882
  987HOH     H2 3149   1.765   2.379   3.804
  988HOH      O 3150   0.542   3.951   1.299
  988HOH     H1 3151   0.619   3.977   1.248
  988HOH     H2 3152   0.579   3.920   1.382
  989HOH      O 3153   2.012   1.944   0.232
  989HOH     H1 3154   1.971   2.030   0.237
  989HOH     H2 3155   2.104   1.962   0.212
  990HOH      O 3156   0.389   1.512   3.764
  990HOH     H1 3157   0.461   1.564   3.729
  990HOH     H2 3158   0.372   1.550   3.851
  991HOH      O 3159   3.348   3.998   3.270
  991HOH     H1 3160   3.409   3.929   3.295
  991HOH     H2 3161   3.404   4.068   3.237
  992HOH      O 3162   1.699   2.975   3.553
  992HOH     H1 3163   1.656   2.890   3.569
  992HOH     H2 3164   1.662   3.033   3.619
  993HOH      O 3165   1.131   2.264   3.276
  993HOH     H1 3166   1.094   2.322   3.343
  993HOH     H2 3167   1.141   2.179   3.321
  994HOH      O 3168   2.209   1.271   2.487
  994HOH     H1 3169   2.183   1.192   2.534
  994HOH     H2 3170   2.142   1.280   2.418
  995HOH      O 3171   2.387   0.889   3.966
  995HOH     H1 3172   2.360   0.963   4.021
  995HOH     H2 3173   2.320   0.884   3.898
  996HOH      O 3174   1.946   3.492   2.307
  996HOH     H1 3175   2.016   3.555   2.291
  996HOH     H2 3176   1.869   3.530   2.265
  997HOH      O 3177   3.368   1.528   3.106
  997HOH     H1 3178   3.322   1.449   3.134
  997HOH     H2 3179   3.454   1.523   3.150
  998HOH      O 3180   2.534   2.146   3.800
  998HOH     H1 3181   2.558   2.131   3.709
  998HOH     H2 3182   2.578   2.228   3.824
  999HOH      O 3183   3.928   3.717   2.918
  999HOH     H1 3184   3.971   3.798   2.945
  999HOH     H2 3185   3.972   3.692   2.837
 1000HOH      O 3186   2.084   0.947   0.626
 1000HOH     H1 3187   2.020   0.922   0.560
 1000HOH     H2 3188   2.066   0.890   0.700
 1001HOH      O 3189   1.175   1.057   2.849
 1001HOH     H1 3190   1.177   1.050   2.754
 1001HOH     H2 3191   1.138   1.143   2.866
 1002HOH      O 3192   0.302   3.126   3.676
 1002HOH     H1 3193   0.336   3.206   3.635
 1002HOH     H2 3194   0.379   3.078   3.704
 1003HOH      O 3195   0.857   3.841   0.966
 1003HOH     H1 3196   0.818   3.843   0.879
 1003HOH     H2 3197   0.932   3.900   0.961
 1004HOH      O 3198   3.524   3.835   2.282
 1004HOH     H1 3199   3.615   3.858   2.262
 1004HOH     H2 3200   3.524   3.740   2.289
 1005HOH      O 3201   3.490   2.612   1.506
 1005HOH     H1 3202   3.562   2.553   1.528
 1005HOH     H2 3203   3.431   2.608   1.581
 1006HOH      O 3204   0.050   2.927   2.196
 1006HOH     H1 3205   0.017   2.991   2.131
 1006HOH     H2 3206   0.006   2.952   2.277
 1007HOH      O 3207   3.714   2.403   2.958
 1007HOH     H1 3208   3.763   2.396   2.876
 1007HOH     H2 3209   3.781   2.410   3.026
 1008HOH      O 3210   3.607   2.560   2.339
 1008HOH     H1 3211   3.526   2.524   2.376
 1008HOH     H2 3212   3.630   2.500   2.268
 1009HOH      O 3213   3.565   3.516   0.774
 1009HOH     H1 3214   3.605   3.566   0.845
 1009HOH     H2 3215   3.544   3.581   0.707
 1010HOH      O 3216   1.811   3.948   2.486
 1010HOH     H1 3217   1.849   4.033   2.462
 1010HOH     H2 3218   1.725   3.948   2.443
 1011HOH      O 3219   1.680   0.793   1.667
 1011HOH     H1 3220   1.595   0.832   1.645
 1011HOH     H2 3221   1.695   0.728   1.598
 1012HOH      O 3222   1.705   2.198   3.388
 1012HOH     H1 3223   1.741   2.126   3.335
 1012HOH     H2 3224   1.611   2.181   3.391
 1013HOH      O 3225   1.267   3.265   2.424
 1013HOH     H1 3226   1.215   3.340   2.453
 1013HOH     H2 3227   1.337   3.303   2.372
 1014HOH      O 3228   1.455   2.065   2.038
 1014HOH     H1 3229   1.529   2.011   2.065
 1014HOH     H2 3230   1.456   2.140   2.098
 1015HOH      O 3231   3.084   0.904   3.352
 1015HOH     H1 3232   3.107   0.812   3.366
 1015HOH     H2 3233   2.994   0.902   3.319
 1016HOH      O 3234   2.003   2.786   3.390
 1016HOH     H1 3235   2.019   2.762   3.481
 1016HOH     H2 3236   2.087   2.775   3.347
 1017HOH      O 3237   2.538   3.225   3.755
 1017HOH     H1 3238   2.594   3.186   3.687
 1017HOH     H2 3239   2.451   3.189   3.738
 1018HOH      O 3240   3.666   0.310   0.430
 1018HOH     H1 3241   3.608   0.331   0.356
 1018HOH     H2 3242   3.719   0.236   0.398
 1019HOH      O 3243   3.524   2.638   0.585
 1019HOH     H1 3244   3.550   2.660   0.674
 1019HOH     H2 3245   3.518   2.723   0.540
 1020HOH      O 3246   3.317   0.635   2.460
 1020HOH     H1 3247   3.309   0.678   2.545
 1020HOH     H2 3248   3.250   0.677   2.405
 1021HOH      O 3249   3.485   0.639   3.998
 1021HOH     H1 3250   3.563   0.583   3.997
 1021HOH     H2 3251   3.413   0.579   4.019
 1022HOH      O 3252   3.124   1.647   1.600
 1022HOH     H1 3253   3.096   1.708   1.668
 1022HOH     H2 3254   3.183   1.587   1.644
 1023HOH      O 3255   1.978   2.011   2.862
 1023HOH     H1 3256   2.057   2.065   2.865
 1023HOH     H2 3257   1.907   2.073   2.843
 1024HOH      O 3258   0.560   2.245   3.285
 1024HOH     H1 3259   0.513   2.162   3.290
 1024HOH     H2 3260   0.646   2.226   3.324
 1025HOH      O 3261   3.714   3.169   3.699
 1025HOH     H1 3262   3.686   3.236   3.761
 1025HOH     H2 3263   3.658   3.093   3.719
 1026HOH      O 3264   1.499   2.569   0.260
 1026HOH     H1 3265   1.519   2.551   0.169
 1026HOH     H2 3266   1.561   2.516   0.310
 1027HOH      O 3267   1.536   1.046   1.654
 1027HOH     H1 3268   1.596   1.038   1.728
 1027HOH     H2 3269   1.593   1.064   1.579
 1028HOH      O 3270   0.155   1.347   0.051
 1028HOH     H1 3271   0.084   1.404   0.025
 1028HOH     H2 3272   0.133   1.319   0.139
 1029HOH      O 3273   3.801   2.802   1.673
 1029HOH     H1 3274   3.736   2.848   1.620
 1029HOH     H2 3275   3.788   2.710   1.651
 1030HOH      O 3276   2.839   2.922   3.187
 1030HOH     H1 3277   2.843   2.829   3.164
 1030HOH     H2 3278   2.895   2.965   3.122
 1031HOH      O 3279   1.376   1.855   1.293
 1031HOH     H1 3280   1.296   1.904   1.310
 1031HOH     H2 3281   1.351   1.792   1.224
 1032HOH      O 3282   3.027   3.653   1.702
 1032HOH     H1 3283   3.088   3.721   1.674
 1032HOH     H2 3284   3.051   3.577   1.649
 1033HOH      O 3285   1.871   2.143   1.265
 1033HOH     H1 3286   1.779   2.168   1.272
 1033HOH     H2 3287   1.896   2.169   1.176
 1034HOH      O 3288   2.075   2.440   3.181
 1034HOH     H1 3289   2.166   2.413   3.190
 1034HOH     H2 3290   2.071   2.526   3.223
 1035HOH      O 3291   0.974   1.042   1.452
 1035HOH     H1 3292   1.069   1.029   1.448
 1035HOH     H2 3293   0.954   1.095   1.375
 1036HOH      O 3294   0.132   3.789   0.958
 1036HOH     H1 3295   0.145   3.695   0.949
 1036HOH     H2 3296   0.039   3.800   0.974
 1037HOH      O 3297   1.087   3.060   1.171
 1037HOH     H1 3298   1.007   3.007   1.172
 1037HOH     H2 3299   1.112   3.064   1.079
 1038HOH      O 3300   1.858   3.612   1.086
 1038HOH     H1 3301   1.868   3.674   1.158
 1038HOH     H2 3302   1.908   3.535   1.113
 1039HOH      O 3303   0.933   3.296   1.691
 1039HOH     H1 3304   0.893   3.371   1.736
 1039HOH     H2 3305   0.905   3.220   1.742
 1040HOH      O 3306   2.051   0.280   3.127
 1040HOH     H1 3307   2.088   0.244   3.208
 1040HOH     H2 3308   1.989   0.346   3.156
 1041HOH      O 3309   1.267   2.694   0.242
 1041HOH     H1 3310   1.302   2.781   0.222
 1041HOH     H2 3311   1.343   2.636   0.239
 1042HOH      O 3312   0.419   0.083   1.096
 1042HOH     H1 3313   0.416   0.029   1.017
 1042HOH     H2 3314   0.507   0.068   1.131
 1043HOH      O 3315   3.092   2.603   3.802
 1043HOH     H1 3316   3.140   2.539   3.854
 1043HOH     H2 3317   3.143   2.613   3.722
 1044HOH      O 3318   1.372   2.993   3.218
 1044HOH     H1 3319   1.467   2.996   3.232
 1044HOH     H2 3320   1.335   2.986   3.306
 1045HOH      O 3321   3.562   1.479   0.863
 1045HOH     H1 3322   3.537   1.523   0.944
 1045HOH     H2 3323   3.580   1.388   0.889
 1046HOH      O 3324   3.213   3.133   0.452
 1046HOH     H1 3325   3.203   3.130   0.357
 1046HOH     H2 3326   3.212   3.226   0.473
 1047HOH      O 3327   3.178   2.013   0.558
 1047HOH     H1 3328   3.123   2.068   0.614
 1047HOH     H2 3329   3.151   1.924   0.580
 1048HOH      O 3330   0.335   0.051  -0.020
 1048HOH     H1 3331   0.279   0.102   0.038
 1048HOH     H2 3332   0.338  -0.036   0.021
 1049HOH      O 3333   2.657   0.851   1.190
 1049HOH     H1 3334   2.614   0.793   1.127
 1049HOH     H2 3335   2.618   0.829   1.274
 1050HOH      O 3336   2.555   3.358   0.946
 1050HOH     H1 3337   2.595   3.439   0.980
 1050HOH     H2 3338   2.605   3.339   0.866
 1051HOH      O 3339   0.645   2.173   2.952
 1051HOH     H1 3340   0.709   2.234   2.916
 1051HOH     H2 3341   0.612   2.125   2.876
 1052HOH      O 3342   2.869   2.073   3.373
 1052HOH     H1 3343   2.848   2.022   3.295
 1052HOH     H2 3344   2.923   2.145   3.340
 1053HOH      O 3345   0.392   4.001   3.727
 1053HOH     H1 3346   0.371   4.028   3.816
 1053HOH     H2 3347   0.463   3.939   3.737
 1054HOH      O 3348   0.384   1.648   3.989
 1054HOH     H1 3349   0.341   1.667   4.072
 1054HOH     H2 3350   0.464   1.700   3.991
 1055HOH      O 3351   1.886   3.758   3.475
 1055HOH     H1 3352   1.920   3.847   3.477
 1055HOH     H2 3353   1.913   3.724   3.390
 1056HOH      O 3354   0.253   2.253   1.626
 1056HOH     H1 3355   0.271   2.159   1.623
 1056HOH     H2 3356   0.308   2.286   1.697
 1057HOH      O 3357   3.452   2.064   0.192
 1057HOH     H1 3358   3.487   2.023   0.271
 1057HOH     H2 3359   3.423   2.150   0.221
 1058HOH      O 3360   3.257   0.511   3.207
 1058HOH     H1 3361   3.239   0.488   3.117
 1058HOH     H2 3362   3.336   0.462   3.229
 1059HOH      O 3363   2.476   0.914   2.157
 1059HOH     H1 3364   2.522   0.865   2.089
 1059HOH     H2 3365   2.540   0.926   2.226
 1060HOH      O 3366   1.890   1.343   1.017
 1060HOH     H1 3367   1.975   1.370   0.983
 1060HOH     H2 3368   1.826   1.393   0.967
 1061HOH      O 3369   1.050   1.354   3.985
 1061HOH     H1 3370   0.957   1.361   3.964
 1061HOH     H2 3371   1.063   1.416   4.056
 1062HOH      O 3372   3.766   1.316   3.166
 1062HOH     H1 3373   3.852   1.309   3.207
 1062HOH     H2 3374   3.709   1.262   3.220
 1063HOH      O 3375   0.914   0.066   2.329
 1063HOH     H1 3376   0.925   0.090   2.237
 1063HOH     H2 3377   0.999   0.028   2.354
 1064HOH      O 3378   1.505   0.925   1.077
 1064HOH     H1 3379   1.506   0.873   0.997
 1064HOH     H2 3380   1.547   1.008   1.054
 1065HOH      O 3381   0.789   2.710   1.427
 1065HOH     H1 3382   0.832   2.683   1.346
 1065HOH     H2 3383   0.857   2.752   1.479
 1066HOH      O 3384   0.182   3.533   2.934
 1066HOH     H1 3385   0.145   3.449   2.905
 1066HOH     H2 3386   0.273   3.513   2.955
 1067HOH      O 3387   0.336   3.312   1.924
 1067HOH     H1 3388   0.406   3.308   1.857
 1067HOH     H2 3389   0.315   3.220   1.942
 1068HOH      O 3390   0.125   0.734   3.668
 1068HOH     H1 3391   0.100   0.653   3.624
 1068HOH     H2 3392   0.197   0.768   3.616
 1069HOH      O 3393   0.029   1.579   1.413
 1069HOH     H1 3394  -0.028   1.504   1.429
 1069HOH     H2 3395   0.113   1.540   1.386
 1070HOH      O 3396   1.477   3.400   1.688
 1070HOH     H1 3397   1.512   3.313   1.666
 1070HOH     H2 3398   1.383   3.391   1.676
 1071HOH      O 3399   2.705   2.979   2.731
 1071HOH     H1 3400   2.720   2.975   2.636
 1071HOH     H2 3401   2.617   3.015   2.740
 1072HOH      O 3402   3.386   2.333   0.897
 1072HOH     H1 3403   3.302   2.331   0.941
 1072HOH     H2 3404   3.435   2.403   0.940
 1073HOH      O 3405   2.062   1.764   3.197
 1073HOH     H1 3406   1.978   1.770   3.151
 1073HOH     H2 3407   2.100   1.851   3.188
 1074HOH      O 3408   1.035   2.740   2.347
 1074HOH     H1 3409   1.096   2.731   2.273
 1074HOH     H2 3410   0.952   2.765   2.306
 1075HOH      O 3411   2.977   0.237   3.021
 1075HOH     H1 3412   2.953   0.146   3.004
 1075HOH     H2 3413   2.992   0.241   3.116
 1076HOH      O 3414   1.986   2.094   3.494
 1076HOH     H1 3415   1.920   2.063   3.557
 1076HOH     H2 3416   1.955   2.061   3.410
 1077HOH      O 3417   2.916   3.247   0.174
 1077HOH     H1 3418   2.992   3.268   0.227
 1077HOH     H2 3419   2.952   3.211   0.093
 1078HOH      O 3420   2.079   1.578   1.576
 1078HOH     H1 3421   2.130   1.504   1.541
 1078HOH     H2 3422   2.094   1.573   1.671
 1079HOH      O 3423   1.487   2.709   0.544
 1079HOH     H1 3424   1.427   2.634   0.542
 1079HOH     H2 3425   1.572   2.671   0.565
 1080HOH      O 3426   3.641   3.807   3.184
 1080HOH     H1 3427   3.593   3.747   3.241
 1080HOH     H2 3428   3.715   3.757   3.151
 1081HOH      O 3429   2.522   3.435   2.748
 1081HOH     H1 3430   2.515   3.372   2.820
 1081HOH     H2 3431   2.616   3.443   2.732
 1082HOH      O 3432   1.474   0.754   0.864
 1082HOH     H1 3433   1.503   0.837   0.826
 1082HOH     H2 3434   1.452   0.699   0.789
 1083HOH      O 3435   2.794   1.434   3.101
 1083HOH     H1 3436   2.840   1.376   3.162
 1083HOH     H2 3437   2.748   1.375   3.041
 1084HOH      O 3438   0.395   0.462   0.880
 1084HOH     H1 3439   0.469   0.495   0.828
 1084HOH     H2 3440   0.436   0.420   0.956
 1085HOH      O 3441   0.973   1.669   2.428
 1085HOH     H1 3442   1.043   1.682   2.364
 1085HOH     H2 3443   0.945   1.758   2.451
 1086HOH      O 3444   3.649   0.768   1.122
 1086HOH     H1 3445   3.577   0.830   1.134
 1086HOH     H2 3446   3.727   0.824   1.114
 1087HOH      O 3447   3.330   3.757   2.521
 1087HOH     H1 3448   3.357   3.846   2.499
 1087HOH     H2 3449   3.303   3.718   2.438
 1088HOH      O 3450   1.768   3.173   2.873
 1088HOH     H1 3451   1.806   3.144   2.956
 1088HOH     H2 3452   1.840   3.165   2.811
 1089HOH      O 3453   2.739   0.637   3.117
 1089HOH     H1 3454   2.666   0.663   3.060
 1089HOH     H2 3455   2.718   0.674   3.202
 1090HOH      O 3456   3.461   1.099   1.444
 1090HOH     H1 3457   3.531   1.131   1.501
 1090HOH     H2 3458   3.386   1.086   1.503
 1091HOH      O 3459   3.814   0.141   2.581
 1091HOH     H1 3460   3.820   0.047   2.598
 1091HOH     H2 3461   3.773   0.177   2.660
 1092HOH      O 3462   1.394   0.511   1.448
 1092HOH     H1 3463   1.409   0.497   1.354
 1092HOH     H2 3464   1.298   0.510   1.457
 1093HOH      O 3465   2.663   2.070   1.122
 1093HOH     H1 3466   2.608   2.072   1.044
 1093HOH     H2 3467   2.674   1.977   1.142
 1094HOH      O 3468   3.408   1.931   2.587
 1094HOH     H1 3469   3.454   1.850   2.611
 1094HOH     H2 3470   3.399   1.978   2.670
 1095HOH      O 3471   2.837   0.620   1.339
 1095HOH     H1 3472   2.806   0.533   1.315
 1095HOH     H2 3473   2.796   0.637   1.424
 1096HOH      O 3474   3.404   0.055   0.245
 1096HOH     H1 3475   3.434  -0.011   0.183
 1096HOH     H2 3476   3.477   0.115   0.255
 1097HOH      O 3477   2.858   3.931   3.983
 1097HOH     H1 3478   2.922   4.002   3.989
 1097HOH     H2 3479   2.902   3.863   3.933
 1098HOH      O 3480   0.378   3.980   1.900
 1098HOH     H1 3481   0.356   4.054   1.957
 1098HOH     H2 3482   0.463   4.002   1.863
 1099HOH      O 3483   3.015   0.203   2.484
 1099HOH     H1 3484   3.022   0.286   2.530
 1099HOH     H2 3485   3.101   0.189   2.445
 1100HOH      O 3486   4.011   0.692   3.246
 1100HOH     H1 3487   3.975   0.679   3.158
 1100HOH     H2 3488   3.949   0.752   3.288
 1101HOH      O 3489   0.891   2.862   1.125
 1101HOH     H1 3490   0.848   2.852   1.040
 1101HOH     H2 3491   0.916   2.773   1.150
 1102HOH      O 3492   1.925   3.111   3.841
 1102HOH     H1 3493   1.928   3.205   3.827
 1102HOH     H2 3494   1.832   3.089   3.839
 1103HOH      O 3495   0.535   0.359   2.377
 1103HOH     H1 3496   0.519   0.362   2.472
 1103HOH     H2 3497   0.562   0.269   2.361
 1104HOH      O 3498   2.707   1.765   3.810
 1104HOH     H1 3499   2.744   1.677   3.809
 1104HOH     H2 3500   2.625   1.756   3.857
 1105HOH      O 3501   3.479   1.294   3.500
 1105HOH     H1 3502   3.489   1.323   3.591
 1105HOH     H2 3503   3.396   1.332   3.472
 1106HOH      O 3504   1.345   2.593   3.101
 1106HOH     H1 3505   1.373   2.502   3.114
 1106HOH     H2 3506   1.426   2.644   3.105
 1107HOH      O 3507   0.708   1.809   1.534
 1107HOH     H1 3508   0.688   1.756   1.457
 1107HOH     H2 3509   0.721   1.745   1.604
 1108HOH      O 3510   3.431   2.134   0.552
 1108HOH     H1 3511   3.348   2.088   0.566
 1108HOH     H2 3512   3.421   2.216   0.599
 1109HOH      O 3513   3.876   1.014   1.611
 1109HOH     H1 3514   3.961   1.029   1.569
 1109HOH     H2 3515   3.872   0.919   1.623
 1110HOH      O 3516   2.950   0.757   0.219
 1110HOH     H1 3517   2.894   0.834   0.220
 1110HOH     H2 3518   3.018   0.778   0.155
 1111HOH      O 3519   3.597   1.930   2.375
 1111HOH     H1 3520   3.553   1.926   2.460
 1111HOH     H2 3521   3.637   2.017   2.374
 1112HOH      O 3522   3.488   1.503   4.014
 1112HOH     H1 3523   3.470   1.440   3.944
 1112HOH     H2 3524   3.535   1.574   3.971
 1113HOH      O 3525   1.069   3.539   2.396
 1113HOH     H1 3526   1.038   3.625   2.427
 1113HOH     H2 3527   1.075   3.486   2.476
 1114HOH      O 3528   3.882   2.641   3.229
 1114HOH     H1 3529   3.933   2.682   3.298
 1114HOH     H2 3530   3.858   2.555   3.264
 1115HOH      O 3531   0.150   0.094   2.525
 1115HOH     H1 3532   0.219   0.065   2.464
 1115HOH     H2 3533   0.096   0.016   2.537
 1116HOH      O 3534   1.042   4.030   2.956
 1116HOH     H1 3535   1.120   3.979   2.979
 1116HOH     H2 3536   0.991   3.971   2.900
 1117HOH      O 3537   1.290   1.708   1.951
 1117HOH     H1 3538   1.280   1.761   1.872
 1117HOH     H2 3539   1.381   1.721   1.978
 1118HOH      O 3540   0.935   3.051   2.341
 1118HOH     H1 3541   0.939   3.024   2.433
 1118HOH     H2 3542   0.887   2.980   2.298
 1119HOH      O 3543   1.266   1.969   2.423
 1119HOH     H1 3544   1.198   1.953   2.358
 1119HOH     H2 3545   1.263   2.064   2.438
 1120HOH      O 3546   0.738   3.741   3.480
 1120HOH     H1 3547   0.656   3.776   3.445
 1120HOH     H2 3548   0.754   3.793   3.559
 1121HOH      O 3549   3.306   2.411   3.230
 1121HOH     H1 3550   3.369   2.351   3.190
 1121HOH     H2 3551   3.299   2.483   3.169
 1122HOH      O 3552   0.384   3.321   1.276
 1122HOH     H1 3553   0.396   3.249   1.338
 1122HOH     H2 3554   0.315   3.375   1.313
 1123HOH      O 3555   1.964   3.946   0.637
 1123HOH     H1 3556   2.026   3.933   0.565
 1123HOH     H2 3557   2.020   3.959   0.714
 1124HOH      O 3558   2.612   2.672   0.985
 1124HOH     H1 3559   2.569   2.617   1.050
 1124HOH     H2 3560   2.705   2.663   1.002
 1125HOH      O 3561   0.211   3.975   1.628
 1125HOH     H1 3562   0.259   4.054   1.603
 1125HOH     H2 3563   0.257   3.942   1.705
 1126HOH      O 3564   3.577   2.272   4.001
 1126HOH     H1 3565   3.666   2.288   3.969
 1126HOH     H2 3566   3.587   2.202   4.065
 1127HOH      O 3567   2.930   2.389   2.958
 1127HOH     H1 3568   2.898   2.299   2.947
 1127HOH     H2 3569   3.019   2.386   2.923
 1128HOH      O 3570   2.012   3.792   1.846
 1128HOH     H1 3571   1.969   3.764   1.765
 1128HOH     H2 3572   2.097   3.826   1.819
 1129HOH      O 3573   1.311   2.009   0.722
 1129HOH     H1 3574   1.402   1.998   0.695
 1129HOH     H2 3575   1.306   1.963   0.806
 1130HOH      O 3576   3.296   2.702   1.946
 1130HOH     H1 3577   3.227   2.768   1.937
 1130HOH     H2 3578   3.332   2.716   2.034
 1131HOH      O 3579   3.189   3.168   2.363
 1131HOH     H1 3580   3.099   3.167   2.397
 1131HOH     H2 3581   3.234   3.099   2.411
 1132HOH      O 3582   0.574   1.909   2.519
 1132HOH     H1 3583   0.572   1.990   2.467
 1132HOH     H2 3584   0.667   1.886   2.525
 1133HOH      O 3585   1.115   3.647   0.679
 1133HOH     H1 3586   1.021   3.656   0.691
 1133HOH     H2 3587   1.126   3.557   0.647
 1134HOH      O 3588   2.434   1.418   1.972
 1134HOH     H1 3589   2.410   1.424   2.064
 1134HOH     H2 3590   2.375   1.350   1.937
 1135HOH      O 3591   2.403   0.545   3.048
 1135HOH     H1 3592   2.475   0.573   2.992
 1135HOH     H2 3593   2.360   0.627   3.074
 1136HOH      O 3594   3.107   1.153   2.100
 1136HOH     H1 3595   3.129   1.198   2.182
 1136HOH     H2 3596   3.153   1.069   2.107
 1137HOH      O 3597   0.552   2.748   2.267
 1137HOH     H1 3598   0.541   2.802   2.345
 1137HOH     H2 3599   0.469   2.758   2.220
 1138HOH      O 3600   2.640   1.141   0.333
 1138HOH     H1 3601   2.687   1.114   0.411
 1138HOH     H2 3602   2.673   1.083   0.264
 1139HOH      O 3603   3.403   2.269   1.545
 1139HOH     H1 3604   3.345   2.214   1.493
 1139HOH     H2 3605   3.474   2.293   1.485
 1140HOH      O 3606   2.642   0.361   3.926
 1140HOH     H1 3607   2.653   0.322   4.012
 1140HOH     H2 3608   2.730   0.389   3.901
 1141HOH      O 3609   2.743   0.509   3.643
 1141HOH     H1 3610   2.743   0.468   3.557
 1141HOH     H2 3611   2.815   0.466   3.690
 1142HOH      O 3612   2.480   0.330   0.530
 1142HOH     H1 3613   2.556   0.363   0.578
 1142HOH     H2 3614   2.516   0.260   0.475
 1143HOH      O 3615   2.819   1.693   3.209
 1143HOH     H1 3616   2.835   1.603   3.178
 1143HOH     H2 3617   2.796   1.683   3.302
 1144HOH      O 3618   2.597   3.399   3.952
 1144HOH     H1 3619   2.565   3.328   3.896
 1144HOH     H2 3620   2.630   3.354   4.030
 1145HOH      O 3621   2.016   1.576   3.928
 1145HOH     H1 3622   2.006   1.662   3.969
 1145HOH     H2 3623   1.946   1.572   3.863
 1146HOH      O 3624   0.960   0.958   3.809
 1146HOH     H1 3625   0.910   1.014   3.750
 1146HOH     H2 3626   0.937   0.869   3.783
 1147HOH      O 3627   3.388   2.742   2.195
 1147HOH     H1 3628   3.320   2.710   2.255
 1147HOH     H2 3629   3.470   2.716   2.236
 1148HOH      O 3630   3.946   1.512   2.280
 1148HOH     H1 3631   3.875   1.571   2.305
 1148HOH     H2 3632   3.945   1.444   2.348
 1149HOH      O 3633   3.364   0.124   1.998
 1149HOH     H1 3634   3.415   0.201   2.023
 1149HOH     H2 3635   3.429   0.062   1.965
 1150HOH      O 3636   3.704   1.374   0.339
 1150HOH     H1 3637   3.675   1.464   0.351
 1150HOH     H2 3638   3.626   1.321   0.354
 1151HOH      O 3639   0.463   2.912   1.622
 1151HOH     H1 3640   0.515   2.962   1.685
 1151HOH     H2 3641   0.506   2.826   1.619
 1152HOH      O 3642   2.844   2.380   3.245
 1152HOH     H1 3643   2.810   2.368   3.156
 1152HOH     H2 3644   2.938   2.362   3.237
 1153HOH      O 3645   2.261   2.600   2.975
 1153HOH     H1 3646   2.169   2.625   2.972
 1153HOH     H2 3647   2.307   2.674   2.934
 1154HOH      O 3648   0.515   2.971   0.970
 1154HOH     H1 3649   0.525   2.934   0.882
 1154HOH     H2 3650   0.495   3.064   0.954
 1155HOH      O 3651   2.227   1.196   3.177
 1155HOH     H1 3652   2.293   1.257   3.210
 1155HOH     H2 3653   2.163   1.252   3.133
 1156HOH      O 3654   1.703   0.560   3.969
 1156HOH     H1 3655   1.655   0.511   3.902
 1156HOH     H2 3656   1.665   0.647   3.967
 1157HOH      O 3657   2.154   0.731   1.627
 1157HOH     H1 3658   2.060   0.728   1.614
 1157HOH     H2 3659   2.166   0.734   1.722
 1158HOH      O 3660   2.132   0.249   0.513
 1158HOH     H1 3661   2.188   0.285   0.582
 1158HOH     H2 3662   2.138   0.313   0.442
 1159HOH      O 3663   1.597   2.101   0.943
 1159HOH     H1 3664   1.574   2.070   1.030
 1159HOH     H2 3665   1.687   2.131   0.951
 1160HOH      O 3666   1.312   1.236   0.342
 1160HOH     H1 3667   1.313   1.183   0.421
 1160HOH     H2 3668   1.248   1.193   0.285
 1161HOH      O 3669   2.213   1.454   1.790
 1161HOH     H1 3670   2.269   1.413   1.724
 1161HOH     H2 3671   2.264   1.527   1.824
 1162HOH      O 3672   2.015   2.218   0.702
 1162HOH     H1 3673   1.957   2.289   0.677
 1162HOH     H2 3674   2.099   2.239   0.661
 1163HOH      O 3675   3.653   2.602   3.700
 1163HOH     H1 3676   3.651   2.576   3.792
 1163HOH     H2 3677   3.709   2.679   3.697
 1164HOH      O 3678   2.866   1.555   0.040
 1164HOH     H1 3679   2.834   1.502   0.112
 1164HOH     H2 3680   2.850   1.646   0.068
 1165HOH      O 3681   3.029   3.537   4.005
 1165HOH     H1 3682   3.014   3.555   4.097
 1165HOH     H2 3683   2.946   3.559   3.962
 1166HOH      O 3684   1.096   1.410   1.907
 1166HOH     H1 3685   1.088   1.442   1.817
 1166HOH     H2 3686   1.020   1.447   1.952
 1167HOH      O 3687   1.364   0.287   0.927
 1167HOH     H1 3688   1.340   0.332   0.846
 1167HOH     H2 3689   1.435   0.340   0.964
 1168HOH      O 3690   1.660   3.107   3.844
 1168HOH     H1 3691   1.605   3.048   3.894
 1168HOH     H2 3692   1.618   3.192   3.852
 1169HOH      O 3693   2.158   0.141   3.352
 1169HOH     H1 3694   2.142   0.218   3.407
 1169HOH     H2 3695   2.236   0.101   3.390
 1170HOH      O 3696   1.209   4.039   0.626
 1170HOH     H1 3697   1.123   3.997   0.634
 1170HOH     H2 3698   1.271   3.973   0.657
 1171HOH      O 3699   0.835   2.208   0.942
 1171HOH     H1 3700   0.777   2.269   0.987
 1171HOH     H2 3701   0.923   2.236   0.967
 1172HOH      O 3702   0.613   1.626   3.209
 1172HOH     H1 3703   0.672   1.558   3.240
 1172HOH     H2 3704   0.666   1.678   3.148
 1173HOH      O 3705   1.310   0.155   1.474
 1173HOH     H1 3706   1.348   0.198   1.397
 1173HOH     H2 3707   1.366   0.182   1.546
 1174HOH      O 3708   3.234   3.420   2.248
 1174HOH     H1 3709   3.214   3.329   2.269
 1174HOH     H2 3710   3.284   3.416   2.166
 1175HOH      O 3711   1.079   3.161   2.763
 1175HOH     H1 3712   1.104   3.079   2.719
 1175HOH     H2 3713   1.136   3.165   2.840
 1176HOH      O 3714   2.156   0.615   1.340
 1176HOH     H1 3715   2.131   0.674   1.411
 1176HOH     H2 3716   2.096   0.540   1.349
 1177HOH      O 3717   0.933   1.213   1.225
 1177HOH     H1 3718   0.890   1.297   1.216
 1177HOH     H2 3719   0.875   1.151   1.180
 1178HOH      O 3720   2.464   0.062   2.644
 1178HOH     H1 3721   2.435   0.153   2.639
 1178HOH     H2 3722   2.391   0.017   2.687
 1179HOH      O 3723   1.797   2.164   0.277
 1179HOH     H1 3724   1.743   2.180   0.200
 1179HOH     H2 3725   1.740   2.181   0.352
 1180HOH      O 3726   1.397   3.939   1.191
 1180HOH     H1 3727   1.459   3.935   1.118
 1180HOH     H2 3728   1.326   3.994   1.160
 1181HOH      O 3729   3.072   0.696   2.845
 1181HOH     H1 3730   3.013   0.754   2.797
 1181HOH     H2 3731   3.061   0.721   2.936
 1182HOH      O 3732   3.359   1.738   1.903
 1182HOH     H1 3733   3.420   1.687   1.851
 1182HOH     H2 3734   3.283   1.681   1.914
 1183HOH      O 3735   1.973   0.936   1.051
 1183HOH     H1 3736   2.026   0.944   1.131
 1183HOH     H2 3737   2.037   0.930   0.980
 1184HOH      O 3738   1.286   2.168   0.005
 1184HOH     H1 3739   1.294   2.240   0.068
 1184HOH     H2 3740   1.373   2.159  -0.032
 1185HOH      O 3741   3.246   3.342   2.647
 1185HOH     H1 3742   3.297   3.291   2.584
 1185HOH     H2 3743   3.305   3.352   2.722
 1186HOH      O 3744   1.127   1.349   1.474
 1186HOH     H1 3745   1.174   1.302   1.542
 1186HOH     H2 3746   1.094   1.281   1.416
 1187HOH      O 3747   3.329   2.968   3.648
 1187HOH     H1 3748   3.342   3.063   3.650
 1187HOH     H2 3749   3.415   2.933   3.625
 1188HOH      O 3750   1.287   1.632   2.718
 1188HOH     H1 3751   1.353   1.622   2.788
 1188HOH     H2 3752   1.337   1.661   2.642
 1189HOH      O 3753   0.208   3.468   1.410
 1189HOH     H1 3754   0.123   3.508   1.430
 1189HOH     H2 3755   0.272   3.538   1.423
 1190HOH      O 3756   1.401   2.567   2.275
 1190HOH     H1 3757   1.366   2.482   2.247
 1190HOH     H2 3758   1.466   2.545   2.342
 1191HOH      O 3759   2.038   2.273   0.184
 1191HOH     H1 3760   1.955   2.244   0.220
 1191HOH     H2 3761   2.087   2.305   0.260
 1192HOH      O 3762   0.443   0.335   1.177
 1192HOH     H1 3763   0.430   0.240   1.168
 1192HOH     H2 3764   0.362   0.373   1.142
 1193HOH      O 3765   2.032   3.372   0.676
 1193HOH     H1 3766   2.050   3.430   0.750
 1193HOH     H2 3767   2.108   3.314   0.674
 1194HOH      O 3768   3.993   0.761   1.066
 1194HOH     H1 3769   3.940   0.840   1.069
 1194HOH     H2 3770   4.031   0.760   0.978
 1195HOH      O 3771   0.241   1.706   3.475
 1195HOH     H1 3772   0.153   1.671   3.488
 1195HOH     H2 3773   0.272   1.665   3.394
 1196HOH      O 3774   0.757   1.243   2.427
 1196HOH     H1 3775   0.771   1.335   2.450
 1196HOH     H2 3776   0.779   1.237   2.334
 1197HOH      O 3777   1.829   0.471   3.186
 1197HOH     H1 3778   1.760   0.538   3.188
 1197HOH     H2 3779   1.783   0.389   3.208
 1198HOH      O 3780   0.085   3.672   2.726
 1198HOH     H1 3781   0.091   3.609   2.654
 1198HOH     H2 3782   0.153   3.644   2.788
 1199HOH      O 3783   0.796   2.240   3.813
 1199HOH     H1 3784   0.834   2.171   3.866
 1199HOH     H2 3785   0.848   2.318   3.833
 1200HOH      O 3786   1.241   1.894   3.741
 1200HOH     H1 3787   1.178   1.854   3.681
 1200HOH     H2 3788   1.272   1.972   3.696
 1201HOH      O 3789   1.814   1.349   1.518
 1201HOH     H1 3790   1.727   1.353   1.477
 1201HOH     H2 3791   1.852   1.435   1.503
 1202HOH      O 3792   0.125   1.031   1.799
 1202HOH     H1 3793   0.203   0.975   1.792
 1202HOH     H2 3794   0.152   1.102   1.857
 1203HOH      O 3795   1.307   1.753   3.500
 1203HOH     H1 3796   1.380   1.727   3.443
 1203HOH     H2 3797   1.302   1.848   3.492
 1204HOH      O 3798   0.133   1.190   3.847
 1204HOH     H1 3799   0.138   1.247   3.770
 1204HOH     H2 3800   0.159   1.246   3.920
 1205HOH      O 3801   2.829   1.087   3.822
 1205HOH     H1 3802   2.758   1.034   3.855
 1205HOH     H2 3803   2.862   1.039   3.746
 1206HOH      O 3804   3.526   2.248   3.120
 1206HOH     H1 3805   3.484   2.169   3.087
 1206HOH     H2 3806   3.582   2.278   3.048
 1207HOH      O 3807   1.520   1.014   0.802
 1207HOH     H1 3808   1.565   0.997   0.719
 1207HOH     H2 3809   1.450   1.075   0.781
 1208HOH      O 3810   3.636   2.928   2.658
 1208HOH     H1 3811   3.564   2.866   2.664
 1208HOH     H2 3812   3.680   2.906   2.575
 1209HOH      O 3813   1.141   0.135   0.381
 1209HOH     H1 3814   1.074   0.200   0.402
 1209HOH     H2 3815   1.172   0.104   0.467
 1210HOH      O 3816   2.771   3.477   2.675
 1210HOH     H1 3817   2.768   3.572   2.659
 1210HOH     H2 3818   2.859   3.451   2.650
 1211HOH      O 3819   1.594   3.284   0.620
 1211HOH     H1 3820   1.504   3.255   0.636
 1211HOH     H2 3821   1.639   3.270   0.703
 1212HOH      O 3822   2.140   1.767   0.892
 1212HOH     H1 3823   2.195   1.766   0.970
 1212HOH     H2 3824   2.118   1.859   0.880
 1213HOH      O 3825   1.557   3.977   2.153
 1213HOH     H1 3826   1.580   4.030   2.229
 1213HOH     H2 3827   1.626   3.994   2.090
 1214HOH      O 3828   3.415   1.201   2.055
 1214HOH     H1 3829   3.470   1.278   2.050
 1214HOH     H2 3830   3.428   1.156   1.972
 1215HOH      O 3831   3.028   0.021   3.328
 1215HOH     H1 3832   3.113   0.029   3.285
 1215HOH     H2 3833   3.048  -0.009   3.416
 1216HOH      O 3834   0.496   0.714   0.560
 1216HOH     H1 3835   0.581   0.672   0.575
 1216HOH     H2 3836   0.473   0.752   0.644
 1217HOH      O 3837   1.685   3.618   0.817
 1217HOH     H1 3838   1.591   3.604   0.808
 1217HOH     H2 3839   1.699   3.631   0.910
 1218HOH      O 3840   0.273   3.626   0.605
 1218HOH     H1 3841   0.301   3.572   0.678
 1218HOH     H2 3842   0.229   3.565   0.546
 1219HOH      O 3843   1.537   1.361   1.477
 1219HOH     H1 3844   1.518   1.446   1.438
 1219HOH     H2 3845   1.496   1.364   1.564
 1220HOH      O 3846   3.306   3.957   1.601
 1220HOH     H1 3847   3.324   3.874   1.645
 1220HOH     H2 3848   3.390   3.982   1.562
 1221HOH      O 3849   3.272   1.578   3.408
 1221HOH     H1 3850   3.339   1.646   3.404
 1221HOH     H2 3851   3.292   1.520   3.335
 1222HOH      O 3852   0.356   1.062   0.036
 1222HOH     H1 3853   0.342   0.975   0.072
 1222HOH     H2 3854   0.285   1.073  -0.028
 1223HOH      O 3855   3.867   1.768   2.329
 1223HOH     H1 3856   3.839   1.793   2.241
 1223HOH     H2 3857   3.804   1.700   2.355
 1224HOH      O 3858   1.309   0.112   2.090
 1224HOH     H1 3859   1.402   0.092   2.101
 1224HOH     H2 3860   1.284   0.154   2.172
 1225HOH      O 3861   1.839   0.729   0.635
 1225HOH     H1 3862   1.874   0.654   0.683
 1225HOH     H2 3863   1.890   0.732   0.555
 1226HOH      O 3864   3.948   1.377   2.588
 1226HOH     H1 3865   4.034   1.357   2.625
 1226HOH     H2 3866   3.943   1.473   2.588
 1227HOH      O 3867   1.791   0.232   3.304
 1227HOH     H1 3868   1.844   0.160   3.269
 1227HOH     H2 3869   1.751   0.195   3.383
 1228HOH      O 3870   0.702   0.745   2.791
 1228HOH     H1 3871   0.687   0.832   2.754
 1228HOH     H2 3872   0.732   0.692   2.717
 1229HOH      O 3873   1.210   3.710   1.466
 1229HOH     H1 3874   1.202   3.705   1.562
 1229HOH     H2 3875   1.208   3.803   1.446
 1230HOH      O 3876   1.254   3.079   2.193
 1230HOH     H1 3877   1.268   3.123   2.277
 1230HOH     H2 3878   1.308   3.000   2.198
 1231HOH      O 3879   3.968   3.768   0.120
 1231HOH     H1 3880   4.039   3.785   0.057
 1231HOH     H2 3881   3.893   3.745   0.066
 1232HOH      O 3882   1.290   0.117   3.517
 1232HOH     H1 3883   1.383   0.099   3.533
 1232HOH     H2 3884   1.287   0.210   3.497
 1233HOH      O 3885   1.733   1.703   3.552
 1233HOH     H1 3886   1.677   1.636   3.514
 1233HOH     H2 3887   1.817   1.692   3.507
 1234HOH      O 3888   2.578   1.530   2.992
 1234HOH     H1 3889   2.658   1.505   3.039
 1234HOH     H2 3890   2.534   1.592   3.051
 1235HOH      O 3891   0.848   2.396   1.879
 1235HOH     H1 3892   0.857   2.342   1.958
 1235HOH     H2 3893   0.935   2.432   1.865
 1236HOH      O 3894   3.120   2.633   1.498
 1236HOH     H1 3895   3.161   2.579   1.566
 1236HOH     H2 3896   3.165   2.608   1.418
 1237HOH      O 3897   1.967   3.413   3.784
 1237HOH     H1 3898   1.923   3.404   3.868
 1237HOH     H2 3899   1.900   3.446   3.725
 1238HOH      O 3900   0.101   1.725   2.260
 1238HOH     H1 3901   0.047   1.801   2.237
 1238HOH     H2 3902   0.038   1.656   2.278
 1239HOH      O 3903   0.311   3.808   0.342
 1239HOH     H1 3904   0.330   3.899   0.363
 1239HOH     H2 3905   0.273   3.772   0.422
 1240HOH      O 3906   0.639   1.954   1.247
 1240HOH     H1 3907   0.697   1.879   1.248
 1240HOH     H2 3908   0.675   2.014   1.312
 1241HOH      O 3909   0.741   1.011   3.128
 1241HOH     H1 3910   0.732   1.104   3.106
 1241HOH     H2 3911   0.806   1.009   3.198
 1242HOH      O 3912   3.298   0.735   3.686
 1242HOH     H1 3913   3.351   0.701   3.613
 1242HOH     H2 3914   3.253   0.658   3.721
 1243HOH      O 3915   0.813   3.919   1.867
 1243HOH     H1 3916   0.726   3.897   1.900
 1243HOH     H2 3917   0.803   4.007   1.831
 1244HOH      O 3918   2.538   1.510   3.515
 1244HOH     H1 3919   2.521   1.525   3.608
 1244HOH     H2 3920   2.632   1.522   3.504
 1245HOH      O 3921   2.878   1.969   0.487
 1245HOH     H1 3922   2.936   2.024   0.541
 1245HOH     H2 3923   2.880   2.010   0.401
 1246HOH      O 3924   2.139   3.231   3.438
 1246HOH     H1 3925   2.097   3.285   3.370
 1246HOH     H2 3926   2.071   3.169   3.464
 1247HOH      O 3927   0.754   0.972   1.271
 1247HOH     H1 3928   0.662   0.962   1.294
 1247HOH     H2 3929   0.801   0.958   1.353
 1248HOH      O 3930   3.763   3.734   1.806
 1248HOH     H1 3931   3.758   3.667   1.875
 1248HOH     H2 3932   3.848   3.721   1.765
 1249HOH      O 3933   1.855   3.360   0.236
 1249HOH     H1 3934   1.857   3.362   0.332
 1249HOH     H2 3935   1.914   3.430   0.210
 1250HOH      O 3936   2.530   1.862   2.413
 1250HOH     H1 3937   2.456   1.906   2.455
 1250HOH     H2 3938   2.564   1.926   2.351
 1251HOH      O 3939   3.490   0.156   3.137
 1251HOH     H1 3940   3.508   0.236   3.187
 1251HOH     H2 3941   3.471   0.187   3.048
 1252HOH      O 3942   1.730   0.915   2.144
 1252HOH     H1 3943   1.722   1.005   2.177
 1252HOH     H2 3944   1.685   0.862   2.210
 1253HOH      O 3945   0.860   0.411   1.573
 1253HOH     H1 3946   0.952   0.411   1.545
 1253HOH     H2 3947   0.811   0.389   1.493
 1254HOH      O 3948   2.060   3.740   2.242
 1254HOH     H1 3949   1.977   3.779   2.215
 1254HOH     H2 3950   2.118   3.753   2.167
 1255HOH      O 3951   3.533   0.350   3.339
 1255HOH     H1 3952   3.609   0.327   3.393
 1255HOH     H2 3953   3.565   0.420   3.282
 1256HOH      O 3954   2.161   0.406   3.423
 1256HOH     H1 3955   2.181   0.436   3.511
 1256HOH     H2 3956   2.134   0.485   3.376
 1257HOH      O 3957   2.545   2.322   1.234
 1257HOH     H1 3958   2.580   2.250   1.288
 1257HOH     H2 3959   2.566   2.297   1.144
 1258HOH      O 3960   0.749   3.038   1.295
 1258HOH     H1 3961   0.739   3.117   1.242
 1258HOH     H2 3962   0.795   2.976   1.238
 1259HOH      O 3963   3.925   0.040   0.261
 1259HOH     H1 3964   3.959  -0.048   0.248
 1259HOH     H2 3965   3.975   0.074   0.336
 1260HOH      O 3966   2.144   0.170   0.223
 1260HOH     H1 3967   2.239   0.162   0.234
 1260HOH     H2 3968   2.133   0.248   0.169
 1261HOH      O 3969   1.425   1.309   2.243
 1261HOH     H1 3970   1.377   1.384   2.208
 1261HOH     H2 3971   1.466   1.268   2.167
 1262HOH      O 3972   3.380   0.081   1.150
 1262HOH     H1 3973   3.424   0.164   1.131
 1262HOH     H2 3974   3.314   0.073   1.082
 1263HOH      O 3975   0.244   0.137   1.335
 1263HOH     H1 3976   0.248   0.044   1.311
 1263HOH     H2 3977   0.306   0.144   1.408
 1264HOH      O 3978   0.968   1.366   2.285
 1264HOH     H1 3979   1.018   1.424   2.342
 1264HOH     H2 3980   1.032   1.302   2.254
 1265HOH      O 3981   1.976   1.649   3.430
 1265HOH     H1 3982   2.003   1.683   3.344
 1265HOH     H2 3983   2.059   1.628   3.473
 1266HOH      O 3984   2.736   3.178   1.663
 1266HOH     H1 3985   2.759   3.218   1.746
 1266HOH     H2 3986   2.698   3.250   1.611
 1267HOH      O 3987   1.566   0.004   0.207
 1267HOH     H1 3988   1.602  -0.011   0.295
 1267HOH     H2 3989   1.595   0.093   0.185
 1268HOH      O 3990   0.281   2.893   3.270
 1268HOH     H1 3991   0.267   2.983   3.238
 1268HOH     H2 3992   0.374   2.891   3.296
 1269HOH      O 3993   0.510   0.724   3.161
 1269HOH     H1 3994   0.604   0.711   3.145
 1269HOH     H2 3995   0.503   0.817   3.184
 1270HOH      O 3996   3.854   3.558   3.255
 1270HOH     H1 3997   3.813   3.498   3.318
 1270HOH     H2 3998   3.807   3.541   3.173
 1271HOH      O 3999   3.908   0.584   2.718
 1271HOH     H1 4000   3.840   0.571   2.652
 1271HOH     H2 4001   3.934   0.676   2.708
 1272HOH      O 4002   2.379   2.805   2.820
 1272HOH     H1 4003   2.457   2.758   2.850
 1272HOH     H2 4004   2.406   2.896   2.816
 1273HOH      O 4005   1.246   1.081   0.550
 1273HOH     H1 4006   1.281   0.997   0.520
 1273HOH     H2 4007   1.151   1.072   0.543
 1274HOH      O 4008   3.431   1.261   0.410
 1274HOH     H1 4009   3.416   1.245   0.316
 1274HOH     H2 4010   3.411   1.178   0.452
 1275HOH      O 4011   1.713   2.236   3.666
 1275HOH     H1 4012   1.713   2.253   3.572
 1275HOH     H2 4013   1.751   2.149   3.675
 1276HOH      O 4014   3.611   3.903   3.537
 1276HOH     H1 4015   3.594   3.824   3.484
 1276HOH     H2 4016   3.692   3.883   3.584
 1277HOH      O 4017   2.264   0.765   3.151
 1277HOH     H1 4018   2.181   0.803   3.122
 1277HOH     H2 4019   2.278   0.804   3.238
 1278HOH      O 4020   2.013   3.712   1.576
 1278HOH     H1 4021   2.042   3.637   1.523
 1278HOH     H2 4022   2.083   3.776   1.567
 1279HOH      O 4023   3.008   2.905   0.224
 1279HOH     H1 4024   3.041   2.816   0.210
 1279HOH     H2 4025   3.081   2.962   0.203
 1280HOH      O 4026   3.202   3.670   2.286
 1280HOH     H1 4027   3.133   3.698   2.226
 1280HOH     H2 4028   3.216   3.578   2.266
 1281HOH      O 4029   1.908   3.708   3.953
 1281HOH     H1 4030   1.948   3.679   3.871
 1281HOH     H2 4031   1.926   3.802   3.957
 1282HOH      O 4032   1.984   1.698   0.695
 1282HOH     H1 4033   1.891   1.700   0.718
 1282HOH     H2 4034   2.028   1.708   0.780
 1283HOH      O 4035   0.082   0.120   0.479
 1283HOH     H1 4036   0.100   0.102   0.572
 1283HOH     H2 4037   0.019   0.192   0.482
 1284HOH      O 4038   1.321   0.592   1.012
 1284HOH     H1 4039   1.396   0.548   1.051
 1284HOH     H2 4040   1.360   0.650   0.946
 1285HOH      O 4041   3.310   2.563   1.707
 1285HOH     H1 4042   3.285   2.620   1.780
 1285HOH     H2 4043   3.253   2.487   1.717
 1286HOH      O 4044   1.265   0.958   3.410
 1286HOH     H1 4045   1.173   0.935   3.399
 1286HOH     H2 4046   1.269   1.051   3.389
 1287HOH      O 4047   2.701   3.107   3.565
 1287HOH     H1 4048   2.696   3.183   3.506
 1287HOH     H2 4049   2.794   3.085   3.567
 1288HOH      O 4050   1.464   2.348   0.741
 1288HOH     H1 4051   1.489   2.276   0.799
 1288HOH     H2 4052   1.368   2.344   0.739
 1289HOH      O 4053   3.618   3.202   2.623
 1289HOH     H1 4054   3.629   3.107   2.634
 1289HOH     H2 4055   3.679   3.225   2.552
 1290HOH      O 4056   3.452   1.851   1.081
 1290HOH     H1 4057   3.411   1.848   1.168
 1290HOH     H2 4058   3.398   1.913   1.032
 1291HOH      O 4059   3.686   2.823   2.373
 1291HOH     H1 4060   3.743   2.811   2.297
 1291HOH     H2 4061   3.645   2.738   2.386
 1292HOH      O 4062   3.086   2.895   3.826
 1292HOH     H1 4063   3.065   2.814   3.781
 1292HOH     H2 4064   3.175   2.917   3.796
 1293HOH      O 4065   1.046   3.145   3.956
 1293HOH     H1 4066   1.040   3.216   4.019
 1293HOH     H2 4067   1.105   3.178   3.888
 1294HOH      O 4068   3.643   1.974   3.793
 1294HOH     H1 4069   3.731   1.940   3.809
 1294HOH     H2 4070   3.657   2.058   3.750
 1295HOH      O 4071   1.158   2.994   0.154
 1295HOH     H1 4072   1.085   2.998   0.093
 1295HOH     H2 4073   1.119   2.964   0.236
 1296HOH      O 4074   1.074   1.906   1.242
 1296HOH     H1 4075   1.024   1.986   1.257
 1296HOH     H2 4076   1.026   1.839   1.291
 1297HOH      O 4077   3.715   1.564   2.407
 1297HOH     H1 4078   3.680   1.588   2.493
 1297HOH     H2 4079   3.645   1.511   2.367
 1298HOH      O 4080   1.653   3.643   3.240
 1298HOH     H1 4081   1.655   3.563   3.186
 1298HOH     H2 4082   1.679   3.713   3.180
 1299HOH      O 4083   3.018   2.475   0.817
 1299HOH     H1 4084   3.113   2.479   0.813
 1299HOH     H2 4085   2.992   2.445   0.730
 1300HOH      O 4086   2.083   0.906   2.054
 1300HOH     H1 4087   2.100   0.998   2.036
 1300HOH     H2 4088   2.112   0.892   2.144
 1301HOH      O 4089   1.283   0.987   1.394
 1301HOH     H1 4090   1.353   1.040   1.355
 1301HOH     H2 4091   1.327   0.932   1.459
 1302HOH      O 4092   3.667   3.903   3.892
 1302HOH     H1 4093   3.696   3.994   3.880
 1302HOH     H2 4094   3.691   3.859   3.811
 1303HOH      O 4095   2.195   3.437   3.605
 1303HOH     H1 4096   2.161   3.361   3.557
 1303HOH     H2 4097   2.122   3.463   3.663
 1304HOH      O 4098   3.174   1.513   0.782
 1304HOH     H1 4099   3.208   1.488   0.868
 1304HOH     H2 4100   3.246   1.493   0.721
 1305HOH      O 4101   3.835   3.761   3.648
 1305HOH     H1 4102   3.879   3.711   3.579
 1305HOH     H2 4103   3.903   3.819   3.682
 1306HOH      O 4104   3.007   0.724   3.122
 1306HOH     H1 4105   2.912   0.716   3.111
 1306HOH     H2 4106   3.029   0.660   3.189
 1307HOH      O 4107   1.561   2.042   1.202
 1307HOH     H1 4108   1.498   1.994   1.255
 1307HOH     H2 4109   1.525   2.131   1.197
 1308HOH      O 4110   3.660   0.846   2.143
 1308HOH     H1 4111   3.607   0.910   2.190
 1308HOH     H2 4112   3.630   0.761   2.176
 1309HOH      O 4113   0.860   1.665   3.969
 1309HOH     H1 4114   0.950   1.637   3.986
 1309HOH     H2 4115   0.861   1.759   3.986
 1310HOH      O 4116   2.321   3.758   1.729
 1310HOH     H1 4117   2.272   3.819   1.673
 1310HOH     H2 4118   2.411   3.764   1.698
 1311HOH      O 4119   1.571   1.407   0.618
 1311HOH     H1 4120   1.560   1.380   0.527
 1311HOH     H2 4121   1.505   1.356   0.666
 1312HOH      O 4122   3.951   1.614   0.403
 1312HOH     H1 4123   3.985   1.701   0.422
 1312HOH     H2 4124   3.867   1.610   0.449
 1313HOH      O 4125   2.217   2.654   2.658
 1313HOH     H1 4126   2.272   2.620   2.588
 1313HOH     H2 4127   2.278   2.696   2.719
 1314HOH      O 4128   3.481   0.352   2.131
 1314HOH     H1 4129   3.510   0.421   2.190
 1314HOH     H2 4130   3.550   0.286   2.134
 1315HOH      O 4131   0.721   1.386   3.291
 1315HOH     H1 4132   0.742   1.340   3.210
 1315HOH     H2 4133   0.750   1.327   3.361
 1316HOH      O 4134   0.542   0.683   0.239
 1316HOH     H1 4135   0.446   0.683   0.243
 1316HOH     H2 4136   0.562   0.655   0.149
 1317HOH      O 4137   0.811   2.632   2.905
 1317HOH     H1 4138   0.899   2.619   2.941
 1317HOH     H2 4139   0.770   2.546   2.911
 1318HOH      O 4140   2.870   1.787   1.693
 1318HOH     H1 4141   2.782   1.788   1.730
 1318HOH     H2 4142   2.857   1.794   1.599
 1319HOH      O 4143   1.645   1.436   3.494
 1319HOH     H1 4144   1.665   1.363   3.436
 1319HOH     H2 4145   1.554   1.422   3.521
 1320HOH      O 4146   2.639   2.164   0.143
 1320HOH     H1 4147   2.577   2.108   0.097
 1320HOH     H2 4148   2.663   2.231   0.079
 1321HOH      O 4149   3.012   3.876   0.256
 1321HOH     H1 4150   3.062   3.943   0.303
 1321HOH     H2 4151   3.029   3.894   0.163
 1322HOH      O 4152   0.812   1.748   1.187
 1322HOH     H1 4153   0.829   1.655   1.201
 1322HOH     H2 4154   0.850   1.766   1.101
 1323HOH      O 4155   0.037   1.894   3.642
 1323HOH     H1 4156   0.119   1.893   3.692
 1323HOH     H2 4157  -0.031   1.896   3.709
 1324HOH      O 4158   0.662   1.080   2.080
 1324HOH     H1 4159   0.645   0.994   2.119
 1324HOH     H2 4160   0.577   1.124   2.081
 1325HOH      O 4161   0.777   0.006   3.843
 1325HOH     H1 4162   0.698  -0.047   3.844
 1325HOH     H2 4163   0.760   0.074   3.778
 1326HOH      O 4164   2.158   0.813   0.258
 1326HOH     H1 4165   2.235   0.788   0.310
 1326HOH     H2 4166   2.193   0.869   0.189
 1327HOH      O 4167   0.989   2.535   0.691
 1327HOH     H1 4168   1.003   2.441   0.704
 1327HOH     H2 4169   0.906   2.553   0.735
 1328HOH      O 4170   0.979   3.931   0.570
 1328HOH     H1 4171   0.913   3.928   0.639
 1328HOH     H2 4172   0.952   3.863   0.508
 1329HOH      O 4173   1.101   2.949   0.500
 1329HOH     H1 4174   1.079   2.856   0.494
 1329HOH     H2 4175   1.183   2.951   0.549
 1330HOH      O 4176   1.399   1.993   1.728
 1330HOH     H1 4177   1.378   2.084   1.704
 1330HOH     H2 4178   1.451   2.000   1.807
 1331HOH      O 4179   2.821   3.549   3.838
 1331HOH     H1 4180   2.756   3.489   3.875
 1331HOH     H2 4181   2.824   3.526   3.745
 1332HOH      O 4182   0.158   3.491   0.995
 1332HOH     H1 4183   0.144   3.400   0.968
 1332HOH     H2 4184   0.102   3.502   1.072
 1333HOH      O 4185   1.200   0.451   2.469
 1333HOH     H1 4186   1.169   0.387   2.533
 1333HOH     H2 4187   1.121   0.479   2.423
 1334HOH      O 4188   2.211   3.899   1.535
 1334HOH     H1 4189   2.153   3.975   1.540
 1334HOH     H2 4190   2.266   3.916   1.458
 1335HOH      O 4191   2.315   1.384   1.523
 1335HOH     H1 4192   2.280   1.346   1.443
 1335HOH     H2 4193   2.410   1.373   1.515
 1336HOH      O 4194   1.066   3.283   0.171
 1336HOH     H1 4195   1.017   3.226   0.231
 1336HOH     H2 4196   1.088   3.360   0.224
 1337HOH      O 4197   1.493   2.003   2.711
 1337HOH     H1 4198   1.563   1.976   2.651
 1337HOH     H2 4199   1.467   2.089   2.679
 1338HOH      O 4200   3.341   3.382   1.507
 1338HOH     H1 4201   3.369   3.364   1.596
 1338HOH     H2 4202   3.412   3.435   1.470
 1339HOH      O 4203   3.368   3.032   0.918
 1339HOH     H1 4204   3.374   3.122   0.950
 1339HOH     H2 4205   3.414   3.033   0.835
 1340HOH      O 4206   4.010   0.452   0.809
 1340HOH     H1 4207   3.926   0.498   0.815
 1340HOH     H2 4208   4.002   0.381   0.873
 1341HOH      O 4209   3.732   0.472   3.744
 1341HOH     H1 4210   3.732   0.558   3.703
 1341HOH     H2 4211   3.775   0.415   3.681
 1342HOH      O 4212   1.788   1.168   0.050
 1342HOH     H1 4213   1.724   1.188   0.118
 1342HOH     H2 4214   1.769   1.230  -0.020
 1343HOH      O 4215   0.471   2.555   0.618
 1343HOH     H1 4216   0.493   2.559   0.525
 1343HOH     H2 4217   0.377   2.576   0.621
 1344HOH      O 4218   1.365   1.258   0.751
 1344HOH     H1 4219   1.287   1.294   0.792
 1344HOH     H2 4220   1.332   1.200   0.682
 1345HOH      O 4221   1.813   3.792   3.026
 1345HOH     H1 4222   1.740   3.776   2.966
 1345HOH     H2 4223   1.884   3.824   2.970
 1346HOH      O 4224   0.828   2.262   2.486
 1346HOH     H1 4225   0.740   2.229   2.470
 1346HOH     H2 4226   0.822   2.356   2.466
 1347HOH      O 4227   3.399   0.988   3.581
 1347HOH     H1 4228   3.459   0.966   3.652
 1347HOH     H2 4229   3.448   0.967   3.501
 1348HOH      O 4230   3.716   0.551   1.521
 1348HOH     H1 4231   3.657   0.617   1.558
 1348HOH     H2 4232   3.724   0.574   1.428
 1349HOH      O 4233   1.317   0.401   3.347
 1349HOH     H1 4234   1.344   0.443   3.266
 1349HOH     H2 4235   1.275   0.320   3.320
 1350HOH      O 4236   3.157   0.504   3.758
 1350HOH     H1 4237   3.229   0.454   3.796
 1350HOH     H2 4238   3.148   0.470   3.669
 1351HOH      O 4239   3.284   1.021   0.556
 1351HOH     H1 4240   3.202   1.068   0.545
 1351HOH     H2 4241   3.297   0.975   0.473
 1352HOH      O 4242   0.844   2.239   0.678
 1352HOH     H1 4243   0.833   2.265   0.770
 1352HOH     H2 4244   0.776   2.174   0.663
 1353HOH      O 4245   0.600   2.190   3.619
 1353HOH     H1 4246   0.638   2.159   3.536
 1353HOH     H2 4247   0.674   2.195   3.679
 1354HOH      O 4248   3.133   1.824   0.947
 1354HOH     H1 4249   3.099   1.745   0.990
 1354HOH     H2 4250   3.095   1.820   0.859
 1355HOH      O 4251   1.561   4.049   1.781
 1355HOH     H1 4252   1.467   4.035   1.788
 1355HOH     H2 4253   1.601   3.972   1.822
 1356HOH      O 4254   1.522   2.370   2.891
 1356HOH     H1 4255   1.461   2.381   2.965
 1356HOH     H2 4256   1.492   2.433   2.826
 1357HOH      O 4257   0.113   1.816   3.946
 1357HOH     H1 4258   0.163   1.850   4.020
 1357HOH     H2 4259   0.177   1.770   3.892
 1358HOH      O 4260   1.395   1.315   3.581
 1358HOH     H1 4261   1.319   1.331   3.637
 1358HOH     H2 4262   1.452   1.260   3.634
 1359HOH      O 4263   3.197   0.511   1.335
 1359HOH     H1 4264   3.139   0.474   1.401
 1359HOH     H2 4265   3.159   0.484   1.252
 1360HOH      O 4266   0.254   1.526   2.670
 1360HOH     H1 4267   0.186   1.578   2.627
 1360HOH     H2 4268   0.307   1.591   2.715
 1361HOH      O 4269   1.212   0.190   0.040
 1361HOH     H1 4270   1.259   0.120   0.085
 1361HOH     H2 4271   1.166   0.146  -0.032
 1362HOH      O 4272   4.014   0.093   1.999
 1362HOH     H1 4273   4.015   0.050   2.084
 1362HOH     H2 4274   3.926   0.129   1.991
 1363HOH      O 4275   3.372   0.938   0.304
 1363HOH     H1 4276   3.289   0.943   0.259
 1363HOH     H2 4277   3.437   0.931   0.234
 1364HOH      O 4278   0.484   3.366   3.637
 1364HOH     H1 4279   0.495   3.438   3.699
 1364HOH     H2 4280   0.530   3.397   3.558
 1365HOH      O 4281   1.168   3.503   1.900
 1365HOH     H1 4282   1.180   3.435   1.833
 1365HOH     H2 4283   1.182   3.457   1.983
 1366HOH      O 4284   4.012   3.873   2.557
 1366HOH     H1 4285   4.042   3.797   2.605
 1366HOH     H2 4286   3.917   3.862   2.553
 1367HOH      O 4287   1.517   3.184   0.079
 1367HOH     H1 4288   1.486   3.274   0.091
 1367HOH     H2 4289   1.554   3.160   0.164
 1368HOH      O 4290   3.092   1.693   0.364
 1368HOH     H1 4291   3.167   1.665   0.416
 1368HOH     H2 4292   3.119   1.777   0.326
 1369HOH      O 4293   1.530   2.119   3.132
 1369HOH     H1 4294   1.593   2.190   3.123
 1369HOH     H2 4295   1.449   2.154   3.095
 1370HOH      O 4296   0.421   1.281   1.596
 1370HOH     H1 4297   0.474   1.228   1.656
 1370HOH     H2 4298   0.392   1.219   1.528
 1371HOH      O 4299   1.312   0.317   0.639
 1371HOH     H1 4300   1.351   0.232   0.661
 1371HOH     H2 4301   1.224   0.295   0.607
 1372HOH      O 4302   0.961   2.726   1.626
 1372HOH     H1 4303   1.025   2.766   1.567
 1372HOH     H2 4304   1.013   2.685   1.695
 1373HOH      O 4305   2.711   3.215   3.315
 1373HOH     H1 4306   2.628   3.220   3.268
 1373HOH     H2 4307   2.773   3.181   3.250
 1374HOH      O 4308   0.363   1.712   2.839
 1374HOH     H1 4309   0.399   1.801   2.839
 1374HOH     H2 4310   0.271   1.724   2.863
 1375HOH      O 4311   1.332   2.917   0.656
 1375HOH     H1 4312   1.369   2.847   0.603
 1375HOH     H2 4313   1.288   2.872   0.728
 1376HOH      O 4314   3.331   0.828   0.786
 1376HOH     H1 4315   3.317   0.897   0.720
 1376HOH     H2 4316   3.276   0.755   0.756
 1377HOH      O 4317   0.822   0.243   1.373
 1377HOH     H1 4318   0.887   0.175   1.357
 1377HOH     H2 4319   0.815   0.290   1.290
 1378HOH      O 4320   1.015   3.099   3.563
 1378HOH     H1 4321   1.065   3.052   3.496
 1378HOH     H2 4322   0.981   3.176   3.517
 1379HOH      O 4323   1.971   0.493   0.807
 1379HOH     H1 4324   1.977   0.400   0.828
 1379HOH     H2 4325   2.053   0.530   0.840
 1380HOH      O 4326   3.359   3.088   1.450
 1380HOH     H1 4327   3.297   3.018   1.472
 1380HOH     H2 4328   3.310   3.169   1.465
 1381HOH      O 4329   2.918   1.580   1.425
 1381HOH     H1 4330   2.995   1.613   1.471
 1381HOH     H2 4331   2.913   1.488   1.448
 1382HOH      O 4332   2.248   3.164   3.704
 1382HOH     H1 4333   2.196   3.242   3.684
 1382HOH     H2 4334   2.260   3.121   3.620
 1383HOH      O 4335   3.770   3.859   2.153
 1383HOH     H1 4336   3.854   3.874   2.196
 1383HOH     H2 4337   3.792   3.818   2.070
 1384HOH      O 4338   0.140   0.243   3.168
 1384HOH     H1 4339   0.094   0.180   3.224
 1384HOH     H2 4340   0.204   0.285   3.225
 1385HOH      O 4341   1.194   2.609   3.943
 1385HOH     H1 4342   1.288   2.613   3.924
 1385HOH     H2 4343   1.155   2.675   3.886
 1386HOH      O 4344   2.042   3.745   2.854
 1386HOH     H1 4345   1.995   3.664   2.872
 1386HOH     H2 4346   2.134   3.721   2.855
 1387HOH      O 4347   0.979   0.835   3.316
 1387HOH     H1 4348   1.000   0.864   3.228
 1387HOH     H2 4349   1.040   0.762   3.332
 1388HOH      O 4350   2.881   3.662   2.959
 1388HOH     H1 4351   2.955   3.618   2.918
 1388HOH     H2 4352   2.848   3.600   3.024
 1389HOH      O 4353   2.817   1.041   3.511
 1389HOH     H1 4354   2.727   1.061   3.484
 1389HOH     H2 4355   2.864   1.124   3.498
 1390HOH      O 4356   2.273   1.584   0.048
 1390HOH     H1 4357   2.234   1.555   0.131
 1390HOH     H2 4358   2.204   1.569  -0.017
 1391HOH      O 4359   1.835   0.868   0.094
 1391HOH     H1 4360   1.806   0.955   0.121
 1391HOH     H2 4361   1.786   0.808   0.150
 1392HOH      O 4362   3.568   1.148   1.202
 1392HOH     H1 4363   3.545   1.094   1.278
 1392HOH     H2 4364   3.493   1.208   1.192
 1393HOH      O 4365   3.827   3.166   1.785
 1393HOH     H1 4366   3.865   3.097   1.730
 1393HOH     H2 4367   3.811   3.238   1.724
 1394HOH      O 4368   3.217   1.573   0.030
 1394HOH     H1 4369   3.310   1.562   0.047
 1394HOH     H2 4370   3.187   1.635   0.096
 1395HOH      O 4371   2.673   0.521   2.172
 1395HOH     H1 4372   2.753   0.478   2.202
 1395HOH     H2 4373   2.611   0.449   2.161
 1396HOH      O 4374   1.101   0.677   2.934
 1396HOH     H1 4375   1.054   0.604   2.976
 1396HOH     H2 4376   1.046   0.754   2.951
 1397HOH      O 4377   2.412   2.935   0.189
 1397HOH     H1 4378   2.400   3.022   0.227
 1397HOH     H2 4379   2.437   2.880   0.263
 1398HOH      O 4380   3.824   2.753   2.133
 1398HOH     H1 4381   3.847   2.665   2.163
 1398HOH     H2 4382   3.905   2.803   2.144
 1399HOH      O 4383   0.603   3.293   2.138
 1399HOH     H1 4384   0.563   3.377   2.118
 1399HOH     H2 4385   0.694   3.315   2.159
 1400HOH      O 4386   0.983   0.079   0.953
 1400HOH     H1 4387   0.991   0.153   1.012
 1400HOH     H2 4388   0.985   0.118   0.865
 1401HOH      O 4389   3.297   3.534   0.498
 1401HOH     H1 4390   3.379   3.490   0.523
 1401HOH     H2 4391   3.242   3.463   0.466
 1402HOH      O 4392   1.934   1.858   1.796
 1402HOH     H1 4393   1.907   1.778   1.841
 1402HOH     H2 4394   1.917   1.928   1.859
 1403HOH      O 4395   2.388   1.276   3.649
 1403HOH     H1 4396   2.316   1.277   3.713
 1403HOH     H2 4397   2.442   1.351   3.674
 1404HOH      O 4398   2.583   1.385   1.506
 1404HOH     H1 4399   2.587   1.440   1.584
 1404HOH     H2 4400   2.610   1.442   1.434
 1405HOH      O 4401   1.686   3.460   3.057
 1405HOH     H1 4402   1.773   3.460   3.016
 1405HOH     H2 4403   1.651   3.373   3.038
 1406HOH      O 4404   0.238   0.772   0.156
 1406HOH     H1 4405   0.211   0.682   0.175
 1406HOH     H2 4406   0.186   0.797   0.080
 1407HOH      O 4407   1.368   0.608   3.628
 1407HOH     H1 4408   1.388   0.697   3.656
 1407HOH     H2 4409   1.401   0.553   3.698
 1408HOH      O 4410   2.927   1.918   3.773
 1408HOH     H1 4411   2.988   1.846   3.789
 1408HOH     H2 4412   2.841   1.876   3.773
 1409HOH      O 4413   2.390   0.720   0.358
 1409HOH     H1 4414   2.421   0.685   0.274
 1409HOH     H2 4415   2.468   0.760   0.396
 1410HOH      O 4416   3.562   2.121   0.982
 1410HOH     H1 4417   3.504   2.173   0.926
 1410HOH     H2 4418   3.509   2.099   1.058
 1411HOH      O 4419   2.457   1.846   0.420
 1411HOH     H1 4420   2.362   1.859   0.424
 1411HOH     H2 4421   2.494   1.924   0.461
 1412HOH      O 4422   0.114   2.703   3.829
 1412HOH     H1 4423   0.101   2.777   3.770
 1412HOH     H2 4424   0.199   2.667   3.805
 1413HOH      O 4425   0.888   3.682   1.650
 1413HOH     H1 4426   0.834   3.755   1.684
 1413HOH     H2 4427   0.874   3.611   1.713
 1414HOH      O 4428   0.240   0.290   3.448
 1414HOH     H1 4429   0.320   0.247   3.417
 1414HOH     H2 4430   0.208   0.234   3.518
 1415HOH      O 4431   2.821   2.508   1.030
 1415HOH     H1 4432   2.881   2.494   0.957
 1415HOH     H2 4433   2.876   2.501   1.108
 1416HOH      O 4434   3.023   0.134   0.557
 1416HOH     H1 4435   3.086   0.107   0.490
 1416HOH     H2 4436   2.994   0.051   0.597
 1417HOH      O 4437   2.625   3.168   2.264
 1417HOH     H1 4438   2.539   3.143   2.298
 1417HOH     H2 4439   2.644   3.251   2.309
 1418HOH      O 4440   1.288   0.800   1.748
 1418HOH     H1 4441   1.204   0.843   1.735
 1418HOH     H2 4442   1.271   0.734   1.815
 1419HOH      O 4443   0.633   0.238   2.864
 1419HOH     H1 4444   0.613   0.255   2.956
 1419HOH     H2 4445   0.565   0.177   2.835
 1420HOH      O 4446   2.349   3.805   1.171
 1420HOH     H1 4447   2.331   3.719   1.209
 1420HOH     H2 4448   2.359   3.789   1.077
 1421HOH      O 4449   2.063   1.479   2.087
 1421HOH     H1 4450   2.129   1.548   2.080
 1421HOH     H2 4451   1.990   1.510   2.034
 1422HOH      O 4452   0.248   2.706   2.452
 1422HOH     H1 4453   0.252   2.730   2.545
 1422HOH     H2 4454   0.279   2.784   2.407
 1423HOH      O 4455   1.735   3.484   3.599
 1423HOH     H1 4456   1.724   3.577   3.578
 1423HOH     H2 4457   1.697   3.438   3.524
 1424HOH      O 4458   1.480   2.611   2.718
 1424HOH     H1 4459   1.567   2.640   2.744
 1424HOH     H2 4460   1.429   2.691   2.707
 1425HOH      O 4461   0.939   2.225   3.071
 1425HOH     H1 4462   1.010   2.252   3.129
 1425HOH     H2 4463   0.869   2.288   3.087
 1426HOH      O 4464   2.146   0.788   0.835
 1426HOH     H1 4465   2.163   0.730   0.909
 1426HOH     H2 4466   2.231   0.830   0.818
 1427HOH      O 4467   0.387   2.601   0.364
 1427HOH     H1 4468   0.373   2.584   0.271
 1427HOH     H2 4469   0.326   2.671   0.386
 1428HOH      O 4470   2.065   2.375   3.486
 1428HOH     H1 4471   2.147   2.389   3.532
 1428HOH     H2 4472   2.052   2.280   3.486
 1429HOH      O 4473   1.326   0.593   0.664
 1429HOH     H1 4474   1.252   0.598   0.725
 1429HOH     H2 4475   1.323   0.504   0.629
 1430HOH      O 4476   2.191   1.242   1.292
 1430HOH     H1 4477   2.114   1.295   1.269
 1430HOH     H2 4478   2.155   1.155   1.309
 1431HOH      O 4479   1.140   3.251   3.032
 1431HOH     H1 4480   1.128   3.272   3.125
 1431HOH     H2 4481   1.193   3.171   3.033
 1432HOH      O 4482   2.191   3.293   2.874
 1432HOH     H1 4483   2.212   3.243   2.952
 1432HOH     H2 4484   2.248   3.258   2.806
 1433HOH      O 4485   0.340   0.319   1.860
 1433HOH     H1 4486   0.251   0.285   1.858
 1433HOH     H2 4487   0.329   0.414   1.873
 1434HOH      O 4488   1.188   2.521   2.451
 1434HOH     H1 4489   1.246   2.554   2.382
 1434HOH     H2 4490   1.109   2.573   2.442
 1435HOH      O 4491   0.654   0.439   3.231
 1435HOH     H1 4492   0.686   0.507   3.172
 1435HOH     H2 4493   0.730   0.419   3.286
 1436HOH      O 4494   3.397   3.927   0.568
 1436HOH     H1 4495   3.323   3.888   0.614
 1436HOH     H2 4496   3.390   4.021   0.587
 1437HOH      O 4497   1.893   0.094   2.238
 1437HOH     H1 4498   1.941   0.028   2.188
 1437HOH     H2 4499   1.815   0.111   2.185
 1438HOH      O 4500   0.926   3.669   0.425
 1438HOH     H1 4501   0.889   3.587   0.394
 1438HOH     H2 4502   1.020   3.656   0.423
 1439HOH      O 4503   0.393   2.500   2.318
 1439HOH     H1 4504   0.416   2.459   2.401
 1439HOH     H2 4505   0.373   2.591   2.340
 1440HOH      O 4506   2.435   0.949   3.012
 1440HOH     H1 4507   2.511   0.978   3.063
 1440HOH     H2 4508   2.367   0.933   3.078
 1441HOH      O 4509   0.508   3.555   0.335
 1441HOH     H1 4510   0.469   3.480   0.291
 1441HOH     H2 4511   0.484   3.630   0.281
 1442HOH      O 4512   1.552   0.116   2.399
 1442HOH     H1 4513   1.584   0.197   2.439
 1442HOH     H2 4514   1.460   0.134   2.377
 1443HOH      O 4515   1.220   0.471   1.216
 1443HOH     H1 4516   1.256   0.395   1.170
 1443HOH     H2 4517   1.221   0.541   1.152
 1444HOH      O 4518   1.045   2.675   0.421
 1444HOH     H1 4519   1.136   2.677   0.390
 1444HOH     H2 4520   1.047   2.614   0.495
 1445HOH      O 4521   2.804   2.779   3.893
 1445HOH     H1 4522   2.877   2.841   3.902
 1445HOH     H2 4523   2.726   2.831   3.913
 1446HOH      O 4524   0.484   0.949   1.238
 1446HOH     H1 4525   0.505   0.861   1.206
 1446HOH     H2 4526   0.405   0.973   1.190
 1447HOH      O 4527   1.233   2.464   0.545
 1447HOH     H1 4528   1.205   2.520   0.617
 1447HOH     H2 4529   1.204   2.376   0.569
 1448HOH      O 4530   0.800   3.727   3.117
 1448HOH     H1 4531   0.886   3.743   3.155
 1448HOH     H2 4532   0.800   3.776   3.035
 1449HOH      O 4533   3.674   0.436   4.012
 1449HOH     H1 4534   3.699   0.449   3.921
 1449HOH     H2 4535   3.757   0.420   4.057
 1450HOH      O 4536   0.406   0.212   2.120
 1450HOH     H1 4537   0.341   0.245   2.182
 1450HOH     H2 4538   0.408   0.278   2.051
 1451HOH      O 4539   0.866   1.119   2.822
 1451HOH     H1 4540   0.888   1.187   2.757
 1451HOH     H2 4541   0.777   1.092   2.798
 1452HOH      O 4542   0.465   0.025   3.247
 1452HOH     H1 4543   0.471   0.083   3.171
 1452HOH     H2 4544   0.472   0.083   3.322
 1453HOH      O 4545   2.665   3.709   1.472
 1453HOH     H1 4546   2.597   3.769   1.444
 1453HOH     H2 4547   2.667   3.717   1.567
 1454HOH      O 4548   1.735   1.308   1.798
 1454HOH     H1 4549   1.729   1.216   1.825
 1454HOH     H2 4550   1.765   1.304   1.707
 1455HOH      O 4551   2.923   2.552   2.239
 1455HOH     H1 4552   2.844   2.571   2.288
 1455HOH     H2 4553   2.952   2.637   2.205
 1456HOH      O 4554   3.167   2.639   2.349
 1456HOH     H1 4555   3.114   2.718   2.360
 1456HOH     H2 4556   3.117   2.584   2.290
 1457HOH      O 4557   1.732   2.911   0.096
 1457HOH     H1 4558   1.731   2.880   0.187
 1457HOH     H2 4559   1.804   2.862   0.055
 1458HOH      O 4560   3.685   3.389   3.933
 1458HOH     H1 4561   3.659   3.476   3.963
 1458HOH     H2 4562   3.618   3.331   3.970
 1459HOH      O 4563   1.454   2.896   0.009
 1459HOH     H1 4564   1.540   2.923   0.043
 1459HOH     H2 4565   1.391   2.934   0.071
 1460HOH      O 4566   0.163   3.270   2.800
 1460HOH     H1 4567   0.184   3.264   2.706
 1460HOH     H2 4568   0.189   3.185   2.835
 1461HOH      O 4569   0.675   2.982   1.785
 1461HOH     H1 4570   0.729   2.986   1.706
 1461HOH     H2 4571   0.733   3.012   1.855
 1462HOH      O 4572   0.792   0.308   2.019
 1462HOH     H1 4573   0.871   0.360   2.003
 1462HOH     H2 4574   0.824   0.217   2.017
 1463HOH      O 4575   2.566   1.826   0.748
 1463HOH     H1 4576   2.539   1.856   0.834
 1463HOH     H2 4577   2.496   1.767   0.720
 1464HOH      O 4578   1.547   1.157   3.725
 1464HOH     H1 4579   1.635   1.140   3.691
 1464HOH     H2 4580   1.560   1.178   3.817
 1465HOH      O 4581   1.730   1.030   1.880
 1465HOH     H1 4582   1.727   0.984   1.965
 1465HOH     H2 4583   1.795   0.981   1.830
 1466HOH      O 4584   1.152   1.638   3.286
 1466HOH     H1 4585   1.131   1.570   3.349
 1466HOH     H2 4586   1.240   1.667   3.309
 1467HOH      O 4587   3.241   1.182   2.368
 1467HOH     H1 4588   3.172   1.220   2.422
 1467HOH     H2 4589   3.315   1.173   2.428
 1468HOH      O 4590   1.913   0.726   2.353
 1468HOH     H1 4591   1.870   0.748   2.270
 1468HOH     H2 4592   1.890   0.799   2.411
 1469HOH      O 4593   0.711   2.821   3.708
 1469HOH     H1 4594   0.778   2.888   3.724
 1469HOH     H2 4595   0.630   2.860   3.741
 1470HOH      O 4596   1.661   0.486   2.322
 1470HOH     H1 4597   1.660   0.460   2.414
 1470HOH     H2 4598   1.742   0.448   2.287
 1471HOH      O 4599   1.332   0.831   0.491
 1471HOH     H1 4600   1.386   0.761   0.528
 1471HOH     H2 4601   1.334   0.816   0.396
 1472HOH      O 4602   0.342   1.725   2.361
 1472HOH     H1 4603   0.360   1.815   2.387
 1472HOH     H2 4604   0.254   1.729   2.323
 1473HOH      O 4605   2.691   0.782   2.671
 1473HOH     H1 4606   2.649   0.856   2.627
 1473HOH     H2 4607   2.722   0.726   2.600
 1474HOH      O 4608   2.665   1.181   2.246
 1474HOH     H1 4609   2.690   1.170   2.338
 1474HOH     H2 4610   2.681   1.273   2.227
 1475HOH      O 4611   1.451   0.325   1.648
 1475HOH     H1 4612   1.447   0.412   1.607
 1475HOH     H2 4613   1.400   0.334   1.728
 1476HOH      O 4614   1.071   0.733   0.768
 1476HOH     H1 4615   1.029   0.807   0.813
 1476HOH     H2 4616   1.110   0.772   0.690
 1477HOH      O 4617   0.110   3.410   0.076
 1477HOH     H1 4618   0.171   3.339   0.097
 1477HOH     H2 4619   0.123   3.426  -0.017
 1478HOH      O 4620   2.793   2.964   2.457
 1478HOH     H1 4621   2.788   3.002   2.370
 1478HOH     H2 4622   2.864   3.011   2.500
 1479HOH      O 4623   1.252  -0.014   2.689
 1479HOH     H1 4624   1.242   0.029   2.774
 1479HOH     H2 4625   1.345  -0.005   2.668
 1480HOH      O 4626   3.836   2.504   0.714
 1480HOH     H1 4627   3.771   2.436   0.733
 1480HOH     H2 4628   3.873   2.478   0.629
 1481HOH      O 4629   2.448   1.303   0.726
 1481HOH     H1 4630   2.396   1.245   0.669
 1481HOH     H2 4631   2.415   1.285   0.814
 1482HOH      O 4632   0.037   1.689   0.871
 1482HOH     H1 4633  -0.038   1.662   0.819
 1482HOH     H2 4634   0.032   1.634   0.950
 1483HOH      O 4635   1.111   3.830   3.268
 1483HOH     H1 4636   1.054   3.905   3.284
 1483HOH     H2 4637   1.161   3.820   3.349
 1484HOH      O 4638   0.222   0.837   2.211
 1484HOH     H1 4639   0.135   0.817   2.178
 1484HOH     H2 4640   0.208   0.865   2.301
 1485HOH      O 4641   2.689   1.660   2.769
 1485HOH     H1 4642   2.637   1.619   2.839
 1485HOH     H2 4643   2.652   1.748   2.761
 1486HOH      O 4644   0.166   3.211   3.152
 1486HOH     H1 4645   0.120   3.269   3.212
 1486HOH     H2 4646   0.232   3.266   3.109
 1487HOH      O 4647   1.882   3.899   2.063
 1487HOH     H1 4648   1.949   3.862   2.005
 1487HOH     H2 4649   1.801   3.856   2.036
 1488HOH      O 4650   0.133   3.802   3.946
 1488HOH     H1 4651   0.152   3.723   3.895
 1488HOH     H2 4652   0.214   3.818   3.995
 1489HOH      O 4653   1.993   0.635   0.022
 1489HOH     H1 4654   1.912   0.620  -0.026
 1489HOH     H2 4655   1.981   0.720   0.063
 1490HOH      O 4656   1.883   2.445   0.654
 1490HOH     H1 4657   1.791   2.467   0.635
 1490HOH     H2 4658   1.920   2.526   0.689
 1491HOH      O 4659   3.592   0.711   2.622
 1491HOH     H1 4660   3.505   0.750   2.616
 1491HOH     H2 4661   3.641   0.768   2.682
 1492HOH      O 4662   1.338   3.177   0.601
 1492HOH     H1 4663   1.342   3.175   0.505
 1492HOH     H2 4664   1.348   3.085   0.627
 1493HOH      O 4665   0.247   3.176   0.594
 1493HOH     H1 4666   0.271   3.168   0.502
 1493HOH     H2 4667   0.238   3.086   0.625
 1494HOH      O 4668   1.010   0.093   3.635
 1494HOH     H1 4669   1.080   0.076   3.572
 1494HOH     H2 4670   1.023   0.028   3.704
 1495HOH      O 4671   2.834   3.169   1.048
 1495HOH     H1 4672   2.875   3.199   1.129
 1495HOH     H2 4673   2.742   3.195   1.057
 1496HOH      O 4674   3.401   3.284   2.897
 1496HOH     H1 4675   3.439   3.197   2.906
 1496HOH     H2 4676   3.424   3.328   2.979
 1497HOH      O 4677   3.563   2.538   3.957
 1497HOH     H1 4678   3.542   2.445   3.941
 1497HOH     H2 4679   3.564   2.546   4.052
 1498HOH      O 4680   3.319   1.861   1.315
 1498HOH     H1 4681   3.316   1.935   1.375
 1498HOH     H2 4682   3.271   1.891   1.238
 1499HOH      O 4683   2.256   3.936   2.445
 1499HOH     H1 4684   2.306   3.977   2.375
 1499HOH     H2 4685   2.271   3.992   2.522
 1500HOH      O 4686   0.528   3.555   1.923
 1500HOH     H1 4687   0.464   3.549   1.852
 1500HOH     H2 4688   0.523   3.646   1.951
 1501HOH      O 4689   2.249   3.773   2.048
 1501HOH     H1 4690   2.279   3.717   2.119
 1501HOH     H2 4691   2.306   3.753   1.975
 1502HOH      O 4692   0.557   3.779   3.804
 1502HOH     H1 4693   0.498   3.704   3.813
 1502HOH     H2 4694   0.644   3.741   3.799
 1503HOH      O 4695   3.065   3.355   3.810
 1503HOH     H1 4696   3.064   3.396   3.724
 1503HOH     H2 4697   3.074   3.428   3.872
 1504HOH      O 4698   0.082   2.639   2.211
 1504HOH     H1 4699   0.134   2.582   2.267
 1504HOH     H2 4700   0.110   2.728   2.233
 1505HOH      O 4701   3.933   2.465   1.769
 1505HOH     H1 4702   3.987   2.515   1.831
 1505HOH     H2 4703   3.847   2.507   1.773
 1506HOH      O 4704   2.539   3.376   2.482
 1506HOH     H1 4705   2.557   3.467   2.457
 1506HOH     H2 4706   2.592   3.362   2.561
 1507HOH      O 4707   1.399   1.688   0.584
 1507HOH     H1 4708   1.445   1.610   0.612
 1507HOH     H2 4709   1.386   1.740   0.664
 1508HOH      O 4710   1.322   3.537   2.909
 1508HOH     H1 4711   1.363   3.620   2.932
 1508HOH     H2 4712   1.244   3.533   2.965
 1509HOH      O 4713   1.877   0.727   1.987
 1509HOH     H1 4714   1.966   0.762   1.976
 1509HOH     H2 4715   1.837   0.785   2.051
 1510HOH      O 4716   4.005   0.467   1.596
 1510HOH     H1 4717   3.932   0.425   1.552
 1510HOH     H2 4718   4.082   0.438   1.548
 1511HOH      O 4719   0.261   2.626   3.180
 1511HOH     H1 4720   0.340   2.588   3.220
 1511HOH     H2 4721   0.254   2.713   3.220
 1512HOH      O 4722   0.057   3.425   0.424
 1512HOH     H1 4723   0.015   3.490   0.481
 1512HOH     H2 4724  -0.005   3.413   0.353
 1513HOH      O 4725   3.870   1.498   0.172
 1513HOH     H1 4726   3.922   1.525   0.247
 1513HOH     H2 4727   3.811   1.431   0.207
 1514HOH      O 4728   2.889   2.018   0.175
 1514HOH     H1 4729   2.796   2.042   0.183
 1514HOH     H2 4730   2.931   2.098   0.144
 1515HOH      O 4731   3.766   2.083   0.643
 1515HOH     H1 4732   3.759   1.996   0.682
 1515HOH     H2 4733   3.722   2.075   0.558
 1516HOH      O 4734   3.955   3.079   3.180
 1516HOH     H1 4735   3.960   3.017   3.108
 1516HOH     H2 4736   4.031   3.137   3.168
 1517HOH      O 4737   1.259   1.463   1.266
 1517HOH     H1 4738   1.258   1.385   1.210
 1517HOH     H2 4739   1.230   1.432   1.351
 1518HOH      O 4740   3.939   0.830   2.147
 1518HOH     H1 4741   3.843   0.837   2.141
 1518HOH     H2 4742   3.966   0.805   2.059
 1519HOH      O 4743   0.481   3.101   1.416
 1519HOH     H1 4744   0.494   3.025   1.473
 1519HOH     H2 4745   0.549   3.092   1.350
 1520HOH      O 4746   2.189   2.013   3.200
 1520HOH     H1 4747   2.143   2.087   3.160
 1520HOH     H2 4748   2.272   2.009   3.154
 1521HOH      O 4749   3.135   2.713   2.920
 1521HOH     H1 4750   3.161   2.803   2.902
 1521HOH     H2 4751   3.064   2.695   2.857
 1522HOH      O 4752   0.624   2.163   0.368
 1522HOH     H1 4753   0.644   2.074   0.339
 1522HOH     H2 4754   0.680   2.219   0.314
 1523HOH      O 4755   0.047   3.934   3.002
 1523HOH     H1 4756   0.081   3.962   3.088
 1523HOH     H2 4757   0.013   4.015   2.963
 1524HOH      O 4758   0.814   1.641   1.737
 1524HOH     H1 4759   0.761   1.564   1.757
 1524HOH     H2 4760   0.897   1.604   1.706
 1525HOH      O 4761   2.501   2.901   3.436
 1525HOH     H1 4762   2.410   2.930   3.438
 1525HOH     H2 4763   2.552   2.981   3.448
 1526HOH      O 4764   2.992   4.005   2.926
 1526HOH     H1 4765   3.041   4.032   2.848
 1526HOH     H2 4766   3.057   3.962   2.981
 1527HOH      O 4767   0.431   1.047   3.657
 1527HOH     H1 4768   0.362   1.083   3.601
 1527HOH     H2 4769   0.476   0.984   3.601
 1528HOH      O 4770   2.185   0.932   3.771
 1528HOH     H1 4771   2.101   0.974   3.790
 1528HOH     H2 4772   2.161   0.849   3.729
 1529HOH      O 4773   0.787   2.752   3.403
 1529HOH     H1 4774   0.783   2.730   3.496
 1529HOH     H2 4775   0.866   2.708   3.371
 1530HOH      O 4776   0.991   0.229   0.693
 1530HOH     H1 4777   0.962   0.315   0.661
 1530HOH     H2 4778   0.952   0.167   0.632
 1531HOH      O 4779   0.414   3.178   2.314
 1531HOH     H1 4780   0.482   3.196   2.249
 1531HOH     H2 4781   0.337   3.225   2.282
 1532HOH      O 4782   2.245   1.666   2.078
 1532HOH     H1 4783   2.234   1.760   2.084
 1532HOH     H2 4784   2.299   1.642   2.153
 1533HOH      O 4785   3.644   0.171   1.686
 1533HOH     H1 4786   3.687   0.223   1.618
 1533HOH     H2 4787   3.595   0.235   1.738
 1534HOH      O 4788   3.120   2.187   3.039
 1534HOH     H1 4789   3.077   2.106   3.014
 1534HOH     H2 4790   3.098   2.199   3.131
 1535HOH      O 4791   0.103   1.300   0.845
 1535HOH     H1 4792   0.195   1.288   0.869
 1535HOH     H2 4793   0.070   1.365   0.907
 1536HOH      O 4794   0.156   3.713   2.233
 1536HOH     H1 4795   0.222   3.781   2.219
 1536HOH     H2 4796   0.182   3.641   2.176
 1537HOH      O 4797   0.406   3.625   1.017
 1537HOH     H1 4798   0.334   3.562   1.011
 1537HOH     H2 4799   0.364   3.710   1.019
 1538HOH      O 4800   3.366   3.382   3.311
 1538HOH     H1 4801   3.345   3.289   3.303
 1538HOH     H2 4802   3.416   3.402   3.232
 1539HOH      O 4803   3.727   0.658   1.854
 1539HOH     H1 4804   3.797   0.634   1.915
 1539HOH     H2 4805   3.695   0.574   1.819
 1540HOH      O 4806   1.547   3.491   0.454
 1540HOH     H1 4807   1.565   3.427   0.523
 1540HOH     H2 4808   1.459   3.469   0.423
 1541HOH      O 4809   2.852   2.663   2.973
 1541HOH     H1 4810   2.933   2.691   3.016
 1541HOH     H2 4811   2.843   2.571   2.997
 1542HOH      O 4812   1.654   1.676   1.736
 1542HOH     H1 4813   1.704   1.616   1.681
 1542HOH     H2 4814   1.626   1.745   1.676
 1543HOH      O 4815   2.807   2.905   0.952
 1543HOH     H1 4816   2.823   2.867   1.038
 1543HOH     H2 4817   2.847   2.992   0.956
 1544HOH      O 4818   0.622   0.978   3.875
 1544HOH     H1 4819   0.669   0.897   3.855
 1544HOH     H2 4820   0.542   0.973   3.823
 1545HOH      O 4821   0.432   0.717   1.604
 1545HOH     H1 4822   0.512   0.669   1.626
 1545HOH     H2 4823   0.422   0.705   1.509
 1546HOH      O 4824   1.167   1.173   2.226
 1546HOH     H1 4825   1.250   1.220   2.236
 1546HOH     H2 4826   1.179   1.122   2.146
 1547HOH      O 4827   3.354   1.108   2.608
 1547HOH     H1 4828   3.272   1.070   2.576
 1547HOH     H2 4829   3.327   1.168   2.678
 1548HOH      O 4830   2.557   3.861   2.977
 1548HOH     H1 4831   2.519   3.796   3.036
 1548HOH     H2 4832   2.494   3.933   2.978
 1549HOH      O 4833   1.441   2.881   0.331
 1549HOH     H1 4834   1.437   2.841   0.418
 1549HOH     H2 4835   1.534   2.878   0.309
 1550HOH      O 4836   2.679   0.545   0.325
 1550HOH     H1 4837   2.603   0.556   0.268
 1550HOH     H2 4838   2.684   0.628   0.373
 1551HOH      O 4839   3.266   2.949   2.983
 1551HOH     H1 4840   3.223   2.997   3.054
 1551HOH     H2 4841   3.358   2.947   3.007
 1552HOH      O 4842   0.063   2.298   0.353
 1552HOH     H1 4843   0.040   2.208   0.373
 1552HOH     H2 4844   0.158   2.297   0.342
 1553HOH      O 4845   3.323   2.119   2.814
 1553HOH     H1 4846   3.305   2.180   2.743
 1553HOH     H2 4847   3.238   2.080   2.835
 1554HOH      O 4848   0.239   0.964   1.120
 1554HOH     H1 4849   0.236   0.947   1.026
 1554HOH     H2 4850   0.155   1.008   1.139
 1555HOH      O 4851   2.329   0.250   1.582
 1555HOH     H1 4852   2.329   0.195   1.660
 1555HOH     H2 4853   2.415   0.235   1.542
 1556HOH      O 4854   3.836   1.529   0.773
 1556HOH     H1 4855   3.869   1.444   0.744
 1556HOH     H2 4856   3.752   1.509   0.814
 1557HOH      O 4857   0.583   1.828   0.990
 1557HOH     H1 4858   0.653   1.862   0.935
 1557HOH     H2 4859   0.584   1.883   1.068
 1558HOH      O 4860   3.434   1.801   3.851
 1558HOH     H1 4861   3.507   1.861   3.837
 1558HOH     H2 4862   3.365   1.832   3.793
 1559HOH      O 4863   1.883   2.217   0.960
 1559HOH     H1 4864   1.884   2.144   0.898
 1559HOH     H2 4865   1.931   2.287   0.916
 1560HOH      O 4866   0.836   2.810   0.867
 1560HOH     H1 4867   0.867   2.900   0.852
 1560HOH     H2 4868   0.756   2.803   0.816
 1561HOH      O 4869   3.953   1.818   1.239
 1561HOH     H1 4870   3.859   1.831   1.254
 1561HOH     H2 4871   3.976   1.741   1.291
 1562HOH      O 4872   1.896   0.022   3.150
 1562HOH     H1 4873   1.866   0.094   3.096
 1562HOH     H2 4874   1.845  -0.054   3.121
 1563HOH      O 4875   0.848   0.185   1.720
 1563HOH     H1 4876   0.842   0.275   1.688
 1563HOH     H2 4877   0.936   0.156   1.695
 1564HOH      O 4878   2.328   3.640   3.442
 1564HOH     H1 4879   2.313   3.555   3.484
 1564HOH     H2 4880   2.311   3.704   3.511
 1565HOH      O 4881   0.956   0.506   3.060
 1565HOH     H1 4882   0.941   0.452   2.983
 1565HOH     H2 4883   0.982   0.443   3.128
 1566HOH      O 4884   2.620   1.876   3.549
 1566HOH     H1 4885   2.692   1.938   3.544
 1566HOH     H2 4886   2.618   1.847   3.640
 1567HOH      O 4887   2.842   3.229   3.081
 1567HOH     H1 4888   2.930   3.258   3.060
 1567HOH     H2 4889   2.825   3.157   3.020
 1568HOH      O 4890   2.732   2.677   2.413
 1568HOH     H1 4891   2.730   2.772   2.420
 1568HOH     H2 4892   2.667   2.646   2.476
 1569HOH      O 4893   3.386   3.467   0.181
 1569HOH     H1 4894   3.468   3.490   0.225
 1569HOH     H2 4895   3.321   3.528   0.216
 1570HOH      O 4896   3.665   1.989   3.466
 1570HOH     H1 4897   3.727   1.990   3.539
 1570HOH     H2 4898   3.672   2.076   3.427
 1571HOH      O 4899   3.968   1.438   1.684
 1571HOH     H1 4900   4.063   1.434   1.695
 1571HOH     H2 4901   3.936   1.363   1.734
 1572HOH      O 4902   3.677   1.597   1.416
 1572HOH     H1 4903   3.582   1.596   1.423
 1572HOH     H2 4904   3.696   1.675   1.364
 1573HOH      O 4905   0.081   3.262   3.790
 1573HOH     H1 4906   0.038   3.177   3.802
 1573HOH     H2 4907   0.173   3.239   3.775
 1574HOH      O 4908   2.196   1.539   3.580
 1574HOH     H1 4909   2.267   1.581   3.629
 1574HOH     H2 4910   2.241   1.489   3.512
 1575HOH      O 4911   2.170   3.936   3.164
 1575HOH     H1 4912   2.234   3.965   3.100
 1575HOH     H2 4913   2.120   4.015   3.185
 1576HOH      O 4914   1.913   1.438   0.555
 1576HOH     H1 4915   1.973   1.413   0.625
 1576HOH     H2 4916   1.830   1.398   0.579
 1577HOH      O 4917   3.423   1.970   1.754
 1577HOH     H1 4918   3.418   1.902   1.822
 1577HOH     H2 4919   3.356   1.945   1.691
 1578HOH      O 4920   2.571   3.056   0.741
 1578HOH     H1 4921   2.583   3.026   0.652
 1578HOH     H2 4922   2.624   3.135   0.747
 1579HOH      O 4923   1.689   3.608   1.622
 1579HOH     H1 4924   1.774   3.568   1.642
 1579HOH     H2 4925   1.625   3.540   1.645
 1580HOH      O 4926   1.919   0.382   2.191
 1580HOH     H1 4927   1.948   0.295   2.218
 1580HOH     H2 4928   1.968   0.442   2.247
 1581HOH      O 4929   2.267   1.611   3.274
 1581HOH     H1 4930   2.297   1.665   3.347
 1581HOH     H2 4931   2.218   1.672   3.218
 1582HOH      O 4932   4.022   0.386   1.866
 1582HOH     H1 4933   4.007   0.401   1.773
 1582HOH     H2 4934   3.984   0.300   1.884
 1583HOH      O 4935   3.080   0.388   1.542
 1583HOH     H1 4936   3.071   0.302   1.582
 1583HOH     H2 4937   3.063   0.450   1.613
 1584HOH      O 4938   3.641   3.720   0.598
 1584HOH     H1 4939   3.621   3.805   0.557
 1584HOH     H2 4940   3.729   3.731   0.634
 1585HOH      O 4941   1.028   2.551   0.116
 1585HOH     H1 4942   1.055   2.603   0.192
 1585HOH     H2 4943   1.070   2.596   0.042
 1586HOH      O 4944   1.058   0.376   0.160
 1586HOH     H1 4945   1.004   0.389   0.082
 1586HOH     H2 4946   1.120   0.308   0.135
 1587HOH      O 4947   3.964   3.179   1.453
 1587HOH     H1 4948   4.046   3.159   1.409
 1587HOH     H2 4949   3.968   3.130   1.535
 1588HOH      O 4950   2.748   0.280   1.711
 1588HOH     H1 4951   2.833   0.236   1.713
 1588HOH     H2 4952   2.768   0.371   1.691
 1589HOH      O 4953   1.292   1.946   3.160
 1589HOH     H1 4954   1.295   1.969   3.067
 1589HOH     H2 4955   1.382   1.922   3.181
 1590HOH      O 4956   3.964   2.908   0.981
 1590HOH     H1 4957   3.892   2.969   0.995
 1590HOH     H2 4958   3.997   2.890   1.070
 1591HOH      O 4959   0.354   3.660   1.733
 1591HOH     H1 4960   0.434   3.711   1.720
 1591HOH     H2 4961   0.303   3.674   1.654
 1592HOH      O 4962   1.462   1.363   1.760
 1592HOH     H1 4963   1.551   1.338   1.784
 1592HOH     H2 4964   1.425   1.401   1.840
 1593HOH      O 4965   1.295   1.238   1.108
 1593HOH     H1 4966   1.364   1.291   1.069
 1593HOH     H2 4967   1.340   1.181   1.170
 1594HOH      O 4968   2.977   3.615   0.271
 1594HOH     H1 4969   2.886   3.591   0.289
 1594HOH     H2 4970   2.980   3.710   0.282
 1595HOH      O 4971   0.097   1.726   3.149
 1595HOH     H1 4972   0.174   1.677   3.174
 1595HOH     H2 4973   0.109   1.744   3.056
 1596HOH      O 4974   2.746   3.745   1.010
 1596HOH     H1 4975   2.712   3.663   1.046
 1596HOH     H2 4976   2.751   3.804   1.085
 1597HOH      O 4977   0.456   3.833   2.120
 1597HOH     H1 4978   0.500   3.891   2.182
 1597HOH     H2 4979   0.410   3.893   2.061
 1598HOH      O 4980   1.895   3.429   1.684
 1598HOH     H1 4981   1.865   3.345   1.650
 1598HOH     H2 4982   1.961   3.458   1.621
 1599HOH      O 4983   3.613   2.018   0.399
 1599HOH     H1 4984   3.552   2.089   0.416
 1599HOH     H2 4985   3.582   1.946   0.454
 1600HOH      O 4986   3.477   3.743   1.723
 1600HOH     H1 4987   3.572   3.743   1.735
 1600HOH     H2 4988   3.459   3.663   1.674
 1601HOH      O 4989   3.841   2.792   3.680
 1601HOH     H1 4990   3.897   2.857   3.723
 1601HOH     H2 4991   3.899   2.747   3.618
 1602HOH      O 4992   1.224   0.348   2.881
 1602HOH     H1 4993   1.245   0.271   2.934
 1602HOH     H2 4994   1.128   0.347   2.875
 1603HOH      O 4995   2.496   3.252   1.352
 1603HOH     H1 4996   2.492   3.293   1.439
 1603HOH     H2 4997   2.590   3.251   1.330
 1604HOH      O 4998   2.885   0.214   0.333
 1604HOH     H1 4999   2.952   0.228   0.265
 1604HOH     H2 5000   2.935   0.184   0.409
 1605HOH      O 5001   1.187   3.398   0.915
 1605HOH     H1 5002   1.174   3.430   1.005
 1605HOH     H2 5003   1.098   3.383   0.882
 1606HOH      O 5004   3.842   1.436   3.794
 1606HOH     H1 5005   3.906   1.457   3.862
 1606HOH     H2 5006   3.822   1.519   3.752
 1607HOH      O 5007   3.096   1.331   1.863
 1607HOH     H1 5008   3.021   1.295   1.816
 1607HOH     H2 5009   3.106   1.274   1.939
 1608HOH      O 5010   0.345   1.407   0.910
 1608HOH     H1 5011   0.436   1.383   0.928
 1608HOH     H2 5012   0.324   1.475   0.974
 1609HOH      O 5013   3.071   1.241   3.399
 1609HOH     H1 5014   3.065   1.178   3.470
 1609HOH     H2 5015   2.985   1.282   3.395
 1610HOH      O 5016   1.674   0.138   1.241
 1610HOH     H1 5017   1.720   0.054   1.246
 1610HOH     H2 5018   1.648   0.157   1.331
 1611HOH      O 5019   2.036   3.578   0.235
 1611HOH     H1 5020   2.022   3.635   0.310
 1611HOH     H2 5021   2.056   3.637   0.162
 1612HOH      O 5022   2.472   0.548   1.326
 1612HOH     H1 5023   2.443   0.581   1.240
 1612HOH     H2 5024   2.464   0.624   1.384
 1613HOH      O 5025   3.807   1.448   1.212
 1613HOH     H1 5026   3.735   1.456   1.149
 1613HOH     H2 5027   3.768   1.476   1.295
 1614HOH      O 5028   1.808   3.432   1.395
 1614HOH     H1 5029   1.857   3.430   1.313
 1614HOH     H2 5030   1.717   3.420   1.368
 1615HOH      O 5031   1.040   0.786   1.470
 1615HOH     H1 5032   1.008   0.876   1.469
 1615HOH     H2 5033   1.097   0.781   1.547
 1616HOH      O 5034   3.511   2.825   3.539
 1616HOH     H1 5035   3.575   2.776   3.592
 1616HOH     H2 5036   3.455   2.757   3.502
 1617HOH      O 5037   1.301   2.170   0.419
 1617HOH     H1 5038   1.268   2.257   0.394
 1617HOH     H2 5039   1.243   2.109   0.373
 1618HOH      O 5040   1.462   2.693   3.858
 1618HOH     H1 5041   1.540   2.713   3.807
 1618HOH     H2 5042   1.455   2.766   3.920
 1619HOH      O 5043   2.888   3.874   2.440
 1619HOH     H1 5044   2.879   3.961   2.400
 1619HOH     H2 5045   2.827   3.819   2.390
 1620HOH      O 5046   0.031   0.907   2.423
 1620HOH     H1 5047   0.057   0.999   2.427
 1620HOH     H2 5048  -0.027   0.901   2.347
 1621HOH      O 5049   3.310   0.527   1.682
 1621HOH     H1 5050   3.236   0.576   1.717
 1621HOH     H2 5051   3.279   0.436   1.678
 1622HOH      O 5052   3.683   1.732   2.907
 1622HOH     H1 5053   3.717   1.702   2.991
 1622HOH     H2 5054   3.751   1.792   2.874
 1623HOH      O 5055   3.863   2.848   1.292
 1623HOH     H1 5056   3.813   2.902   1.230
 1623HOH     H2 5057   3.952   2.883   1.287
 1624HOH      O 5058   3.004   3.145   1.589
 1624HOH     H1 5059   3.039   3.077   1.646
 1624HOH     H2 5060   2.913   3.155   1.616
 1625HOH      O 5061   0.368   1.752   1.349
 1625HOH     H1 5062   0.293   1.809   1.337
 1625HOH     H2 5063   0.444   1.807   1.331
 1626HOH      O 5064   2.321   1.024   3.543
 1626HOH     H1 5065   2.354   1.111   3.564
 1626HOH     H2 5066   2.282   0.993   3.625
 1627HOH      O 5067   3.470   1.187   3.051
 1627HOH     H1 5068   3.519   1.107   3.031
 1627HOH     H2 5069   3.512   1.223   3.129
 1628HOH      O 5070   1.929   2.590   2.641
 1628HOH     H1 5071   2.025   2.588   2.645
 1628HOH     H2 5072   1.905   2.512   2.592
 1629HOH      O 5073   0.317   2.152   3.632
 1629HOH     H1 5074   0.279   2.228   3.676
 1629HOH     H2 5075   0.405   2.145   3.668
 1630HOH      O 5076   2.367   0.759   2.577
 1630HOH     H1 5077   2.301   0.721   2.520
 1630HOH     H2 5078   2.410   0.684   2.618
 1631HOH      O 5079   1.011   3.511   1.110
 1631HOH     H1 5080   0.966   3.538   1.189
 1631HOH     H2 5081   1.010   3.589   1.054
 1632HOH      O 5082   2.258   1.088   0.089
 1632HOH     H1 5083   2.296   1.116   0.172
 1632HOH     H2 5084   2.173   1.133   0.085
 1633HOH      O 5085   0.584   3.465   1.605
 1633HOH     H1 5086   0.624   3.444   1.521
 1633HOH     H2 5087   0.571   3.560   1.602
 1634HOH      O 5088   2.422   1.394   3.238
 1634HOH     H1 5089   2.497   1.419   3.184
 1634HOH     H2 5090   2.374   1.476   3.250
 1635HOH      O 5091   2.762   0.962   0.124
 1635HOH     H1 5092   2.724   1.036   0.077
 1635HOH     H2 5093   2.749   0.888   0.065
 1636HOH      O 5094   3.772   0.140   3.951
 1636HOH     H1 5095   3.846   0.158   3.893
 1636HOH     H2 5096   3.773   0.212   4.014
 1637HOH      O 5097   1.591   0.877   2.797
 1637HOH     H1 5098   1.511   0.912   2.837
 1637HOH     H2 5099   1.623   0.948   2.741
 1638HOH      O 5100   3.517   2.636   0.182
 1638HOH     H1 5101   3.438   2.657   0.231
 1638HOH     H2 5102   3.589   2.669   0.236
 1639HOH      O 5103   3.001   3.216   1.969
 1639HOH     H1 5104   3.023   3.308   1.955
 1639HOH     H2 5105   2.906   3.212   1.963
 1640HOH      O 5106   0.666   3.732   0.486
 1640HOH     H1 5107   0.755   3.697   0.478
 1640HOH     H2 5108   0.634   3.739   0.397
 1641HOH      O 5109   2.348   0.821   3.402
 1641HOH     H1 5110   2.332   0.902   3.452
 1641HOH     H2 5111   2.385   0.760   3.466
 1642HOH      O 5112   2.869   1.308   3.690
 1642HOH     H1 5113   2.864   1.224   3.734
 1642HOH     H2 5114   2.820   1.368   3.746
 1643HOH      O 5115   1.367   3.301   2.754
 1643HOH     H1 5116   1.309   3.276   2.682
 1643HOH     H2 5117   1.335   3.387   2.782
 1644HOH      O 5118   1.339   2.851   1.759
 1644HOH     H1 5119   1.329   2.904   1.838
 1644HOH     H2 5120   1.296   2.769   1.781
 1645HOH      O 5121   1.804   1.386   3.093
 1645HOH     H1 5122   1.900   1.395   3.098
 1645HOH     H2 5123   1.790   1.321   3.024
 1646HOH      O 5124   1.012   3.700   3.638
 1646HOH     H1 5125   1.082   3.747   3.684
 1646HOH     H2 5126   1.046   3.690   3.549
 1647HOH      O 5127   0.564   1.249   0.958
 1647HOH     H1 5128   0.521   1.219   0.878
 1647HOH     H2 5129   0.536   1.188   1.026
 1648HOH      O 5130   3.693   2.720   0.380
 1648HOH     H1 5131   3.706   2.638   0.429
 1648HOH     H2 5132   3.699   2.788   0.446
 1649HOH      O 5133   2.651   2.299   0.405
 1649HOH     H1 5134   2.582   2.283   0.470
 1649HOH     H2 5135   2.629   2.241   0.332
 1650HOH      O 5136   0.717   0.594   2.538
 1650HOH     H1 5137   0.659   0.638   2.475
 1650HOH     H2 5138   0.675   0.510   2.554
 1651HOH      O 5139   0.802   3.268   1.137
 1651HOH     H1 5140   0.811   3.304   1.225
 1651HOH     H2 5141   0.829   3.340   1.079
 1652HOH      O 5142   3.495   0.791   1.837
 1652HOH     H1 5143   3.508   0.788   1.743
 1652HOH     H2 5144   3.566   0.738   1.873
 1653HOH      O 5145   0.207   2.823   0.980
 1653HOH     H1 5146   0.130   2.878   0.969
 1653HOH     H2 5147   0.256   2.865   1.051
 1654HOH      O 5148   1.901   1.086   1.639
 1654HOH     H1 5149   1.984   1.107   1.682
 1654HOH     H2 5150   1.894   1.150   1.568
 1655HOH      O 5151   4.014   2.500   2.584
 1655HOH     H1 5152   4.073   2.459   2.520
 1655HOH     H2 5153   3.932   2.452   2.574
 1656HOH      O 5154   3.072   1.172   0.447
 1656HOH     H1 5155   3.020   1.249   0.469
 1656HOH     H2 5156   3.115   1.194   0.365
 1657HOH      O 5157   2.596   3.968   2.418
 1657HOH     H1 5158   2.534   3.999   2.352
 1657HOH     H2 5159   2.608   4.043   2.476
 1658HOH      O 5160   3.143   1.199   2.982
 1658HOH     H1 5161   3.157   1.265   3.050
 1658HOH     H2 5162   3.195   1.229   2.908
 1659HOH      O 5163   0.370   2.240   2.605
 1659HOH     H1 5164   0.415   2.196   2.532
 1659HOH     H2 5165   0.278   2.219   2.591
 1660HOH      O 5166   1.085   2.212   1.509
 1660HOH     H1 5167   1.090   2.216   1.605
 1660HOH     H2 5168   1.170   2.245   1.479
 1661HOH      O 5169   2.589   1.964   3.273
 1661HOH     H1 5170   2.623   1.927   3.354
 1661HOH     H2 5171   2.550   2.048   3.299
 1662HOH      O 5172   3.135   0.957   2.532
 1662HOH     H1 5173   3.111   0.903   2.607
 1662HOH     H2 5174   3.063   1.019   2.523
 1663HOH      O 5175   0.566   1.839   3.970
 1663HOH     H1 5176   0.613   1.793   3.900
 1663HOH     H2 5177   0.626   1.910   3.995
 1664HOH      O 5178   1.764   3.846   1.575
 1664HOH     H1 5179   1.859   3.835   1.588
 1664HOH     H2 5180   1.729   3.758   1.582
 1665HOH      O 5181   0.010   1.468   1.056
 1665HOH     H1 5182  -0.068   1.457   1.111
 1665HOH     H2 5183   0.083   1.453   1.115
 1666HOH      O 5184   3.055   0.719   1.221
 1666HOH     H1 5185   2.977   0.703   1.274
 1666HOH     H2 5186   3.115   0.649   1.243
 1667HOH      O 5187   2.198   1.366   3.865
 1667HOH     H1 5188   2.150   1.315   3.929
 1667HOH     H2 5189   2.144   1.443   3.848
 1668HOH      O 5190   2.178   0.105   2.636
 1668HOH     H1 5191   2.112   0.083   2.702
 1668HOH     H2 5192   2.188   0.200   2.644
 1669HOH      O 5193   3.620   3.780   1.424
 1669HOH     H1 5194   3.566   3.854   1.395
 1669HOH     H2 5195   3.679   3.818   1.490
 1670HOH      O 5196   0.963   1.958   1.538
 1670HOH     H1 5197   0.876   1.925   1.560
 1670HOH     H2 5198   0.947   2.046   1.503
 1671HOH      O 5199   0.651   2.521   1.200
 1671HOH     H1 5200   0.613   2.450   1.251
 1671HOH     H2 5201   0.575   2.566   1.161
 1672HOH      O 5202   1.863   1.677   1.217
 1672HOH     H1 5203   1.813   1.711   1.291
 1672HOH     H2 5204   1.837   1.734   1.144
 1673HOH      O 5205   2.576   1.929   2.760
 1673HOH     H1 5206   2.493   1.975   2.751
 1673HOH     H2 5207   2.630   1.963   2.688
 1674HOH      O 5208   2.380   1.767   3.482
 1674HOH     H1 5209   2.474   1.784   3.487
 1674HOH     H2 5210   2.341   1.836   3.536
 1675HOH      O 5211   0.037   1.059   3.361
 1675HOH     H1 5212   0.005   1.149   3.359
 1675HOH     H2 5213   0.091   1.054   3.440
 1676HOH      O 5214   3.034   0.392   0.727
 1676HOH     H1 5215   2.987   0.407   0.645
 1676HOH     H2 5216   3.055   0.298   0.725
 1677HOH      O 5217   4.022   2.241   0.696
 1677HOH     H1 5218   3.933   2.212   0.677
 1677HOH     H2 5219   4.013   2.300   0.771
 1678HOH      O 5220   3.815   0.278   3.140
 1678HOH     H1 5221   3.879   0.323   3.196
 1678HOH     H2 5222   3.826   0.185   3.161
 1679HOH      O 5223   3.698   0.133   3.437
 1679HOH     H1 5224   3.742   0.106   3.356
 1679HOH     H2 5225   3.656   0.053   3.469
 1680HOH      O 5226   3.253   0.436   2.025
 1680HOH     H1 5227   3.194   0.387   2.083
 1680HOH     H2 5228   3.341   0.407   2.050
 1681HOH      O 5229   1.418   0.984   2.998
 1681HOH     H1 5230   1.364   1.010   2.924
 1681HOH     H2 5231   1.362   0.998   3.075
 1682HOH      O 5232   1.419   1.758   0.848
 1682HOH     H1 5233   1.496   1.767   0.904
 1682HOH     H2 5234   1.346   1.780   0.905
 1683HOH      O 5235   2.708   3.472   2.063
 1683HOH     H1 5236   2.764   3.465   2.141
 1683HOH     H2 5237   2.730   3.394   2.011
 1684HOH      O 5238   2.799   1.399   1.880
 1684HOH     H1 5239   2.814   1.313   1.843
 1684HOH     H2 5240   2.718   1.430   1.839
 1685HOH      O 5241   0.060   2.031   1.051
 1685HOH     H1 5242   0.002   2.106   1.038
 1685HOH     H2 5243   0.014   1.975   1.113
 1686HOH      O 5244   1.026   0.863   1.755
 1686HOH     H1 5245   1.011   0.958   1.765
 1686HOH     H2 5246   0.974   0.824   1.826
 1687HOH      O 5247   2.534   3.806   2.644
 1687HOH     H1 5248   2.582   3.840   2.719
 1687HOH     H2 5249   2.520   3.882   2.588
 1688HOH      O 5250   0.456   3.349   2.976
 1688HOH     H1 5251   0.550   3.351   2.994
 1688HOH     H2 5252   0.450   3.319   2.885
 1689HOH      O 5253   3.391   2.019   3.052
 1689HOH     H1 5254   3.376   1.925   3.045
 1689HOH     H2 5255   3.365   2.055   2.967
 1690HOH      O 5256   2.818   3.037   1.376
 1690HOH     H1 5257   2.768   2.997   1.448
 1690HOH     H2 5258   2.811   2.974   1.305
 1691HOH      O 5259   2.181   1.206   2.822
 1691HOH     H1 5260   2.218   1.164   2.745
 1691HOH     H2 5261   2.242   1.278   2.841
 1692HOH      O 5262   3.131   2.373   3.521
 1692HOH     H1 5263   3.128   2.287   3.563
 1692HOH     H2 5264   3.217   2.408   3.545
 1693HOH      O 5265   1.815   1.648   1.510
 1693HOH     H1 5266   1.811   1.739   1.481
 1693HOH     H2 5267   1.905   1.621   1.491
 1694HOH      O 5268   2.699   3.235   1.952
 1694HOH     H1 5269   2.647   3.227   2.032
 1694HOH     H2 5270   2.671   3.162   1.897
 1695HOH      O 5271   1.391   0.701   3.319
 1695HOH     H1 5272   1.359   0.791   3.321
 1695HOH     H2 5273   1.382   0.671   3.409
 1696HOH      O 5274   3.268   2.374   2.171
 1696HOH     H1 5275   3.348   2.400   2.126
 1696HOH     H2 5276   3.201   2.375   2.102
 1697HOH      O 5277   1.681   1.114   3.084
 1697HOH     H1 5278   1.616   1.044   3.091
 1697HOH     H2 5279   1.721   1.101   2.999
 1698HOH      O 5280   3.125   0.028   2.687
 1698HOH     H1 5281   3.191   0.096   2.671
 1698HOH     H2 5282   3.058   0.043   2.621
 1699HOH      O 5283   3.829   0.347   3.510
 1699HOH     H1 5284   3.794   0.259   3.497
 1699HOH     H2 5285   3.876   0.367   3.429
 1700HOH      O 5286   3.529   0.914   3.861
 1700HOH     H1 5287   3.496   0.848   3.922
 1700HOH     H2 5288   3.623   0.897   3.857
 1701HOH      O 5289   3.291   1.224   1.193
 1701HOH     H1 5290   3.271   1.241   1.286
 1701HOH     H2 5291   3.239   1.147   1.171
 1702HOH      O 5292   1.817   3.462  -0.019
 1702HOH     H1 5293   1.801   3.447   0.074
 1702HOH     H2 5294   1.837   3.556  -0.024
 1703HOH      O 5295   2.401   0.493   1.715
 1703HOH     H1 5296   2.324   0.452   1.753
 1703HOH     H2 5297   2.453   0.421   1.681
 1704HOH      O 5298   1.660   3.802   3.654
 1704HOH     H1 5299   1.643   3.896   3.655
 1704HOH     H2 5300   1.754   3.794   3.670
 1705HOH      O 5301   0.794   1.160   0.060
 1705HOH     H1 5302   0.828   1.232   0.112
 1705HOH     H2 5303   0.862   1.142  -0.004
 1706HOH      O 5304   0.786   1.942   0.856
 1706HOH     H1 5305   0.729   1.970   0.784
 1706HOH     H2 5306   0.831   2.022   0.883
 1707HOH      O 5307   1.569   3.690   2.925
 1707HOH     H1 5308   1.596   3.605   2.957
 1707HOH     H2 5309   1.553   3.676   2.831
 1708HOH      O 5310   1.332   3.236   3.820
 1708HOH     H1 5311   1.254   3.280   3.855
 1708HOH     H2 5312   1.406   3.288   3.852
 1709HOH      O 5313   3.417   0.647   0.300
 1709HOH     H1 5314   3.410   0.634   0.395
 1709HOH     H2 5315   3.422   0.742   0.290
 1710HOH      O 5316   0.607   2.681   0.197
 1710HOH     H1 5317   0.662   2.760   0.198
 1710HOH     H2 5318   0.555   2.688   0.278
 1711HOH      O 5319   2.883   2.195   1.202
 1711HOH     H1 5320   2.792   2.164   1.195
 1711HOH     H2 5321   2.881   2.257   1.275
 1712HOH      O 5322   2.060   2.292   3.936
 1712HOH     H1 5323   2.047   2.273   4.029
 1712HOH     H2 5324   2.138   2.347   3.934
 1713HOH      O 5325   1.331   3.640   2.104
 1713HOH     H1 5326   1.410   3.600   2.140
 1713HOH     H2 5327   1.347   3.643   2.010
 1714HOH      O 5328   0.802   2.536   0.904
 1714HOH     H1 5329   0.709   2.512   0.910
 1714HOH     H2 5330   0.801   2.632   0.907
 1715HOH      O 5331   1.998   3.181   2.699
 1715HOH     H1 5332   2.070   3.245   2.697
 1715HOH     H2 5333   2.042   3.097   2.711
 1716HOH      O 5334   2.883   1.156   1.741
 1716HOH     H1 5335   2.834   1.075   1.754
 1716HOH     H2 5336   2.901   1.159   1.647
 1717HOH      O 5337   3.490   1.825   0.086
 1717HOH     H1 5338   3.459   1.819  -0.004
 1717HOH     H2 5339   3.482   1.918   0.108
 1718HOH      O 5340   1.285   0.500   2.189
 1718HOH     H1 5341   1.378   0.477   2.181
 1718HOH     H2 5342   1.267   0.492   2.283
 1719HOH      O 5343   1.847   3.294   0.497
 1719HOH     H1 5344   1.773   3.297   0.559
 1719HOH     H2 5345   1.918   3.340   0.542
 1720HOH      O 5346   0.446   2.520   1.883
 1720HOH     H1 5347   0.446   2.426   1.900
 1720HOH     H2 5348   0.534   2.549   1.909
 1721HOH      O 5349   3.112   1.905   1.756
 1721HOH     H1 5350   3.021   1.878   1.744
 1721HOH     H2 5351   3.129   1.893   1.849
 1722HOH      O 5352   0.948   1.962   3.011
 1722HOH     H1 5353   0.943   2.058   3.013
 1722HOH     H2 5354   1.041   1.944   3.025
 1723HOH      O 5355   2.766   0.127   2.575
 1723HOH     H1 5356   2.729   0.195   2.631
 1723HOH     H2 5357   2.852   0.162   2.549
 1724HOH      O 5358   0.243   2.386   1.202
 1724HOH     H1 5359   0.309   2.324   1.171
 1724HOH     H2 5360   0.221   2.439   1.126
 1725HOH      O 5361   1.226   3.338   2.087
 1725HOH     H1 5362   1.308   3.364   2.128
 1725HOH     H2 5363   1.214   3.246   2.112
 1726HOH      O 5364   3.502   0.401   0.197
 1726HOH     H1 5365   3.464   0.488   0.206
 1726HOH     H2 5366   3.557   0.407   0.119
 1727HOH      O 5367   3.558   0.457   1.729
 1727HOH     H1 5368   3.474   0.503   1.718
 1727HOH     H2 5369   3.590   0.446   1.639
 1728HOH      O 5370   0.540   0.050   2.296
 1728HOH     H1 5371   0.476  -0.009   2.337
 1728HOH     H2 5372   0.488   0.104   2.236
 1729HOH      O 5373   0.952   2.237   0.416
 1729HOH     H1 5374   0.942   2.327   0.383
 1729HOH     H2 5375   0.903   2.236   0.499
 1730HOH      O 5376   1.886   1.767   2.989
 1730HOH     H1 5377   1.934   1.836   2.944
 1730HOH     H2 5378   1.795   1.782   2.966
 1731HOH      O 5379   2.445   2.015   4.006
 1731HOH     H1 5380   2.433   1.927   3.972
 1731HOH     H2 5381   2.448   2.071   3.929
 1732HOH      O 5382   2.942   2.584   3.482
 1732HOH     H1 5383   3.010   2.520   3.500
 1732HOH     H2 5384   2.863   2.546   3.520
 1733HOH      O 5385   0.232   3.091   1.769
 1733HOH     H1 5386   0.317   3.133   1.762
 1733HOH     H2 5387   0.243   3.007   1.724
 1734HOH      O 5388   0.516   0.258   3.914
 1734HOH     H1 5389   0.438   0.208   3.939
 1734HOH     H2 5390   0.582   0.231   3.978
 1735HOH      O 5391   2.262   0.255   3.745
 1735HOH     H1 5392   2.354   0.256   3.721
 1735HOH     H2 5393   2.232   0.344   3.726
 1736HOH      O 5394   2.538   2.601   0.657
 1736HOH     H1 5395   2.623   2.602   0.614
 1736HOH     H2 5396   2.542   2.673   0.721
 1737HOH      O 5397   2.572   0.736   2.913
 1737HOH     H1 5398   2.518   0.815   2.918
 1737HOH     H2 5399   2.614   0.741   2.827
 1738HOH      O 5400   0.445   0.503   3.551
 1738HOH     H1 5401   0.387   0.497   3.475
 1738HOH     H2 5402   0.456   0.412   3.579
 1739HOH      O 5403   2.572   1.213   3.414
 1739HOH     H1 5404   2.523   1.253   3.343
 1739HOH     H2 5405   2.525   1.238   3.493
 1740HOH      O 5406   2.366   1.210   0.345
 1740HOH     H1 5407   2.349   1.302   0.369
 1740HOH     H2 5408   2.461   1.202   0.346
 1741HOH      O 5409   2.520   2.598   3.973
 1741HOH     H1 5410   2.541   2.544   3.897
 1741HOH     H2 5411   2.578   2.673   3.966
 1742HOH      O 5412   0.457   2.491   3.305
 1742HOH     H1 5413   0.461   2.397   3.288
 1742HOH     H2 5414   0.480   2.499   3.398
 1743HOH      O 5415   0.768   1.532   2.574
 1743HOH     H1 5416   0.681   1.558   2.543
 1743HOH     H2 5417   0.827   1.596   2.535
 1744HOH      O 5418   2.958   3.325   3.419
 1744HOH     H1 5419   2.989   3.251   3.471
 1744HOH     H2 5420   2.865   3.306   3.404
 1745HOH      O 5421   3.399   1.747   2.955
 1745HOH     H1 5422   3.401   1.673   3.015
 1745HOH     H2 5423   3.491   1.771   2.943
 1746HOH      O 5424   3.583   1.535   1.828
 1746HOH     H1 5425   3.599   1.460   1.885
 1746HOH     H2 5426   3.520   1.501   1.763
 1747HOH      O 5427   0.184   2.543   0.979
 1747HOH     H1 5428   0.171   2.638   0.981
 1747HOH     H2 5429   0.187   2.522   0.886
 1748HOH      O 5430   1.202   3.769   0.432
 1748HOH     H1 5431   1.196   3.761   0.527
 1748HOH     H2 5432   1.295   3.785   0.415
 1749HOH      O 5433   3.311   0.752   2.702
 1749HOH     H1 5434   3.261   0.707   2.770
 1749HOH     H2 5435   3.351   0.826   2.748
 1750HOH      O 5436   0.097   1.264   3.054
 1750HOH     H1 5437   0.180   1.272   3.006
 1750HOH     H2 5438   0.087   1.171   3.071
 1751HOH      O 5439   2.987   2.697   3.243
 1751HOH     H1 5440   2.969   2.624   3.301
 1751HOH     H2 5441   3.051   2.751   3.290
 1752HOH      O 5442   3.736   2.812   3.066
 1752HOH     H1 5443   3.788   2.886   3.033
 1752HOH     H2 5444   3.798   2.761   3.118
 1753HOH      O 5445   1.609   2.235   2.567
 1753HOH     H1 5446   1.653   2.186   2.497
 1753HOH     H2 5447   1.592   2.321   2.528
 1754HOH      O 5448   3.599   3.060   1.301
 1754HOH     H1 5449   3.618   2.982   1.352
 1754HOH     H2 5450   3.513   3.090   1.333
 1755HOH      O 5451   2.953   1.150   2.506
 1755HOH     H1 5452   2.860   1.165   2.519
 1755HOH     H2 5453   2.988   1.235   2.481
 1756HOH      O 5454   1.670   0.937   0.581
 1756HOH     H1 5455   1.734   0.867   0.592
 1756HOH     H2 5456   1.670   0.955   0.487
 1757HOH      O 5457   0.673   3.184   0.082
 1757HOH     H1 5458   0.654   3.189  -0.012
 1757HOH     H2 5459   0.751   3.239   0.093
 1758HOH      O 5460   3.290   0.235   3.405
 1758HOH     H1 5461   3.299   0.146   3.372
 1758HOH     H2 5462   3.375   0.275   3.389
 1759HOH      O 5463   3.453   0.439   3.762
 1759HOH     H1 5464   3.521   0.405   3.704
 1759HOH     H2 5465   3.477   0.531   3.774
 1760HOH      O 5466   2.390   0.044   3.018
 1760HOH     H1 5467   2.319   0.107   3.027
 1760HOH     H2 5468   2.467   0.097   2.995
 1761HOH      O 5469   1.030   2.646   3.491
 1761HOH     H1 5470   1.077   2.688   3.419
 1761HOH     H2 5471   1.064   2.557   3.494
 1762HOH      O 5472   2.985   0.562   1.753
 1762HOH     H1 5473   2.911   0.598   1.704
 1762HOH     H2 5474   2.998   0.623   1.826
 1763HOH      O 5475   2.388   0.295   2.935
 1763HOH     H1 5476   2.391   0.299   2.839
 1763HOH     H2 5477   2.390   0.386   2.963
 1764HOH      O 5478   3.258   2.706   0.378
 1764HOH     H1 5479   3.256   2.688   0.284
 1764HOH     H2 5480   3.281   2.623   0.419
 1765HOH      O 5481   1.982  -0.018   3.477
 1765HOH     H1 5482   2.057   0.027   3.438
 1765HOH     H2 5483   1.989   0.001   3.571
 1766HOH      O 5484   0.537   3.244   2.731
 1766HOH     H1 5485   0.631   3.228   2.738
 1766HOH     H2 5486   0.527   3.293   2.650
 1767HOH      O 5487   1.572   2.694   3.022
 1767HOH     H1 5488   1.637   2.693   2.951
 1767HOH     H2 5489   1.624   2.696   3.102
 1768HOH      O 5490   0.046   0.573   3.920
 1768HOH     H1 5491   0.068   0.563   3.828
 1768HOH     H2 5492   0.035   0.668   3.932
 1769HOH      O 5493   3.866   1.643   3.136
 1769HOH     H1 5494   3.940   1.703   3.125
 1769HOH     H2 5495   3.898   1.559   3.104
 1770HOH      O 5496   0.085   2.137   2.589
 1770HOH     H1 5497   0.017   2.073   2.565
 1770HOH     H2 5498   0.047   2.186   2.661
 1771HOH      O 5499   3.899   0.244   2.342
 1771HOH     H1 5500   3.895   0.207   2.430
 1771HOH     H2 5501   3.992   0.261   2.328
 1772HOH      O 5502   3.715   3.998   1.063
 1772HOH     H1 5503   3.702   4.052   0.986
 1772HOH     H2 5504   3.644   3.934   1.060
 1773HOH      O 5505   3.595   3.439   2.741
 1773HOH     H1 5506   3.590   3.344   2.733
 1773HOH     H2 5507   3.505   3.466   2.760
 1774HOH      O 5508   2.214   1.781   1.480
 1774HOH     H1 5509   2.145   1.731   1.524
 1774HOH     H2 5510   2.240   1.725   1.407
 1775HOH      O 5511   0.680   2.996   0.265
 1775HOH     H1 5512   0.663   3.049   0.188
 1775HOH     H2 5513   0.759   3.035   0.303
 1776HOH      O 5514   3.727   3.162   0.299
 1776HOH     H1 5515   3.697   3.134   0.385
 1776HOH     H2 5516   3.713   3.257   0.299
 1777HOH      O 5517   2.647   0.865   3.786
 1777HOH     H1 5518   2.567   0.857   3.838
 1777HOH     H2 5519   2.622   0.836   3.699
 1778HOH      O 5520   2.421   2.741   3.707
 1778HOH     H1 5521   2.371   2.811   3.749
 1778HOH     H2 5522   2.472   2.785   3.639
 1779HOH      O 5523   2.570   3.452   3.541
 1779HOH     H1 5524   2.580   3.433   3.634
 1779HOH     H2 5525   2.564   3.367   3.499
 1780HOH      O 5526   2.400   1.365   2.859
 1780HOH     H1 5527   2.424   1.442   2.911
 1780HOH     H2 5528   2.463   1.298   2.885
 1781HOH      O 5529   3.061   1.142   3.990
 1781HOH     H1 5530   2.980   1.126   3.941
 1781HOH     H2 5531   3.099   1.220   3.949
 1782HOH      O 5532   0.143   0.378   2.568
 1782HOH     H1 5533   0.133   0.283   2.558
 1782HOH     H2 5534   0.189   0.405   2.488
 1783HOH      O 5535   0.978   0.919   2.992
 1783HOH     H1 5536   0.907   0.981   2.974
 1783HOH     H2 5537   1.056   0.962   2.956
 1784HOH      O 5538   2.508   3.097   1.109
 1784HOH     H1 5539   2.488   3.109   1.201
 1784HOH     H2 5540   2.481   3.179   1.067
 1785HOH      O 5541   0.924   3.753   2.461
 1785HOH     H1 5542   0.994   3.795   2.511
 1785HOH     H2 5543   0.857   3.821   2.452
 1786HOH      O 5544   1.311   3.309   3.529
 1786HOH     H1 5545   1.324   3.255   3.607
 1786HOH     H2 5546   1.295   3.397   3.563
 1787HOH      O 5547   1.587   1.625   2.011
 1787HOH     H1 5548   1.649   1.555   2.032
 1787HOH     H2 5549   1.610   1.652   1.922
 1788HOH      O 5550   1.173   1.347   2.878
 1788HOH     H1 5551   1.210   1.373   2.793
 1788HOH     H2 5552   1.223   1.396   2.942
 1789HOH      O 5553   3.068   2.371   0.520
 1789HOH     H1 5554   3.153   2.412   0.536
 1789HOH     H2 5555   3.072   2.343   0.429
 1790HOH      O 5556   0.174   2.064   0.543
 1790HOH     H1 5557   0.254   2.061   0.596
 1790HOH     H2 5558   0.117   2.127   0.588
 1791HOH      O 5559   3.097   3.036   0.765
 1791HOH     H1 5560   3.170   3.064   0.819
 1791HOH     H2 5561   3.130   2.961   0.716
 1792HOH      O 5562   1.971   3.461   2.912
 1792HOH     H1 5563   2.046   3.404   2.897
 1792HOH     H2 5564   1.927   3.466   2.827
 1793HOH      O 5565   3.554   1.613   0.273
 1793HOH     H1 5566   3.569   1.690   0.328
 1793HOH     H2 5567   3.516   1.647   0.192
 1794HOH      O 5568   1.854   0.139   0.301
 1794HOH     H1 5569   1.888   0.228   0.310
 1794HOH     H2 5570   1.793   0.129   0.375
 1795HOH      O 5571   0.495   3.839   3.411
 1795HOH     H1 5572   0.505   3.926   3.371
 1795HOH     H2 5573   0.447   3.788   3.346
 1796HOH      O 5574   3.055   3.532   3.594
 1796HOH     H1 5575   3.013   3.486   3.521
 1796HOH     H2 5576   3.144   3.549   3.565
 1797HOH      O 5577   0.407   2.553   1.548
 1797HOH     H1 5578   0.460   2.551   1.628
 1797HOH     H2 5579   0.319   2.528   1.578
 1798HOH      O 5580   2.051   2.663   0.760
 1798HOH     H1 5581   2.089   2.637   0.844
 1798HOH     H2 5582   2.119   2.644   0.696
 1799HOH      O 5583   2.851   2.201   0.891
 1799HOH     H1 5584   2.795   2.276   0.871
 1799HOH     H2 5585   2.834   2.183   0.984
 1800HOH      O 5586   0.425   1.003   0.782
 1800HOH     H1 5587   0.336   0.969   0.769
 1800HOH     H2 5588   0.437   1.067   0.712
 1801HOH      O 5589   1.577   0.965   0.092
 1801HOH     H1 5590   1.580   0.900   0.021
 1801HOH     H2 5591   1.526   1.037   0.055
 1802HOH      O 5592   2.104   0.251   0.927
 1802HOH     H1 5593   2.090   0.159   0.952
 1802HOH     H2 5594   2.089   0.300   1.008
 1803HOH      O 5595   2.751   2.071   2.570
 1803HOH     H1 5596   2.824   2.037   2.518
 1803HOH     H2 5597   2.716   2.143   2.517
 1804HOH      O 5598   3.578  -0.004   0.820
 1804HOH     H1 5599   3.585   0.059   0.747
 1804HOH     H2 5600   3.484  -0.019   0.829
 1805HOH      O 5601   3.472   3.868   0.064
 1805HOH     H1 5602   3.517   3.896  -0.015
 1805HOH     H2 5603   3.407   3.804   0.033
 1806HOH      O 5604   2.935   2.589   0.100
 1806HOH     H1 5605   2.886   2.644   0.039
 1806HOH     H2 5606   2.880   2.587   0.178
 1807HOH      O 5607   3.986   0.423   3.316
 1807HOH     H1 5608   4.072   0.390   3.290
 1807HOH     H2 5609   3.988   0.516   3.293
 1808HOH      O 5610   2.583   3.045   0.460
 1808HOH     H1 5611   2.656   3.024   0.401
 1808HOH     H2 5612   2.508   3.058   0.401
 1809HOH      O 5613   0.277   2.736   1.901
 1809HOH     H1 5614   0.336   2.662   1.897
 1809HOH     H2 5615   0.298   2.779   1.984
 1810HOH      O 5616   2.507   2.750   3.213
 1810HOH     H1 5617   2.497   2.794   3.297
 1810HOH     H2 5618   2.542   2.664   3.234
 1811HOH      O 5619   0.582   2.349   3.932
 1811HOH     H1 5620   0.646   2.332   3.863
 1811HOH     H2 5621   0.543   2.263   3.949
 1812HOH      O 5622   3.562   0.876   3.329
 1812HOH     H1 5623   3.594   0.965   3.313
 1812HOH     H2 5624   3.542   0.842   3.242
 1813HOH      O 5625   3.819   1.663   1.859
 1813HOH     H1 5626   3.727   1.634   1.851
 1813HOH     H2 5627   3.867   1.606   1.799
 1814HOH      O 5628   2.795   3.912   2.710
 1814HOH     H1 5629   2.840   3.870   2.636
 1814HOH     H2 5630   2.767   3.997   2.677
 1815HOH      O 5631   4.029   3.094   1.984
 1815HOH     H1 5632   4.084   3.067   1.911
 1815HOH     H2 5633   3.950   3.130   1.943
 1816HOH      O 5634   3.922   0.240   1.456
 1816HOH     H1 5635   3.982   0.230   1.382
 1816HOH     H2 5636   3.835   0.239   1.417
 1817HOH      O 5637   3.937   2.538   0.985
 1817HOH     H1 5638   4.032   2.530   0.975
 1817HOH     H2 5639   3.902   2.518   0.899
 1818HOH      O 5640   0.810   3.651   3.800
 1818HOH     H1 5641   0.830   3.561   3.828
 1818HOH     H2 5642   0.888   3.679   3.752
 1819HOH      O 5643   0.299   2.150   1.027
 1819HOH     H1 5644   0.219   2.113   0.988
 1819HOH     H2 5645   0.287   2.138   1.121
 1820HOH      O 5646   0.283   3.885   1.247
 1820HOH     H1 5647   0.376   3.899   1.233
 1820HOH     H2 5648   0.247   3.875   1.159
 1821HOH      O 5649   3.518   3.662   3.363
 1821HOH     H1 5650   3.430   3.638   3.393
 1821HOH     H2 5651   3.572   3.586   3.384
 1822HOH      O 5652   3.201   2.835   0.968
 1822HOH     H1 5653   3.143   2.834   0.891
 1822HOH     H2 5654   3.276   2.887   0.940
 1823HOH      O 5655   1.052   1.151   1.802
 1823HOH     H1 5656   1.135   1.122   1.763
 1823HOH     H2 5657   1.079   1.209   1.873
 1824HOH      O 5658   0.822   1.625   2.932
 1824HOH     H1 5659   0.888   1.622   2.863
 1824HOH     H2 5660   0.780   1.711   2.923
 1825HOH      O 5661   3.478   3.872   1.109
 1825HOH     H1 5662   3.489   3.961   1.144
 1825HOH     H2 5663   3.390   3.847   1.136
 1826HOH      O 5664   2.340   3.639   2.657
 1826HOH     H1 5665   2.415   3.699   2.662
 1826HOH     H2 5666   2.316   3.624   2.749
 1827HOH      O 5667   2.522   1.425   0.030
 1827HOH     H1 5668   2.426   1.422   0.039
 1827HOH     H2 5669   2.550   1.490   0.095
 1828HOH      O 5670   3.321   0.752   1.450
 1828HOH     H1 5671   3.246   0.752   1.510
 1828HOH     H2 5672   3.304   0.678   1.391
 1829HOH      O 5673   0.739   0.136   0.510
 1829HOH     H1 5674   0.678   0.189   0.458
 1829HOH     H2 5675   0.685   0.100   0.580
 1830HOH      O 5676   2.573   2.515   3.300
 1830HOH     H1 5677   2.524   2.513   3.382
 1830HOH     H2 5678   2.661   2.487   3.323
 1831HOH      O 5679   2.457   1.790   3.088
 1831HOH     H1 5680   2.491   1.821   3.171
 1831HOH     H2 5681   2.433   1.870   3.040
 1832HOH      O 5682   0.733   4.006   1.129
 1832HOH     H1 5683   0.791   4.023   1.203
 1832HOH     H2 5684   0.780   3.942   1.076
 1833HOH      O 5685   0.919   0.502   0.797
 1833HOH     H1 5686   0.975   0.441   0.844
 1833HOH     H2 5687   0.978   0.572   0.768
 1834HOH      O 5688   1.865   1.736   0.164
 1834HOH     H1 5689   1.924   1.809   0.185
 1834HOH     H2 5690   1.864   1.683   0.243
 1835HOH      O 5691   0.410   3.928   0.907
 1835HOH     H1 5692   0.320   3.940   0.877
 1835HOH     H2 5693   0.430   3.836   0.889
 1836HOH      O 5694   3.275   0.226   2.358
 1836HOH     H1 5695   3.367   0.237   2.332
 1836HOH     H2 5696   3.227   0.284   2.299
 1837HOH      O 5697   0.406   0.674   3.788
 1837HOH     H1 5698   0.331   0.732   3.775
 1837HOH     H2 5699   0.410   0.621   3.708
 1838HOH      O 5700   2.306   3.267   0.996
 1838HOH     H1 5701   2.247   3.320   1.050
 1838HOH     H2 5702   2.383   3.323   0.983
 1839HOH      O 5703   1.543   1.459   3.147
 1839HOH     H1 5704   1.535   1.371   3.109
 1839HOH     H2 5705   1.634   1.464   3.176
 1840HOH      O 5706   2.213   3.176   3.123
 1840HOH     H1 5707   2.164   3.246   3.167
 1840HOH     H2 5708   2.265   3.136   3.192
 1841HOH      O 5709   2.055   1.496   1.208
 1841HOH     H1 5710   2.058   1.459   1.120
 1841HOH     H2 5711   1.987   1.564   1.202
 1842HOH      O 5712   0.517   0.839   3.512
 1842HOH     H1 5713   0.443   0.812   3.458
 1842HOH     H2 5714   0.564   0.758   3.530
 1843HOH      O 5715   1.136   1.882   2.649
 1843HOH     H1 5716   1.175   1.798   2.670
 1843HOH     H2 5717   1.189   1.916   2.577
 1844HOH      O 5718   1.060   1.564   0.839
 1844HOH     H1 5719   1.023   1.555   0.927
 1844HOH     H2 5720   1.107   1.482   0.824
 1845HOH      O 5721   1.087   3.937   0.243
 1845HOH     H1 5722   1.130   3.881   0.308
 1845HOH     H2 5723   1.096   4.025   0.279
 1846HOH      O 5724   2.743   1.399   0.258
 1846HOH     H1 5725   2.689   1.460   0.309
 1846HOH     H2 5726   2.709   1.312   0.280
 1847HOH      O 5727   0.780   1.551   0.799
 1847HOH     H1 5728   0.874   1.542   0.816
 1847HOH     H2 5729   0.775   1.566   0.704
 1848HOH      O 5730   1.488   1.701   3.252
 1848HOH     H1 5731   1.501   1.609   3.229
 1848HOH     H2 5732   1.575   1.740   3.243
 1849HOH      O 5733   0.237   3.806   3.513
 1849HOH     H1 5734   0.227   3.714   3.489
 1849HOH     H2 5735   0.327   3.813   3.543
 1850HOH      O 5736   1.768   3.633   2.171
 1850HOH     H1 5737   1.676   3.606   2.168
 1850HOH     H2 5738   1.809   3.585   2.099
 1851HOH      O 5739   2.492   3.333   0.585
 1851HOH     H1 5740   2.520   3.248   0.551
 1851HOH     H2 5741   2.436   3.312   0.660
 1852HOH      O 5742   2.845   1.162   2.832
 1852HOH     H1 5743   2.907   1.135   2.899
 1852HOH     H2 5744   2.879   1.245   2.800
 1853HOH      O 5745   3.339   1.133   3.902
 1853HOH     H1 5746   3.405   1.066   3.884
 1853HOH     H2 5747   3.257   1.084   3.908
 1854HOH      O 5748   3.169   0.330   1.053
 1854HOH     H1 5749   3.127   0.302   0.972
 1854HOH     H2 5750   3.112   0.298   1.122
 1855HOH      O 5751   1.036   2.860   2.589
 1855HOH     H1 5752   0.941   2.864   2.606
 1855HOH     H2 5753   1.042   2.831   2.498
 1856HOH      O 5754   1.682   2.219   0.040
 1856HOH     H1 5755   1.606   2.233  -0.017
 1856HOH     H2 5756   1.756   2.253  -0.011
 1857HOH      O 5757   2.777   2.551   0.310
 1857HOH     H1 5758   2.761   2.475   0.367
 1857HOH     H2 5759   2.761   2.627   0.366
 1858HOH      O 5760   0.104   2.914   3.627
 1858HOH     H1 5761   0.169   2.983   3.619
 1858HOH     H2 5762   0.044   2.927   3.553
 1859HOH      O 5763   3.013   0.240   1.249
 1859HOH     H1 5764   3.051   0.196   1.326
 1859HOH     H2 5765   2.939   0.289   1.283
 1860HOH      O 5766   2.768   3.500   3.154
 1860HOH     H1 5767   2.841   3.439   3.163
 1860HOH     H2 5768   2.691   3.444   3.143
 1861HOH      O 5769   3.134   2.759   0.660
 1861HOH     H1 5770   3.139   2.725   0.570
 1861HOH     H2 5771   3.203   2.711   0.707
 1862HOH      O 5772   0.730   0.782   0.987
 1862HOH     H1 5773   0.718   0.787   1.082
 1862HOH     H2 5774   0.808   0.835   0.969
 1863HOH      O 5775   1.424   0.986   1.950
 1863HOH     H1 5776   1.363   0.954   2.016
 1863HOH     H2 5777   1.408   0.930   1.874
 1864HOH      O 5778   2.535   3.229   2.926
 1864HOH     H1 5779   2.538   3.166   2.997
 1864HOH     H2 5780   2.505   3.179   2.850
 1865HOH      O 5781   1.990   0.105   1.912
 1865HOH     H1 5782   1.958   0.102   1.822
 1865HOH     H2 5783   1.919   0.068   1.964
 1866HOH      O 5784   3.314   0.167   0.623
 1866HOH     H1 5785   3.291   0.224   0.550
 1866HOH     H2 5786   3.242   0.178   0.685
 1867HOH      O 5787   0.739   2.664   1.909
 1867HOH     H1 5788   0.776   2.577   1.894
 1867HOH     H2 5789   0.815   2.719   1.927
 1868HOH      O 5790   3.039   3.092   3.543
 1868HOH     H1 5791   3.086   3.070   3.623
 1868HOH     H2 5792   2.999   3.009   3.515
 1869HOH      O 5793   3.078   0.680   0.467
 1869HOH     H1 5794   3.073   0.715   0.378
 1869HOH     H2 5795   3.038   0.593   0.461
 1870HOH      O 5796   3.941   2.167   1.590
 1870HOH     H1 5797   3.909   2.080   1.614
 1870HOH     H2 5798   3.861   2.220   1.584
 1871HOH      O 5799   3.199   1.752   2.684
 1871HOH     H1 5800   3.233   1.716   2.602
 1871HOH     H2 5801   3.164   1.838   2.660
 1872HOH      O 5802   2.987   2.002   1.364
 1872HOH     H1 5803   2.934   2.034   1.291
 1872HOH     H2 5804   2.939   1.926   1.397
 1873HOH      O 5805   0.901   1.889   3.364
 1873HOH     H1 5806   0.936   1.812   3.319
 1873HOH     H2 5807   0.838   1.854   3.427
 1874HOH      O 5808   0.382   2.076   3.931
 1874HOH     H1 5809   0.343   2.061   3.845
 1874HOH     H2 5810   0.407   1.989   3.961
 1875HOH      O 5811   3.764   3.322   1.359
 1875HOH     H1 5812   3.728   3.269   1.288
 1875HOH     H2 5813   3.840   3.273   1.390
 1876HOH      O 5814   2.179   0.604   1.071
 1876HOH     H1 5815   2.107   0.540   1.070
 1876HOH     H2 5816   2.177   0.640   1.159
 1877HOH      O 5817   2.077   1.419   3.124
 1877HOH     H1 5818   2.121   1.450   3.044
 1877HOH     H2 5819   2.111   1.475   3.193
 1878HOH      O 5820   0.150   0.238   0.086
 1878HOH     H1 5821   0.174   0.331   0.083
 1878HOH     H2 5822   0.113   0.226   0.174
 1879HOH      O 5823   1.849   1.524   1.934
 1879HOH     H1 5824   1.827   1.443   1.887
 1879HOH     H2 5825   1.826   1.594   1.874
 1880HOH      O 5826   0.502   2.987   2.811
 1880HOH     H1 5827   0.574   2.956   2.866
 1880HOH     H2 5828   0.526   3.077   2.789
 1881HOH      O 5829   3.328   2.037   0.830
 1881HOH     H1 5830   3.235   2.054   0.840
 1881HOH     H2 5831   3.332   1.955   0.781
 1882HOH      O 5832   2.959   1.304   1.343
 1882HOH     H1 5833   2.945   1.211   1.327
 1882HOH     H2 5834   2.953   1.345   1.257
 1883HOH      O 5835   2.127   3.582   1.003
 1883HOH     H1 5836   2.035   3.608   0.999
 1883HOH     H2 5837   2.132   3.522   1.078
 1884HOH      O 5838   0.461   3.810   0.663
 1884HOH     H1 5839   0.534   3.789   0.605
 1884HOH     H2 5840   0.394   3.745   0.642
 1885HOH      O 5841   2.184   0.506   3.701
 1885HOH     H1 5842   2.252   0.551   3.752
 1885HOH     H2 5843   2.114   0.570   3.692
 1886HOH      O 5844   3.427   1.463   0.637
 1886HOH     H1 5845   3.471   1.472   0.722
 1886HOH     H2 5846   3.449   1.375   0.608
 1887HOH      O 5847   2.092   3.599   1.354
 1887HOH     H1 5848   2.047   3.521   1.322
 1887HOH     H2 5849   2.185   3.582   1.338
 1888HOH      O 5850   2.292   3.146   0.753
 1888HOH     H1 5851   2.287   3.187   0.840
 1888HOH     H2 5852   2.360   3.079   0.763
 1889HOH      O 5853   3.538   2.629   2.960
 1889HOH     H1 5854   3.593   2.553   2.942
 1889HOH     H2 5855   3.600   2.699   2.982
 1890HOH      O 5856   1.483   3.639   1.167
 1890HOH     H1 5857   1.464   3.731   1.182
 1890HOH     H2 5858   1.551   3.639   1.099
 1891HOH      O 5859   1.590   1.065   2.414
 1891HOH     H1 5860   1.519   1.129   2.400
 1891HOH     H2 5861   1.545   0.982   2.426
 1892HOH      O 5862   0.797   3.488   1.833
 1892HOH     H1 5863   0.801   3.528   1.920
 1892HOH     H2 5864   0.703   3.480   1.815
 1893HOH      O 5865   1.594   0.766   2.342
 1893HOH     H1 5866   1.515   0.802   2.381
 1893HOH     H2 5867   1.582   0.671   2.347
 1894HOH      O 5868   3.004   3.142   3.952
 1894HOH     H1 5869   3.041   3.068   3.904
 1894HOH     H2 5870   3.040   3.219   3.908
 1895HOH      O 5871   1.792   0.756   2.979
 1895HOH     H1 5872   1.722   0.795   2.927
 1895HOH     H2 5873   1.752   0.679   3.019
 1896HOH      O 5874   0.320   1.583   3.238
 1896HOH     H1 5875   0.348   1.491   3.242
 1896HOH     H2 5876   0.394   1.629   3.198
 1897HOH      O 5877   0.983   0.936   0.967
 1897HOH     H1 5878   0.972   1.031   0.962
 1897HOH     H2 5879   1.067   0.924   1.012
 1898HOH      O 5880   0.069   1.854   0.399
 1898HOH     H1 5881   0.109   1.907   0.468
 1898HOH     H2 5882   0.047   1.917   0.331
 1899HOH      O 5883   0.628   1.985   3.153
 1899HOH     H1 5884   0.716   1.971   3.188
 1899HOH     H2 5885   0.626   2.078   3.129
 1900HOH      O 5886   3.791   3.636   1.237
 1900HOH     H1 5887   3.758   3.639   1.147
 1900HOH     H2 5888   3.734   3.697   1.285
 1901HOH      O 5889   2.422   0.744   1.499
 1901HOH     H1 5890   2.337   0.706   1.524
 1901HOH     H2 5891   2.455   0.782   1.580
 1902HOH      O 5892   2.632   2.162   1.473
 1902HOH     H1 5893   2.692   2.126   1.538
 1902HOH     H2 5894   2.547   2.123   1.495
 1903HOH      O 5895   0.895   1.227   3.105
 1903HOH     H1 5896   0.954   1.205   3.033
 1903HOH     H2 5897   0.922   1.315   3.133
 1904HOH      O 5898   0.381   3.425   3.222
 1904HOH     H1 5899   0.429   3.405   3.142
 1904HOH     H2 5900   0.384   3.343   3.272
 1905HOH      O 5901   0.201   2.831   1.654
 1905HOH     H1 5902   0.230   2.796   1.738
 1905HOH     H2 5903   0.282   2.847   1.605
 1906HOH      O 5904   3.735   3.224   2.380
 1906HOH     H1 5905   3.667   3.165   2.347
 1906HOH     H2 5906   3.742   3.293   2.314
 1907HOH      O 5907   0.611   1.462   1.460
 1907HOH     H1 5908   0.658   1.451   1.543
 1907HOH     H2 5909   0.529   1.413   1.472
 1908HOH      O 5910   1.488   0.212   3.897
 1908HOH     H1 5911   1.436   0.150   3.950
 1908HOH     H2 5912   1.564   0.232   3.953
 1909HOH      O 5913   2.785   3.823   1.703
 1909HOH     H1 5914   2.831   3.882   1.642
 1909HOH     H2 5915   2.855   3.772   1.744
 1910HOH      O 5916   3.506   2.378   0.293
 1910HOH     H1 5917   3.489   2.431   0.216
 1910HOH     H2 5918   3.601   2.371   0.297
 1911HOH      O 5919   3.511   3.350   0.586
 1911HOH     H1 5920   3.520   3.412   0.658
 1911HOH     H2 5921   3.597   3.349   0.544
 1912HOH      O 5922   0.855   3.131   1.946
 1912HOH     H1 5923   0.830   3.183   2.023
 1912HOH     H2 5924   0.945   3.104   1.963
 1913HOH      O 5925   3.398   1.375   3.776
 1913HOH     H1 5926   3.395   1.290   3.820
 1913HOH     H2 5927   3.307   1.394   3.755
 1914HOH      O 5928   0.893   3.953   1.335
 1914HOH     H1 5929   0.982   3.969   1.367
 1914HOH     H2 5930   0.895   3.864   1.300
 1915HOH      O 5931   3.559   0.622   2.317
 1915HOH     H1 5932   3.605   0.612   2.400
 1915HOH     H2 5933   3.468   0.637   2.342
 1916HOH      O 5934   1.810   1.162   0.703
 1916HOH     H1 5935   1.799   1.113   0.784
 1916HOH     H2 5936   1.769   1.106   0.636
 1917HOH      O 5937   0.770   0.658   0.613
 1917HOH     H1 5938   0.807   0.746   0.624
 1917HOH     H2 5939   0.772   0.620   0.700
 1918HOH      O 5940   1.697   0.302   2.568
 1918HOH     H1 5941   1.779   0.251   2.568
 1918HOH     H2 5942   1.709   0.366   2.638
 1919HOH      O 5943   2.393   1.444   0.487
 1919HOH     H1 5944   2.488   1.449   0.474
 1919HOH     H2 5945   2.380   1.474   0.577
 1920HOH      O 5946   3.636   3.669   1.015
 1920HOH     H1 5947   3.686   3.733   0.966
 1920HOH     H2 5948   3.564   3.719   1.054
 1921HOH      O 5949   1.528   3.645   2.645
 1921HOH     H1 5950   1.454   3.598   2.608
 1921HOH     H2 5951   1.572   3.684   2.570
 1922HOH      O 5952   1.675   3.735   0.139
 1922HOH     H1 5953   1.743   3.781   0.188
 1922HOH     H2 5954   1.687   3.763   0.048
 1923HOH      O 5955   0.444   1.733   0.724
 1923HOH     H1 5956   0.368   1.775   0.763
 1923HOH     H2 5957   0.509   1.729   0.795
 1924HOH      O 5958   0.116   0.425   2.825
 1924HOH     H1 5959   0.055   0.499   2.829
 1924HOH     H2 5960   0.124   0.405   2.732
 1925HOH      O 5961   0.098   0.167   2.911
 1925HOH     H1 5962   0.077   0.245   2.859
 1925HOH     H2 5963   0.126   0.202   2.996
 1926HOH      O 5964   3.741   0.461   2.941
 1926HOH     H1 5965   3.766   0.386   2.995
 1926HOH     H2 5966   3.797   0.454   2.863
 1927HOH      O 5967   0.171   0.909   0.743
 1927HOH     H1 5968   0.121   0.830   0.765
 1927HOH     H2 5969   0.122   0.949   0.671
 1928HOH      O 5970   0.862   3.300   2.158
 1928HOH     H1 5971   0.897   3.387   2.138
 1928HOH     H2 5972   0.910   3.272   2.236
 1929HOH      O 5973   3.986   2.309   1.299
 1929HOH     H1 5974   4.002   2.260   1.379
 1929HOH     H2 5975   4.071   2.344   1.274
 1930HOH      O 5976   2.392   0.302   0.982
 1930HOH     H1 5977   2.310   0.270   0.945
 1930HOH     H2 5978   2.372   0.318   1.074
 1931HOH      O 5979   0.252   1.994   1.640
 1931HOH     H1 5980   0.325   1.943   1.674
 1931HOH     H2 5981   0.176   1.937   1.651
 1932HOH      O 5982   3.468   1.790   3.459
 1932HOH     H1 5983   3.491   1.756   3.546
 1932HOH     H2 5984   3.524   1.867   3.449
 1933HOH      O 5985   2.569   3.906   3.996
 1933HOH     H1 5986   2.580   3.873   4.086
 1933HOH     H2 5987   2.654   3.942   3.973
 1934HOH      O 5988   0.139   0.884   3.963
 1934HOH     H1 5989   0.183   0.880   3.878
 1934HOH     H2 5990   0.063   0.941   3.949
 1935HOH      O 5991   1.292   1.917   0.163
 1935HOH     H1 5992   1.318   1.934   0.254
 1935HOH     H2 5993   1.249   1.998   0.135
 1936HOH      O 5994   0.720   2.472   3.096
 1936HOH     H1 5995   0.663   2.397   3.116
 1936HOH     H2 5996   0.695   2.539   3.159
 1937HOH      O 5997   0.445   2.500   2.620
 1937HOH     H1 5998   0.386   2.529   2.689
 1937HOH     H2 5999   0.438   2.404   2.621
 1938HOH      O 6000   3.586   3.981   1.911
 1938HOH     H1 6001   3.623   3.981   1.823
 1938HOH     H2 6002   3.662   3.967   1.968
 1939HOH      O 6003   2.866   2.863   0.669
 1939HOH     H1 6004   2.824   2.875   0.753
 1939HOH     H2 6005   2.955   2.835   0.690
 1940HOH      O 6006   0.292   1.602   1.970
 1940HOH     H1 6007   0.199   1.578   1.964
 1940HOH     H2 6008   0.326   1.586   1.882
 1941HOH      O 6009   2.579   3.639   2.395
 1941HOH     H1 6010   2.565   3.718   2.448
 1941HOH     H2 6011   2.497   3.629   2.345
 1942HOH      O 6012   3.865   1.117   0.291
 1942HOH     H1 6013   3.822   1.058   0.228
 1942HOH     H2 6014   3.816   1.199   0.283
 1943HOH      O 6015   2.070   0.310   1.501
 1943HOH     H1 6016   2.037   0.337   1.587
 1943HOH     H2 6017   2.165   0.316   1.510
 1944HOH      O 6018   2.284   2.921   3.843
 1944HOH     H1 6019   2.256   3.000   3.798
 1944HOH     H2 6020   2.229   2.916   3.921
 1945HOH      O 6021   2.971   1.266   1.031
 1945HOH     H1 6022   2.887   1.291   1.069
 1945HOH     H2 6023   2.963   1.290   0.938
 1946HOH      O 6024   2.160   1.519   0.299
 1946HOH     H1 6025   2.226   1.502   0.366
 1946HOH     H2 6026   2.083   1.471   0.330
 1947HOH      O 6027   2.845   3.030   2.215
 1947HOH     H1 6028   2.920   3.062   2.165
 1947HOH     H2 6029   2.785   3.104   2.219
 1948HOH      O 6030   1.648   0.112   1.525
 1948HOH     H1 6031   1.592   0.152   1.591
 1948HOH     H2 6032   1.656   0.020   1.553
 1949HOH      O 6033   1.719   4.023   0.463
 1949HOH     H1 6034   1.782   3.989   0.527
 1949HOH     H2 6035   1.654   4.069   0.516
 1950HOH      O 6036   3.157   1.941   0.265
 1950HOH     H1 6037   3.187   1.993   0.339
 1950HOH     H2 6038   3.153   2.003   0.192
 1951HOH      O 6039   3.042   1.769   0.706
 1951HOH     H1 6040   3.068   1.677   0.714
 1951HOH     H2 6041   2.970   1.768   0.643
 1952HOH      O 6042   3.646   0.250   2.791
 1952HOH     H1 6043   3.562   0.208   2.808
 1952HOH     H2 6044   3.652   0.319   2.857
 1953HOH      O 6045   1.854   3.968   1.146
 1953HOH     H1 6046   1.780   3.939   1.092
 1953HOH     H2 6047   1.866   3.898   1.210
 1954HOH      O 6048   0.701   0.924   2.408
 1954HOH     H1 6049   0.689   0.859   2.338
 1954HOH     H2 6050   0.779   0.972   2.383
 1955HOH      O 6051   0.882   1.930   3.867
 1955HOH     H1 6052   0.815   1.959   3.929
 1955HOH     H2 6053   0.961   1.976   3.893
 1956HOH      O 6054   3.105   3.524   1.236
 1956HOH     H1 6055   3.076   3.436   1.260
 1956HOH     H2 6056   3.057   3.545   1.156
 1957HOH      O 6057   1.858   2.773   0.599
 1957HOH     H1 6058   1.913   2.740   0.670
 1957HOH     H2 6059   1.779   2.804   0.643
 1958HOH      O 6060   3.950   2.281   3.397
 1958HOH     H1 6061   3.991   2.197   3.375
 1958HOH     H2 6062   3.856   2.265   3.387
 1959HOH      O 6063   3.024   3.500   1.951
 1959HOH     H1 6064   3.042   3.558   1.877
 1959HOH     H2 6065   2.993   3.558   2.020
 1960HOH      O 6066   1.556   3.377   3.836
 1960HOH     H1 6067   1.592   3.449   3.783
 1960HOH     H2 6068   1.585   3.397   3.925
 1961HOH      O 6069   3.842   1.188   1.291
 1961HOH     H1 6070   3.762   1.165   1.338
 1961HOH     H2 6071   3.828   1.278   1.262
 1962HOH      O 6072   2.398   1.064   1.693
 1962HOH     H1 6073   2.395   0.973   1.720
 1962HOH     H2 6074   2.319   1.104   1.730
 1963HOH      O 6075   3.563   0.551   3.144
 1963HOH     H1 6076   3.629   0.519   3.083
 1963HOH     H2 6077   3.558   0.646   3.128
 1964HOH      O 6078   0.586   1.696   3.731
 1964HOH     H1 6079   0.668   1.648   3.739
 1964HOH     H2 6080   0.600   1.756   3.659
 1965HOH      O 6081   3.728   0.981   1.919
 1965HOH     H1 6082   3.716   0.919   1.846
 1965HOH     H2 6083   3.705   0.931   1.997
 1966HOH      O 6084   3.999   3.603   1.418
 1966HOH     H1 6085   3.940   3.612   1.343
 1966HOH     H2 6086   4.028   3.692   1.437
 1967HOH      O 6087   0.553   1.663   0.446
 1967HOH     H1 6088   0.493   1.607   0.396
 1967HOH     H2 6089   0.511   1.673   0.531
 1968HOH      O 6090   0.545   3.847   1.659
 1968HOH     H1 6091   0.612   3.913   1.638
 1968HOH     H2 6092   0.468   3.874   1.609
 1969HOH      O 6093   3.497   3.442   1.753
 1969HOH     H1 6094   3.573   3.413   1.702
 1969HOH     H2 6095   3.535   3.489   1.828
 1970HOH      O 6096   0.375   1.126   2.666
 1970HOH     H1 6097   0.345   1.037   2.652
 1970HOH     H2 6098   0.418   1.150   2.584
 1971HOH      O 6099   0.852   0.700   1.948
 1971HOH     H1 6100   0.795   0.746   2.010
 1971HOH     H2 6101   0.924   0.667   2.002
 1972HOH      O 6102   2.485   1.713   3.965
 1972HOH     H1 6103   2.397   1.681   3.988
 1972HOH     H2 6104   2.530   1.721   4.049
 1973HOH      O 6105   1.190   2.253   2.454
 1973HOH     H1 6106   1.238   2.316   2.508
 1973HOH     H2 6107   1.178   2.297   2.370
 1974HOH      O 6108   0.945   2.471   3.884
 1974HOH     H1 6109   0.986   2.503   3.964
 1974HOH     H2 6110   0.976   2.530   3.815
 1975HOH      O 6111   2.816   1.807   1.429
 1975HOH     H1 6112   2.849   1.718   1.414
 1975HOH     H2 6113   2.721   1.796   1.432
 1976HOH      O 6114   2.871   3.425   2.263
 1976HOH     H1 6115   2.949   3.371   2.246
 1976HOH     H2 6116   2.884   3.459   2.352
 1977HOH      O 6117   3.067   3.768   1.374
 1977HOH     H1 6118   3.079   3.678   1.342
 1977HOH     H2 6119   3.094   3.823   1.301
 1978HOH      O 6120   3.796   3.540   2.266
 1978HOH     H1 6121   3.881   3.496   2.263
 1978HOH     H2 6122   3.781   3.556   2.360
 1979HOH      O 6123   1.117   3.029   1.967
 1979HOH     H1 6124   1.155   3.099   1.913
 1979HOH     H2 6125   1.165   3.033   2.049
 1980HOH      O 6126   2.834   2.521   3.772
 1980HOH     H1 6127   2.928   2.538   3.770
 1980HOH     H2 6128   2.798   2.593   3.823
 1981HOH      O 6129   0.556   2.446   0.868
 1981HOH     H1 6130   0.518   2.360   0.885
 1981HOH     H2 6131   0.540   2.462   0.775
 1982HOH      O 6132   3.180   0.911   3.836
 1982HOH     H1 6133   3.228   0.847   3.784
 1982HOH     H2 6134   3.146   0.973   3.771
 1983HOH      O 6135   3.120   1.396   2.481
 1983HOH     H1 6136   3.074   1.400   2.565
 1983HOH     H2 6137   3.054   1.421   2.416
 1984HOH      O 6138   3.387   0.290   2.904
 1984HOH     H1 6139   3.369   0.267   2.813
 1984HOH     H2 6140   3.315   0.348   2.929
 1985HOH      O 6141   1.580   2.167   0.474
 1985HOH     H1 6142   1.604   2.130   0.559
 1985HOH     H2 6143   1.485   2.157   0.469
 1986HOH      O 6144   2.747   3.780   2.205
 1986HOH     H1 6145   2.680   3.718   2.234
 1986HOH     H2 6146   2.715   3.865   2.235
 1987HOH      O 6147   2.586   0.172   3.731
 1987HOH     H1 6148   2.618   0.220   3.808
 1987HOH     H2 6149   2.664   0.132   3.694
 1988HOH      O 6150   2.916   0.948   0.463
 1988HOH     H1 6151   2.960   1.029   0.438
 1988HOH     H2 6152   2.988   0.886   0.478
 1989HOH      O 6153   0.213   1.731   0.211
 1989HOH     H1 6154   0.139   1.754   0.267
 1989HOH     H2 6155   0.224   1.637   0.222
 1990HOH      O 6156   2.950   1.442   2.720
 1990HOH     H1 6157   3.012   1.465   2.790
 1990HOH     H2 6158   2.892   1.517   2.713
 1991HOH      O 6159   3.567   3.527   1.415
 1991HOH     H1 6160   3.654   3.489   1.402
 1991HOH     H2 6161   3.583   3.621   1.420
 1992HOH      O 6162   3.313   2.969   2.511
 1992HOH     H1 6163   3.242   2.908   2.529
 1992HOH     H2 6164   3.382   2.944   2.573
 1993HOH      O 6165   3.070   1.787   3.309
 1993HOH     H1 6166   3.122   1.719   3.354
 1993HOH     H2 6167   2.990   1.742   3.283
 1994HOH      O 6168   2.694   3.935   3.439
 1994HOH     H1 6169   2.686   3.852   3.484
 1994HOH     H2 6170   2.605   3.956   3.410
 1995HOH      O 6171   0.429   1.215   2.099
 1995HOH     H1 6172   0.395   1.218   2.188
 1995HOH     H2 6173   0.350   1.211   2.044
 1996HOH      O 6174   0.828   3.281   2.443
 1996HOH     H1 6175   0.856   3.192   2.422
 1996HOH     H2 6176   0.893   3.313   2.505
 1997HOH      O 6177   0.641   0.254   3.664
 1997HOH     H1 6178   0.600   0.271   3.749
 1997HOH     H2 6179   0.725   0.301   3.668
 1998HOH      O 6180   3.341   3.550   2.007
 1998HOH     H1 6181   3.324   3.639   1.977
 1998HOH     H2 6182   3.422   3.558   2.058
 1999HOH      O 6183   2.646   3.933   1.950
 1999HOH     H1 6184   2.664   3.882   1.870
 1999HOH     H2 6185   2.596   3.874   2.006
 2000HOH      O 6186   1.206   1.115   3.754
 2000HOH     H1 6187   1.208   1.211   3.751
 2000HOH     H2 6188   1.129   1.092   3.701
 2001HOH      O 6189   0.020   2.255   2.321
 2001HOH     H1 6190   0.036   2.207   2.403
 2001HOH     H2 6191  -0.014   2.189   2.261
 2002HOH      O 6192   3.067   2.448   1.176
 2002HOH     H1 6193   3.094   2.540   1.177
 2002HOH     H2 6194   3.103   2.412   1.257
 2003HOH      O 6195   3.351   1.546   2.520
 2003HOH     H1 6196   3.354   1.575   2.429
 2003HOH     H2 6197   3.273   1.491   2.525
 2004HOH      O 6198   2.665   0.390   1.056
 2004HOH     H1 6199   2.755   0.421   1.046
 2004HOH     H2 6200   2.623   0.412   0.972
 2005HOH      O 6201   3.751   0.478   2.481
 2005HOH     H1 6202   3.811   0.404   2.491
 2005HOH     H2 6203   3.675   0.454   2.534
 2006HOH      O 6204   4.030   2.283   2.817
 2006HOH     H1 6205   3.974   2.228   2.872
 2006HOH     H2 6206   4.073   2.342   2.878
 2007HOH      O 6207   0.961   3.112   0.340
 2007HOH     H1 6208   0.903   3.149   0.406
 2007HOH     H2 6209   1.019   3.054   0.389
 2008HOH      O 6210   3.771   1.663   3.633
 2008HOH     H1 6211   3.792   1.756   3.639
 2008HOH     H2 6212   3.677   1.658   3.649
 2009HOH      O 6213   1.487   3.109   0.984
 2009HOH     H1 6214   1.491   3.147   1.071
 2009HOH     H2 6215   1.545   3.164   0.931
 2010HOH      O 6216   3.357   0.633   0.998
 2010HOH     H1 6217   3.302   0.658   0.924
 2010HOH     H2 6218   3.366   0.712   1.051
 2011HOH      O 6219   1.066   1.412   3.430
 2011HOH     H1 6220   1.109   1.338   3.387
 2011HOH     H2 6221   0.977   1.380   3.449
 2012HOH      O 6222   3.820   1.855   2.090
 2012HOH     H1 6223   3.727   1.833   2.096
 2012HOH     H2 6224   3.853   1.799   2.020
 2013HOH      O 6225   0.088   2.032   0.121
 2013HOH     H1 6226   0.057   2.083   0.046
 2013HOH     H2 6227   0.182   2.022   0.106
 2014HOH      O 6228   0.360   2.083   0.747
 2014HOH     H1 6229   0.344   1.996   0.783
 2014HOH     H2 6230   0.372   2.139   0.823
 2015HOH      O 6231   1.705   0.126   1.992
 2015HOH     H1 6232   1.693   0.220   2.000
 2015HOH     H2 6233   1.674   0.105   1.904
 2016HOH      O 6234   3.072   0.610   3.384
 2016HOH     H1 6235   3.024   0.535   3.419
 2016HOH     H2 6236   3.141   0.572   3.330
 2017HOH      O 6237   3.600   1.196   0.945
 2017HOH     H1 6238   3.597   1.188   1.041
 2017HOH     H2 6239   3.693   1.198   0.925
 2018HOH      O 6240   3.531   3.397   3.113
 2018HOH     H1 6241   3.571   3.480   3.087
 2018HOH     H2 6242   3.605   3.338   3.128
 2019HOH      O 6243   2.437   0.721   1.064
 2019HOH     H1 6244   2.356   0.672   1.079
 2019HOH     H2 6245   2.408   0.808   1.037
 2020HOH      O 6246   2.149   1.541   2.636
 2020HOH     H1 6247   2.228   1.592   2.617
 2020HOH     H2 6248   2.164   1.457   2.593
 2021HOH      O 6249   3.746   2.810   0.102
 2021HOH     H1 6250   3.734   2.802   0.197
 2021HOH     H2 6251   3.822   2.754   0.083
 2022HOH      O 6252   0.515   2.946   2.496
 2022HOH     H1 6253   0.449   2.924   2.562
 2022HOH     H2 6254   0.485   3.029   2.458
 2023HOH      O 6255   3.435   2.257   1.232
 2023HOH     H1 6256   3.524   2.231   1.255
 2023HOH     H2 6257   3.446   2.316   1.157
 2024HOH      O 6258  -0.003   0.247   3.875
 2024HOH     H1 6259  -0.037   0.332   3.905
 2024HOH     H2 6260   0.047   0.213   3.949
 2025HOH      O 6261   0.815   1.783   0.183
 2025HOH     H1 6262   0.852   1.719   0.123
 2025HOH     H2 6263   0.885   1.804   0.244
 2026HOH      O 6264   2.589   0.158   1.510
 2026HOH     H1 6265   2.621   0.180   1.597
 2026HOH     H2 6266   2.644   0.208   1.450
 2027HOH      O 6267   1.296   1.899   0.446
 2027HOH     H1 6268   1.328   1.810   0.464
 2027HOH     H2 6269   1.295   1.941   0.531
 2028HOH      O 6270   0.988   3.079   3.277
 2028HOH     H1 6271   0.912   3.126   3.243
 2028HOH     H2 6272   0.982   2.992   3.239
 2029HOH      O 6273   0.590   2.107   2.339
 2029HOH     H1 6274   0.503   2.087   2.305
 2029HOH     H2 6275   0.649   2.057   2.282
 2030HOH      O 6276   1.193   2.365   1.067
 2030HOH     H1 6277   1.155   2.336   1.150
 2030HOH     H2 6278   1.259   2.429   1.093
 2031HOH      O 6279   2.552   2.883   3.962
 2031HOH     H1 6280   2.478   2.879   3.902
 2031HOH     H2 6281   2.515   2.916   4.044
 2032HOH      O 6282   2.905   3.010   2.924
 2032HOH     H1 6283   2.845   2.997   2.850
 2032HOH     H2 6284   2.990   3.026   2.883
 2033HOH      O 6285   1.720   1.211   3.350
 2033HOH     H1 6286   1.723   1.198   3.255
 2033HOH     H2 6287   1.782   1.146   3.384
 2034HOH      O 6288   2.571   3.682   0.216
 2034HOH     H1 6289   2.617   3.633   0.284
 2034HOH     H2 6290   2.530   3.614   0.162
 2035HOH      O 6291   0.356   1.912   3.138
 2035HOH     H1 6292   0.327   1.941   3.225
 2035HOH     H2 6293   0.446   1.884   3.151
 2036HOH      O 6294   3.193   2.407   2.880
 2036HOH     H1 6295   3.190   2.336   2.944
 2036HOH     H2 6296   3.218   2.484   2.932
 2037HOH      O 6297   2.771   0.175   2.034
 2037HOH     H1 6298   2.764   0.193   2.128
 2037HOH     H2 6299   2.718   0.097   2.021
 2038HOH      O 6300   0.046   2.596   1.948
 2038HOH     H1 6301   0.083   2.685   1.945
 2038HOH     H2 6302   0.030   2.581   2.041
 2039HOH      O 6303   3.937   3.800   0.388
 2039HOH     H1 6304   3.999   3.783   0.317
 2039HOH     H2 6305   3.852   3.804   0.346
 2040HOH      O 6306   1.782   1.934   0.514
 2040HOH     H1 6307   1.768   1.972   0.427
 2040HOH     H2 6308   1.815   1.846   0.497
 2041HOH      O 6309   2.635   2.034   2.257
 2041HOH     H1 6310   2.723   1.996   2.268
 2041HOH     H2 6311   2.646   2.125   2.283
 2042HOH      O 6312   1.107   3.742   0.049
 2042HOH     H1 6313   1.105   3.815   0.110
 2042HOH     H2 6314   1.164   3.678   0.090
 2043HOH      O 6315   1.564   1.212   2.036
 2043HOH     H1 6316   1.651   1.206   1.997
 2043HOH     H2 6317   1.517   1.135   2.003
 2044HOH      O 6318   3.707   3.584   2.994
 2044HOH     H1 6319   3.792   3.615   2.962
 2044HOH     H2 6320   3.646   3.599   2.922
 2045HOH      O 6321   0.176   1.391   1.249
 2045HOH     H1 6322   0.229   1.320   1.286
 2045HOH     H2 6323   0.240   1.454   1.216
 2046HOH      O 6324   2.506   0.372   2.412
 2046HOH     H1 6325   2.469   0.354   2.326
 2046HOH     H2 6326   2.598   0.348   2.404
 2047HOH      O 6327   3.370   3.297   0.966
 2047HOH     H1 6328   3.411   3.360   0.908
 2047HOH     H2 6329   3.366   3.342   1.051
 2048HOH      O 6330   3.565   2.930   1.579
 2048HOH     H1 6331   3.513   2.851   1.597
 2048HOH     H2 6332   3.504   2.989   1.536
 2049HOH      O 6333   1.820   3.359   0.924
 2049HOH     H1 6334   1.850   3.370   1.014
 2049HOH     H2 6335   1.797   3.447   0.895
 2050HOH      O 6336   0.194   1.252   1.942
 2050HOH     H1 6337   0.105   1.282   1.961
 2050HOH     H2 6338   0.225   1.311   1.873
 2051HOH      O 6339   2.864   2.818   1.193
 2051HOH     H1 6340   2.840   2.738   1.241
 2051HOH     H2 6341   2.959   2.811   1.182
 2052HOH      O 6342   2.642   1.737   1.126
 2052HOH     H1 6343   2.568   1.785   1.088
 2052HOH     H2 6344   2.717   1.763   1.073
 2053HOH      O 6345   3.169   2.142   0.094
 2053HOH     H1 6346   3.122   2.132   0.011
 2053HOH     H2 6347   3.255   2.174   0.068
 2054HOH      O 6348   2.409   2.391   2.534
 2054HOH     H1 6349   2.415   2.400   2.439
 2054HOH     H2 6350   2.407   2.296   2.548
 2055HOH      O 6351   0.445   3.515   3.853
 2055HOH     H1 6352   0.351   3.513   3.834
 2055HOH     H2 6353   0.455   3.458   3.930
 2056HOH      O 6354  -0.016   0.988   3.088
 2056HOH     H1 6355  -0.014   1.009   3.181
 2056HOH     H2 6356   0.036   0.908   3.080
 2057HOH      O 6357   3.430   2.980   0.127
 2057HOH     H1 6358   3.465   2.924   0.057
 2057HOH     H2 6359   3.474   2.950   0.206
 2058HOH      O 6360   1.071   0.905   0.330
 2058HOH     H1 6361   1.127   0.962   0.277
 2058HOH     H2 6362   1.013   0.862   0.267
 2059HOH      O 6363   3.701   1.161   3.381
 2059HOH     H1 6364   3.765   1.195   3.444
 2059HOH     H2 6365   3.617   1.191   3.414
 2060HOH      O 6366   2.808   1.840   2.062
 2060HOH     H1 6367   2.850   1.914   2.017
 2060HOH     H2 6368   2.828   1.855   2.154
 2061HOH      O 6369   0.427   0.104   1.544
 2061HOH     H1 6370   0.521   0.092   1.532
 2061HOH     H2 6371   0.417   0.199   1.556
 2062HOH      O 6372   1.224   0.632   1.917
 2062HOH     H1 6373   1.259   0.628   2.006
 2062HOH     H2 6374   1.233   0.543   1.883
 2063HOH      O 6375   0.521   2.502   3.578
 2063HOH     H1 6376   0.611   2.474   3.562
 2063HOH     H2 6377   0.474   2.421   3.600
 2064HOH      O 6378   1.179   2.431   3.534
 2064HOH     H1 6379   1.202   2.374   3.608
 2064HOH     H2 6380   1.255   2.487   3.521
 2065HOH      O 6381   2.231   3.853   0.162
 2065HOH     H1 6382   2.223   3.895   0.077
 2065HOH     H2 6383   2.312   3.803   0.156
 2066HOH      O 6384   3.363   1.604   2.239
 2066HOH     H1 6385   3.328   1.621   2.152
 2066HOH     H2 6386   3.415   1.524   2.229
 2067HOH      O 6387   1.006   1.775   0.652
 2067HOH     H1 6388   1.023   1.722   0.731
 2067HOH     H2 6389   0.978   1.860   0.686
 2068HOH      O 6390   3.384   3.983   3.677
 2068HOH     H1 6391   3.461   3.969   3.621
 2068HOH     H2 6392   3.378   3.903   3.730
 2069HOH      O 6393   3.598   0.189   2.396
 2069HOH     H1 6394   3.661   0.242   2.348
 2069HOH     H2 6395   3.641   0.170   2.479
 2070HOH      O 6396   3.741   1.902   0.875
 2070HOH     H1 6397   3.809   1.871   0.934
 2070HOH     H2 6398   3.711   1.984   0.914
 2071HOH      O 6399   1.033   0.390   0.474
 2071HOH     H1 6400   0.997   0.402   0.386
 2071HOH     H2 6401   1.068   0.475   0.498
 2072HOH      O 6402   0.910   1.940   1.817
 2072HOH     H1 6403   0.988   1.989   1.792
 2072HOH     H2 6404   0.906   1.868   1.754
 2073HOH      O 6405   0.598   1.420   1.982
 2073HOH     H1 6406   0.567   1.332   2.002
 2073HOH     H2 6407   0.551   1.477   2.042
 2074HOH      O 6408   3.646   2.078   1.666
 2074HOH     H1 6409   3.626   2.160   1.621
 2074HOH     H2 6410   3.573   2.065   1.726
 2075HOH      O 6411   0.497   2.588   3.988
 2075HOH     H1 6412   0.524   2.498   3.973
 2075HOH     H2 6413   0.549   2.617   4.063
 2076HOH      O 6414   3.909   3.782   0.663
 2076HOH     H1 6415   3.945   3.867   0.688
 2076HOH     H2 6416   3.930   3.773   0.570
 2077HOH      O 6417   2.095   1.219   0.729
 2077HOH     H1 6418   1.999   1.218   0.731
 2077HOH     H2 6419   2.119   1.134   0.692
 2078HOH      O 6420   2.908   0.449   0.495
 2078HOH     H1 6421   2.822   0.479   0.524
 2078HOH     H2 6422   2.890   0.386   0.426
 2079HOH      O 6423   1.160   2.256   2.153
 2079HOH     H1 6424   1.097   2.325   2.131
 2079HOH     H2 6425   1.157   2.196   2.079
 2080HOH      O 6426   1.291   3.986   1.796
 2080HOH     H1 6427   1.238   3.912   1.765
 2080HOH     H2 6428   1.263   3.999   1.887
 2081HOH      O 6429   1.347   2.302   1.408
 2081HOH     H1 6430   1.433   2.303   1.364
 2081HOH     H2 6431   1.324   2.394   1.416
 2082HOH      O 6432   1.336   3.941   0.094
 2082HOH     H1 6433   1.420   3.958   0.138
 2082HOH     H2 6434   1.292   3.877   0.150
 2083HOH      O 6435   2.589   1.182   0.025
 2083HOH     H1 6436   2.518   1.136  -0.019
 2083HOH     H2 6437   2.561   1.273   0.028
 2084HOH      O 6438   0.168   3.568   2.469
 2084HOH     H1 6439   0.161   3.616   2.387
 2084HOH     H2 6440   0.255   3.591   2.503
 2085HOH      O 6441   2.431   0.142   0.035
 2085HOH     H1 6442   2.497   0.090  -0.010
 2085HOH     H2 6443   2.466   0.231   0.036
 2086HOH      O 6444   0.797   2.298   2.746
 2086HOH     H1 6445   0.858   2.228   2.769
 2086HOH     H2 6446   0.803   2.306   2.651
 2087HOH      O 6447   0.735   3.466   3.183
 2087HOH     H1 6448   0.752   3.559   3.165
 2087HOH     H2 6449   0.755   3.422   3.101
 2088HOH      O 6450   3.265   3.031   2.151
 2088HOH     H1 6451   3.264   3.093   2.225
 2088HOH     H2 6452   3.316   2.957   2.183
 2089HOH      O 6453   0.221   3.579   1.949
 2089HOH     H1 6454   0.258   3.490   1.950
 2089HOH     H2 6455   0.263   3.622   1.875
 2090HOH      O 6456   2.489   3.383   3.166
 2090HOH     H1 6457   2.497   3.363   3.073
 2090HOH     H2 6458   2.414   3.443   3.172
 2091HOH      O 6459   2.802   1.958   3.097
 2091HOH     H1 6460   2.725   1.965   3.153
 2091HOH     H2 6461   2.830   1.867   3.105
 2092HOH      O 6462   1.700   0.637   2.696
 2092HOH     H1 6463   1.633   0.605   2.637
 2092HOH     H2 6464   1.668   0.722   2.725
 2093HOH      O 6465   1.415   2.231   2.232
 2093HOH     H1 6466   1.320   2.243   2.231
 2093HOH     H2 6467   1.431   2.175   2.308
 2094HOH      O 6468   0.150   0.654   0.826
 2094HOH     H1 6469   0.218   0.639   0.892
 2094HOH     H2 6470   0.102   0.571   0.822
 2095HOH      O 6471   0.214   3.235   2.528
 2095HOH     H1 6472   0.142   3.298   2.524
 2095HOH     H2 6473   0.272   3.261   2.456
 2096HOH      O 6474   3.417   1.240   0.119
 2096HOH     H1 6475   3.421   1.318   0.063
 2096HOH     H2 6476   3.374   1.174   0.064
 2097HOH      O 6477   2.357   0.031   1.241
 2097HOH     H1 6478   2.272   0.046   1.200
 2097HOH     H2 6479   2.390  -0.048   1.199
 2098HOH      O 6480   3.371   3.730   3.784
 2098HOH     H1 6481   3.360   3.699   3.874
 2098HOH     H2 6482   3.441   3.675   3.748
 2099HOH      O 6483   0.780   3.175   0.526
 2099HOH     H1 6484   0.718   3.244   0.504
 2099HOH     H2 6485   0.779   3.172   0.622
 2100HOH      O 6486   1.774   0.166   2.933
 2100HOH     H1 6487   1.812   0.254   2.924
 2100HOH     H2 6488   1.686   0.182   2.965
 2101HOH      O 6489   1.874   2.006   0.784
 2101HOH     H1 6490   1.930   2.078   0.755
 2101HOH     H2 6491   1.856   1.956   0.705
 2102HOH      O 6492   1.759   2.688   2.833
 2102HOH     H1 6493   1.828   2.661   2.772
 2102HOH     H2 6494   1.724   2.769   2.795
 2103HOH      O 6495   3.983   0.097   1.690
 2103HOH     H1 6496   4.066   0.054   1.672
 2103HOH     H2 6497   3.970   0.157   1.616
 2104HOH      O 6498   1.249   0.021   0.969
 2104HOH     H1 6499   1.154   0.029   0.964
 2104HOH     H2 6500   1.283   0.101   0.931
 2105HOH      O 6501   2.114   3.091   0.356
 2105HOH     H1 6502   2.065   3.104   0.438
 2105HOH     H2 6503   2.047   3.065   0.293
 2106HOH      O 6504   3.250   2.806   3.303
 2106HOH     H1 6505   3.313   2.875   3.280
 2106HOH     H2 6506   3.233   2.762   3.219
 2107HOH      O 6507   3.226   2.628   0.101
 2107HOH     H1 6508   3.131   2.626   0.089
 2107HOH     H2 6509   3.258   2.556   0.048
 2108HOH      O 6510   2.050   1.289   0.066
 2108HOH     H1 6511   2.059   1.319   0.156
 2108HOH     H2 6512   1.962   1.253   0.061
 2109HOH      O 6513   2.881   2.064   2.836
 2109HOH     H1 6514   2.812   2.045   2.771
 2109HOH     H2 6515   2.840   2.045   2.920
 2110HOH      O 6516   3.119   1.073   3.614
 2110HOH     H1 6517   3.211   1.092   3.631
 2110HOH     H2 6518   3.120   0.993   3.561
 2111HOH      O 6519   1.015   0.057   2.054
 2111HOH     H1 6520   0.974   0.014   1.979
 2111HOH     H2 6521   1.107   0.067   2.028
   4.02727   4.02727   4.02727   0.00000   0.00000   0.00000   0.00000   0.00000   0.00000
