Generated with MDTraj, t= 1700.0
 6521
    1MOL     O1    1   2.782   2.831   2.041
    1MOL     O2    2   2.871   2.992   2.153
    1MOL     N1    3   2.874   2.902   2.071
    1MOL     C1    4   3.012   2.859   2.035
    1MOL     C2    5   3.037   2.728   1.991
    1MOL     C3    6   3.119   2.950   2.035
    1MOL     C4    7   3.167   2.687   1.952
    1MOL     C5    8   3.248   2.912   2.005
    1MOL     C6    9   3.272   2.782   1.971
    1MOL     C7   10   3.195   2.543   1.908
    1MOL     O3   11   3.111   2.461   1.905
    1MOL     O4   12   3.309   2.522   1.868
    1MOL     H1   13   2.958   2.654   1.980
    1MOL     H2   14   3.100   3.053   2.065
    1MOL     H3   15   3.325   2.988   1.999
    1MOL     H4   16   3.369   2.749   1.933
    2OCB     C1   17   2.856   3.766   3.014
    2OCB     C2   18   2.873   3.842   2.739
    2OCB     C3   19   2.755   3.834   2.950
    2OCB     C4   20   2.968   3.738   2.933
    2OCB     C5   21   2.983   3.791   2.802
    2OCB     C6   22   2.761   3.873   2.815
    2OCB     O1   23   2.884   3.870   2.609
    2OCB     C7   24   2.643   3.943   2.748
    2OCB     C8   25   2.829   3.781   2.519
    2OCB     O2   26   2.696   3.841   2.480
    2OCB     C9   27   2.584   3.799   2.546
    2OCB    C10   28   2.552   3.839   2.676
    2OCB    C11   29   2.446   3.780   2.746
    2OCB    C12   30   2.496   3.708   2.484
    2OCB    C13   31   2.364   3.681   2.687
    2OCB    C14   32   2.395   3.643   2.553
    2OCB     O3   33   2.334   3.537   2.496
    2OCB    C15   34   2.250   3.613   2.767
    2OCB    C16   35   2.301   3.487   2.838
    2OCB    C17   36   2.310   3.363   2.767
    2OCB    C18   37   2.382   3.404   2.531
    2OCB     O4   38   2.283   3.350   2.627
    2OCB     O5   39   3.064   3.657   2.981
    2OCB    C19   40   2.841   3.723   3.157
    2OCB    C20   41   2.774   3.583   3.169
    2OCB     O6   42   2.997   3.492   3.126
    2OCB    C21   43   2.862   3.477   3.154
    2OCB    C22   44   2.359   3.252   2.837
    2OCB    C23   45   2.395   3.255   2.968
    2OCB    C24   46   2.822   3.350   3.140
    2OCB    C25   47   2.686   3.325   3.153
    2OCB     O7   48   2.463   3.138   3.008
    2OCB     O8   49   2.653   3.198   3.137
    2OCB    C26   50   2.605   3.140   3.010
    2OCB    C27   51   2.635   3.560   3.179
    2OCB    C28   52   2.594   3.428   3.172
    2OCB    C29   53   2.337   3.493   2.972
    2OCB    C30   54   2.443   3.392   3.176
    2OCB    C31   55   2.395   3.378   3.036
    2OCB    C32   56   3.031   3.514   2.987
    2OCB    C33   57   2.165   3.708   2.859
    2OCB    C34   58   2.100   3.816   2.762
    2OCB    C35   59   1.975   3.869   2.824
    2OCB     O9   60   1.984   3.941   2.920
    2OCB    C36   61   2.566   4.054   2.830
    2OCB    C37   62   2.670   4.147   2.898
    2OCB    C38   63   2.594   4.261   2.967
    2OCB    O10   64   2.603   4.296   3.083
    2OCB    C39   65   2.774   3.822   3.261
    2OCB    C40   66   2.863   3.938   3.313
    2OCB    C41   67   2.797   4.023   3.424
    2OCB    O11   68   2.731   4.116   3.387
    2OCB    C42   69   2.360   3.477   3.276
    2OCB    C43   70   2.216   3.424   3.299
    2OCB    C44   71   2.209   3.293   3.379
    2OCB    O12   72   2.239   3.187   3.332
    2OCB    C45   73   2.918   3.747   2.395
    2OCB    C46   74   3.081   3.638   2.194
    2OCB    C47   75   2.866   3.705   2.275
    2OCB    C48   76   3.055   3.726   2.420
    2OCB    C49   77   3.135   3.678   2.316
    2OCB    C50   78   2.950   3.669   2.173
    2OCB    C51   79   3.150   3.432   2.940
    2OCB    C52   80   3.377   3.277   2.873
    2OCB    C53   81   3.166   3.302   2.989
    2OCB    C54   82   3.242   3.478   2.849
    2OCB    C55   83   3.356   3.404   2.819
    2OCB    C56   84   3.276   3.221   2.951
    2OCB    C57   85   2.668   3.003   2.978
    2OCB    C58   86   2.785   2.760   2.907
    2OCB    C59   87   2.630   2.931   2.866
    2OCB    C60   88   2.777   2.947   3.052
    2OCB    C61   89   2.832   2.823   3.021
    2OCB    C62   90   2.683   2.809   2.832
    2OCB    C63   91   2.416   3.311   2.414
    2OCB    C64   92   2.472   3.141   2.202
    2OCB    C65   93   2.396   3.173   2.428
    2OCB    C66   94   2.454   3.367   2.290
    2OCB    C67   95   2.488   3.281   2.184
    2OCB    C68   96   2.424   3.090   2.321
    2OCB    O13   97   3.455   3.450   2.728
    2OCB    O14   98   2.947   2.774   3.071
    2OCB    O15   99   2.633   2.745   2.714
    2OCB    O16  100   3.269   3.645   2.331
    2OCB    O17  101   2.897   3.635   2.047
    2OCB    O18  102   2.411   2.954   2.330
    2OCB    O19  103   2.528   3.331   2.058
    2OCB    C69  104   3.051   2.854   3.118
    2OCB    C70  105   3.245   3.023   3.226
    2OCB    C71  106   3.112   2.954   3.035
    2OCB    C72  107   3.078   2.855   3.257
    2OCB    C73  108   3.178   2.936   3.309
    2OCB    C74  109   3.210   3.032   3.094
    2OCB    O20  110   3.301   3.103   3.021
    2OCB    C75  111   3.347   3.650   2.450
    2OCB    C76  112   3.516   3.671   2.661
    2OCB    C77  113   3.406   3.771   2.481
    2OCB    C78  114   3.359   3.537   2.533
    2OCB    C79  115   3.440   3.552   2.643
    2OCB    C80  116   3.494   3.783   2.588
    2OCB    C81  117   2.519   2.780   2.638
    2OCB    C82  118   2.285   2.843   2.499
    2OCB    C83  119   2.400   2.733   2.684
    2OCB    C84  120   2.525   2.849   2.515
    2OCB    C85  121   2.406   2.877   2.444
    2OCB    C86  122   2.280   2.764   2.614
    2OCB    C87  123   2.146   2.727   2.674
    2OCB    O21  124   2.136   2.632   2.750
    2OCB    C88  125   2.430   3.799   2.003
    2OCB    O22  126   2.475   3.912   1.976
    2OCB    C89  127   3.558   3.920   2.624
    2OCB    O23  128   3.526   4.017   2.553
    2OCB    O24  129   1.870   3.851   2.773
    2OCB    O25  130   2.161   3.294   3.490
    2OCB    O26  131   2.812   4.001   3.541
    2OCB    C90  132   3.210   2.952   3.457
    2OCB    O27  133   3.305   3.020   3.491
    2OCB    O28  134   2.312   3.776   2.006
    2OCB    O29  135   2.045   2.783   2.645
    2OCB    O30  136   3.166   2.866   3.529
    2OCB    O31  137   3.647   3.928   2.709
    2OCB    O32  138   2.489   4.295   2.920
    2OCB    C91  139   2.763   3.605   2.037
    2OCB    C92  140   2.496   3.555   2.010
    2OCB    C93  141   2.717   3.477   2.059
    2OCB    C94  142   2.677   3.710   2.010
    2OCB    C95  143   2.534   3.690   2.002
    2OCB    C96  144   2.585   3.454   2.042
    2OCB    C97  145   2.823   3.372   2.096
    2OCB    C98  146   3.304   3.400   2.497
    2OCB    C99  147   3.104   2.964   2.885
    2OCB      C  148   2.657   2.892   2.460
    2OCB     H1  149   2.659   3.845   3.000
    2OCB     H2  150   3.076   3.784   2.746
    2OCB     H3  151   2.681   4.002   2.664
    2OCB     H4  152   2.806   3.686   2.570
    2OCB     H5  153   2.418   3.811   2.846
    2OCB     H6  154   2.508   3.690   2.378
    2OCB     H7  155   2.179   3.565   2.699
    2OCB     H8  156   2.473   3.417   2.591
    2OCB     H9  157   2.943   3.711   3.195
    2OCB    H10  158   2.371   3.158   2.785
    2OCB    H11  159   2.890   3.268   3.122
    2OCB    H12  160   2.641   3.203   2.927
    2OCB    H13  161   2.565   3.642   3.198
    2OCB    H14  162   2.322   3.586   3.025
    2OCB    H15  163   2.440   3.295   3.225
    2OCB    H16  164   2.949   3.482   2.922
    2OCB    H17  165   2.085   3.656   2.911
    2OCB    H18  166   2.219   3.753   2.942
    2OCB    H19  167   2.178   3.893   2.761
    2OCB    H20  168   2.089   3.777   2.661
    2OCB    H21  169   2.494   4.015   2.902
    2OCB    H22  170   2.510   4.109   2.753
    2OCB    H23  171   2.727   4.101   2.979
    2OCB    H24  172   2.738   4.198   2.831
    2OCB    H25  173   2.679   3.862   3.225
    2OCB    H26  174   2.749   3.765   3.351
    2OCB    H27  175   2.955   3.906   3.362
    2OCB    H28  176   2.889   3.996   3.224
    2OCB    H29  177   2.413   3.486   3.371
    2OCB    H30  178   2.347   3.579   3.240
    2OCB    H31  179   2.165   3.502   3.356
    2OCB    H32  180   2.163   3.423   3.204
    2OCB    H33  181   3.143   3.581   2.125
    2OCB    H34  182   2.760   3.716   2.254
    2OCB    H35  183   3.099   3.768   2.510
    2OCB    H36  184   3.475   3.233   2.856
    2OCB    H37  185   3.095   3.256   3.057
    2OCB    H38  186   3.222   3.566   2.789
    2OCB    H39  187   2.839   2.668   2.885
    2OCB    H40  188   2.556   2.973   2.798
    2OCB    H41  189   2.822   3.004   3.132
    2OCB    H42  190   2.491   3.075   2.117
    2OCB    H43  191   2.373   3.136   2.527
    2OCB    H44  192   2.462   3.474   2.270
    2OCB    H45  193   3.332   3.078   3.262
    2OCB    H46  194   3.021   2.805   3.334
    2OCB    H47  195   3.586   3.678   2.744
    2OCB    H48  196   3.383   3.860   2.422
    2OCB    H49  197   2.195   2.875   2.447
    2OCB    H50  198   2.403   2.678   2.778
    2OCB    H51  199   2.390   3.529   2.009
    2OCB    H52  200   2.717   3.811   2.007
    2OCB    H53  201   2.772   3.276   2.103
    2OCB    H54  202   2.913   3.360   2.036
    2OCB    H55  203   2.854   3.394   2.199
    2OCB    H56  204   3.256   3.398   2.399
    2OCB    H57  205   3.385   3.327   2.507
    2OCB    H58  206   3.221   3.368   2.562
    2OCB    H59  207   3.054   3.057   2.858
    2OCB    H60  208   3.200   2.943   2.837
    2OCB    H61  209   3.036   2.885   2.850
    2OCB    H62  210   2.661   2.999   2.483
    2OCB    H63  211   2.747   2.839   2.493
    2OCB    H64  212   2.665   2.895   2.351
    3Na+    Na+  213   1.518   1.291   2.975
    4Na+    Na+  214   0.602   2.302   1.704
    5Na+    Na+  215   0.341   3.196   0.294
    6Na+    Na+  216   3.907   3.608   3.984
    7Na+    Na+  217   2.787   2.135   1.944
    8Na+    Na+  218   2.354   1.837   0.098
    9Na+    Na+  219   2.547   0.434   3.927
   10Na+    Na+  220   2.327   3.175   3.581
   11Na+    Na+  221   1.644   0.252   2.688
   12HOH      O  222   0.951   1.866   2.025
   12HOH     H1  223   1.035   1.893   2.062
   12HOH     H2  224   0.887   1.928   2.061
   13HOH      O  225   3.177   2.122   2.394
   13HOH     H1  226   3.198   2.043   2.444
   13HOH     H2  227   3.206   2.102   2.305
   14HOH      O  228   3.153   3.955   0.188
   14HOH     H1  229   3.148   3.886   0.122
   14HOH     H2  230   3.132   4.035   0.139
   15HOH      O  231   0.930   3.022   0.824
   15HOH     H1  232   0.987   3.048   0.897
   15HOH     H2  233   0.857   3.083   0.828
   16HOH      O  234   1.932   3.286   0.497
   16HOH     H1  235   1.894   3.245   0.419
   16HOH     H2  236   2.016   3.322   0.468
   17HOH      O  237   2.429   3.403   1.662
   17HOH     H1  238   2.433   3.325   1.605
   17HOH     H2  239   2.386   3.372   1.742
   18HOH      O  240   3.730   0.834   3.249
   18HOH     H1  241   3.796   0.899   3.225
   18HOH     H2  242   3.735   0.768   3.181
   19HOH      O  243   0.438   2.454   1.706
   19HOH     H1  244   0.402   2.499   1.783
   19HOH     H2  245   0.380   2.480   1.634
   20HOH      O  246   1.780   2.179   3.524
   20HOH     H1  247   1.736   2.264   3.518
   20HOH     H2  248   1.712   2.119   3.553
   21HOH      O  249   3.065   3.269   3.349
   21HOH     H1  250   3.051   3.195   3.408
   21HOH     H2  251   3.044   3.346   3.402
   22HOH      O  252   4.009   2.944   3.812
   22HOH     H1  253   3.955   2.878   3.856
   22HOH     H2  254   3.991   2.933   3.719
   23HOH      O  255   1.049   0.637   1.146
   23HOH     H1  256   0.970   0.688   1.165
   23HOH     H2  257   1.017   0.550   1.123
   24HOH      O  258   3.128   0.077   0.685
   24HOH     H1  259   3.083  -0.008   0.685
   24HOH     H2  260   3.057   0.141   0.686
   25HOH      O  261   1.779   3.952   3.087
   25HOH     H1  262   1.746   3.863   3.072
   25HOH     H2  263   1.855   3.960   3.029
   26HOH      O  264   1.428   1.550   1.650
   26HOH     H1  265   1.481   1.609   1.597
   26HOH     H2  266   1.414   1.473   1.594
   27HOH      O  267   2.946   1.782   3.571
   27HOH     H1  268   2.990   1.858   3.532
   27HOH     H2  269   2.883   1.820   3.632
   28HOH      O  270   0.930   3.694   2.020
   28HOH     H1  271   0.870   3.621   2.003
   28HOH     H2  272   1.009   3.672   1.970
   29HOH      O  273   2.531   0.448   3.247
   29HOH     H1  274   2.558   0.385   3.180
   29HOH     H2  275   2.574   0.530   3.221
   30HOH      O  276   3.390   1.728   1.441
   30HOH     H1  277   3.400   1.675   1.520
   30HOH     H2  278   3.301   1.709   1.411
   31HOH      O  279   3.653   0.336   1.293
   31HOH     H1  280   3.713   0.371   1.359
   31HOH     H2  281   3.672   0.388   1.214
   32HOH      O  282   1.381   0.992   3.558
   32HOH     H1  283   1.335   1.069   3.525
   32HOH     H2  284   1.406   1.016   3.648
   33HOH      O  285   1.716   1.534   0.395
   33HOH     H1  286   1.748   1.624   0.388
   33HOH     H2  287   1.786   1.480   0.358
   34HOH      O  288   3.341   3.343   3.251
   34HOH     H1  289   3.312   3.432   3.233
   34HOH     H2  290   3.268   3.303   3.298
   35HOH      O  291   1.557   0.492   1.969
   35HOH     H1  292   1.493   0.421   1.979
   35HOH     H2  293   1.585   0.484   1.878
   36HOH      O  294   2.361   3.988   0.717
   36HOH     H1  295   2.378   4.057   0.780
   36HOH     H2  296   2.340   3.911   0.770
   37HOH      O  297   3.477   0.141   2.819
   37HOH     H1  298   3.434   0.113   2.899
   37HOH     H2  299   3.435   0.090   2.749
   38HOH      O  300   0.103   2.763   3.256
   38HOH     H1  301   0.192   2.759   3.291
   38HOH     H2  302   0.097   2.852   3.219
   39HOH      O  303   2.780   3.110   3.433
   39HOH     H1  304   2.837   3.133   3.506
   39HOH     H2  305   2.792   3.180   3.369
   40HOH      O  306   1.184   0.046   0.709
   40HOH     H1  307   1.245   0.014   0.642
   40HOH     H2  308   1.097   0.027   0.673
   41HOH      O  309   1.429   0.133   2.598
   41HOH     H1  310   1.358   0.092   2.648
   41HOH     H2  311   1.425   0.090   2.512
   42HOH      O  312   2.951   3.023   1.137
   42HOH     H1  313   2.988   3.099   1.093
   42HOH     H2  314   3.009   3.009   1.213
   43HOH      O  315   2.007   1.181   0.618
   43HOH     H1  316   2.003   1.257   0.559
   43HOH     H2  317   2.049   1.112   0.565
   44HOH      O  318   2.828   1.211   2.791
   44HOH     H1  319   2.915   1.184   2.819
   44HOH     H2  320   2.810   1.291   2.841
   45HOH      O  321   0.380   0.628   0.534
   45HOH     H1  322   0.366   0.542   0.495
   45HOH     H2  323   0.389   0.687   0.459
   46HOH      O  324   3.392   1.099   3.083
   46HOH     H1  325   3.323   1.037   3.061
   46HOH     H2  326   3.356   1.150   3.155
   47HOH      O  327   3.983   0.790   2.778
   47HOH     H1  328   4.076   0.807   2.770
   47HOH     H2  329   3.942   0.876   2.771
   48HOH      O  330   0.062   0.638   3.405
   48HOH     H1  331   0.015   0.646   3.322
   48HOH     H2  332   0.135   0.699   3.397
   49HOH      O  333   2.624   1.394   2.144
   49HOH     H1  334   2.582   1.320   2.188
   49HOH     H2  335   2.654   1.451   2.216
   50HOH      O  336   2.009   0.157   2.564
   50HOH     H1  337   1.928   0.149   2.613
   50HOH     H2  338   2.077   0.168   2.630
   51HOH      O  339   2.255   0.205   3.452
   51HOH     H1  340   2.348   0.225   3.448
   51HOH     H2  341   2.252   0.113   3.478
   52HOH      O  342   1.320   3.042   3.803
   52HOH     H1  343   1.261   2.999   3.741
   52HOH     H2  344   1.366   2.971   3.846
   53HOH      O  345   1.927   3.923   2.426
   53HOH     H1  346   1.907   4.013   2.451
   53HOH     H2  347   1.902   3.871   2.502
   54HOH      O  348   3.625   1.755   1.023
   54HOH     H1  349   3.676   1.835   1.008
   54HOH     H2  350   3.544   1.785   1.063
   55HOH      O  351   3.582   0.139   0.494
   55HOH     H1  352   3.494   0.111   0.468
   55HOH     H2  353   3.617   0.182   0.416
   56HOH      O  354   2.009   0.490   2.698
   56HOH     H1  355   2.103   0.476   2.712
   56HOH     H2  356   2.004   0.546   2.621
   57HOH      O  357   2.397   2.152   1.754
   57HOH     H1  358   2.307   2.122   1.749
   57HOH     H2  359   2.400   2.229   1.697
   58HOH      O  360   1.580   0.535   4.038
   58HOH     H1  361   1.550   0.612   3.989
   58HOH     H2  362   1.557   0.461   3.982
   59HOH      O  363   2.252   3.412   0.641
   59HOH     H1  364   2.323   3.473   0.656
   59HOH     H2  365   2.220   3.390   0.729
   60HOH      O  366   1.581   3.683   2.074
   60HOH     H1  367   1.647   3.712   2.137
   60HOH     H2  368   1.629   3.624   2.015
   61HOH      O  369   3.971   1.292   2.101
   61HOH     H1  370   4.028   1.292   2.024
   61HOH     H2  371   3.885   1.265   2.067
   62HOH      O  372   0.021   0.536   2.285
   62HOH     H1  373  -0.011   0.601   2.348
   62HOH     H2  374   0.115   0.551   2.282
   63HOH      O  375   0.254   4.049   0.730
   63HOH     H1  376   0.206   3.999   0.664
   63HOH     H2  377   0.219   4.019   0.813
   64HOH      O  378   1.083   1.229   0.961
   64HOH     H1  379   1.090   1.186   1.046
   64HOH     H2  380   1.173   1.230   0.927
   65HOH      O  381   1.620   4.026   1.436
   65HOH     H1  382   1.526   4.024   1.453
   65HOH     H2  383   1.660   4.031   1.523
   66HOH      O  384   1.814   3.149   1.594
   66HOH     H1  385   1.880   3.212   1.565
   66HOH     H2  386   1.821   3.149   1.689
   67HOH      O  387   2.210   0.158   3.903
   67HOH     H1  388   2.252   0.243   3.891
   67HOH     H2  389   2.124   0.167   3.863
   68HOH      O  390   0.017   0.193   1.663
   68HOH     H1  391   0.043   0.245   1.739
   68HOH     H2  392  -0.053   0.136   1.695
   69HOH      O  393   3.407   3.617   1.082
   69HOH     H1  394   3.449   3.639   1.165
   69HOH     H2  395   3.318   3.593   1.106
   70HOH      O  396   1.482   0.470   3.030
   70HOH     H1  397   1.472   0.440   2.940
   70HOH     H2  398   1.551   0.413   3.067
   71HOH      O  399   3.922   2.237   1.827
   71HOH     H1  400   3.835   2.207   1.854
   71HOH     H2  401   3.978   2.221   1.903
   72HOH      O  402   1.953   1.496   3.301
   72HOH     H1  403   1.982   1.471   3.213
   72HOH     H2  404   1.873   1.546   3.286
   73HOH      O  405   3.482   3.208   2.104
   73HOH     H1  406   3.503   3.295   2.140
   73HOH     H2  407   3.485   3.220   2.009
   74HOH      O  408   2.537   1.087   1.198
   74HOH     H1  409   2.484   1.061   1.274
   74HOH     H2  410   2.584   1.008   1.173
   75HOH      O  411   3.637   0.248   2.546
   75HOH     H1  412   3.602   0.160   2.531
   75HOH     H2  413   3.634   0.290   2.460
   76HOH      O  414   3.987   2.778   1.361
   76HOH     H1  415   4.030   2.701   1.325
   76HOH     H2  416   3.895   2.751   1.372
   77HOH      O  417   1.646   1.420   0.656
   77HOH     H1  418   1.728   1.443   0.613
   77HOH     H2  419   1.581   1.477   0.615
   78HOH      O  420   0.849   0.069   2.216
   78HOH     H1  421   0.797   0.128   2.271
   78HOH     H2  422   0.940   0.098   2.228
   79HOH      O  423   0.973   2.476   3.033
   79HOH     H1  424   0.903   2.536   3.008
   79HOH     H2  425   1.005   2.441   2.950
   80HOH      O  426   0.447   2.217   3.543
   80HOH     H1  427   0.385   2.275   3.587
   80HOH     H2  428   0.495   2.175   3.614
   81HOH      O  429   2.470   2.316   3.951
   81HOH     H1  430   2.424   2.344   4.030
   81HOH     H2  431   2.561   2.341   3.966
   82HOH      O  432   0.299   2.611   1.129
   82HOH     H1  433   0.339   2.592   1.045
   82HOH     H2  434   0.362   2.579   1.194
   83HOH      O  435   0.209   1.170   2.209
   83HOH     H1  436   0.197   1.248   2.263
   83HOH     H2  437   0.224   1.099   2.272
   84HOH      O  438   3.747   1.319   0.145
   84HOH     H1  439   3.781   1.247   0.199
   84HOH     H2  440   3.733   1.390   0.208
   85HOH      O  441   3.387   3.155   0.121
   85HOH     H1  442   3.450   3.086   0.142
   85HOH     H2  443   3.310   3.108   0.089
   86HOH      O  444   0.442   0.119   2.523
   86HOH     H1  445   0.413   0.134   2.613
   86HOH     H2  446   0.363   0.091   2.477
   87HOH      O  447   0.469   2.317   1.005
   87HOH     H1  448   0.491   2.402   0.965
   87HOH     H2  449   0.388   2.290   0.962
   88HOH      O  450   2.921   0.168   3.901
   88HOH     H1  451   2.896   0.207   3.817
   88HOH     H2  452   2.906   0.074   3.890
   89HOH      O  453   3.721   2.039   2.129
   89HOH     H1  454   3.791   2.079   2.180
   89HOH     H2  455   3.723   1.947   2.155
   90HOH      O  456   2.031   3.695   0.843
   90HOH     H1  457   1.954   3.638   0.842
   90HOH     H2  458   2.053   3.708   0.750
   91HOH      O  459   3.760   3.148   2.092
   91HOH     H1  460   3.793   3.139   2.003
   91HOH     H2  461   3.707   3.069   2.106
   92HOH      O  462   1.297   2.296   0.031
   92HOH     H1  463   1.209   2.333   0.035
   92HOH     H2  464   1.331   2.305   0.120
   93HOH      O  465   2.695   2.189   2.565
   93HOH     H1  466   2.689   2.248   2.491
   93HOH     H2  467   2.783   2.150   2.557
   94HOH      O  468   2.793   2.657   3.605
   94HOH     H1  469   2.717   2.712   3.625
   94HOH     H2  470   2.799   2.657   3.509
   95HOH      O  471   2.859   0.655   1.554
   95HOH     H1  472   2.830   0.673   1.465
   95HOH     H2  473   2.798   0.588   1.586
   96HOH      O  474   3.520   2.210   2.114
   96HOH     H1  475   3.499   2.217   2.207
   96HOH     H2  476   3.598   2.154   2.112
   97HOH      O  477   0.186   3.804   1.461
   97HOH     H1  478   0.265   3.756   1.436
   97HOH     H2  479   0.217   3.891   1.486
   98HOH      O  480   2.861   2.175   0.077
   98HOH     H1  481   2.876   2.269   0.090
   98HOH     H2  482   2.948   2.137   0.071
   99HOH      O  483   2.869   3.486   0.889
   99HOH     H1  484   2.777   3.463   0.898
   99HOH     H2  485   2.874   3.540   0.811
  100HOH      O  486   3.102   0.746   2.931
  100HOH     H1  487   3.047   0.745   2.853
  100HOH     H2  488   3.187   0.778   2.900
  101HOH      O  489   3.390   2.607   2.913
  101HOH     H1  490   3.392   2.652   2.997
  101HOH     H2  491   3.426   2.520   2.930
  102HOH      O  492   2.758   0.892   1.671
  102HOH     H1  493   2.665   0.898   1.649
  102HOH     H2  494   2.789   0.817   1.622
  103HOH      O  495   0.039   0.087   2.916
  103HOH     H1  496  -0.017   0.104   2.840
  103HOH     H2  497   0.049   0.172   2.958
  104HOH      O  498   1.825   2.656   1.324
  104HOH     H1  499   1.842   2.729   1.384
  104HOH     H2  500   1.843   2.578   1.376
  105HOH      O  501   3.468   2.634   1.661
  105HOH     H1  502   3.479   2.559   1.603
  105HOH     H2  503   3.411   2.602   1.731
  106HOH      O  504   2.376   3.624   3.828
  106HOH     H1  505   2.368   3.712   3.865
  106HOH     H2  506   2.323   3.626   3.749
  107HOH      O  507   3.297   1.370   0.046
  107HOH     H1  508   3.351   1.294   0.067
  107HOH     H2  509   3.299   1.424   0.125
  108HOH      O  510   3.931   0.321   0.912
  108HOH     H1  511   3.886   0.328   0.828
  108HOH     H2  512   3.990   0.397   0.915
  109HOH      O  513   2.358   1.304   0.674
  109HOH     H1  514   2.448   1.280   0.653
  109HOH     H2  515   2.331   1.240   0.740
  110HOH      O  516   1.518   2.094   3.578
  110HOH     H1  517   1.434   2.050   3.569
  110HOH     H2  518   1.496   2.180   3.615
  111HOH      O  519   2.046   0.806   2.477
  111HOH     H1  520   2.127   0.756   2.489
  111HOH     H2  521   2.036   0.812   2.382
  112HOH      O  522   1.322   0.805   1.969
  112HOH     H1  523   1.237   0.813   1.924
  112HOH     H2  524   1.385   0.797   1.897
  113HOH      O  525   0.513   2.037   2.400
  113HOH     H1  526   0.540   1.952   2.436
  113HOH     H2  527   0.426   2.021   2.364
  114HOH      O  528   0.779   3.327   1.263
  114HOH     H1  529   0.816   3.308   1.177
  114HOH     H2  530   0.686   3.345   1.245
  115HOH      O  531   0.424   1.179   3.380
  115HOH     H1  532   0.455   1.263   3.344
  115HOH     H2  533   0.452   1.181   3.471
  116HOH      O  534   2.865   3.569   1.358
  116HOH     H1  535   2.938   3.595   1.415
  116HOH     H2  536   2.798   3.635   1.374
  117HOH      O  537   3.682   1.859   3.274
  117HOH     H1  538   3.669   1.764   3.275
  117HOH     H2  539   3.593   1.895   3.274
  118HOH      O  540   0.802   0.700   0.017
  118HOH     H1  541   0.797   0.610   0.051
  118HOH     H2  542   0.862   0.693  -0.057
  119HOH      O  543   2.714   1.649   1.068
  119HOH     H1  544   2.704   1.596   1.147
  119HOH     H2  545   2.626   1.681   1.049
  120HOH      O  546   0.271   3.078   3.830
  120HOH     H1  547   0.325   3.034   3.895
  120HOH     H2  548   0.199   3.017   3.813
  121HOH      O  549   2.195   3.832   1.762
  121HOH     H1  550   2.105   3.860   1.778
  121HOH     H2  551   2.241   3.851   1.844
  122HOH      O  552   2.131   0.903   0.874
  122HOH     H1  553   2.107   0.878   0.785
  122HOH     H2  554   2.047   0.907   0.921
  123HOH      O  555   1.312   2.064   3.093
  123HOH     H1  556   1.344   1.974   3.095
  123HOH     H2  557   1.390   2.118   3.107
  124HOH      O  558   0.556   1.594   1.524
  124HOH     H1  559   0.613   1.528   1.564
  124HOH     H2  560   0.615   1.665   1.499
  125HOH      O  561   3.097   3.684   0.297
  125HOH     H1  562   3.014   3.697   0.342
  125HOH     H2  563   3.155   3.751   0.335
  126HOH      O  564   0.933   1.424   0.133
  126HOH     H1  565   0.882   1.346   0.153
  126HOH     H2  566   0.881   1.496   0.169
  127HOH      O  567   1.569   1.013   3.751
  127HOH     H1  568   1.612   1.071   3.688
  127HOH     H2  569   1.629   1.011   3.826
  128HOH      O  570   1.023   1.759   3.174
  128HOH     H1  571   1.063   1.786   3.092
  128HOH     H2  572   0.934   1.734   3.150
  129HOH      O  573   3.894   0.827   1.522
  129HOH     H1  574   3.883   0.804   1.614
  129HOH     H2  575   3.830   0.772   1.476
  130HOH      O  576   0.264   1.154   2.582
  130HOH     H1  577   0.266   1.103   2.501
  130HOH     H2  578   0.233   1.091   2.648
  131HOH      O  579   0.913   0.506   1.347
  131HOH     H1  580   0.829   0.551   1.337
  131HOH     H2  581   0.922   0.492   1.441
  132HOH      O  582   2.263   2.937   1.576
  132HOH     H1  583   2.310   2.857   1.553
  132HOH     H2  584   2.220   2.917   1.659
  133HOH      O  585   3.428   0.121   1.249
  133HOH     H1  586   3.338   0.148   1.263
  133HOH     H2  587   3.480   0.200   1.268
  134HOH      O  588   0.888   1.837   0.883
  134HOH     H1  589   0.812   1.841   0.824
  134HOH     H2  590   0.866   1.768   0.946
  135HOH      O  591   3.429   3.685   0.807
  135HOH     H1  592   3.342   3.661   0.776
  135HOH     H2  593   3.429   3.662   0.900
  136HOH      O  594   0.248   0.965   2.382
  136HOH     H1  595   0.330   0.939   2.424
  136HOH     H2  596   0.216   0.885   2.340
  137HOH      O  597   2.564   1.668   1.557
  137HOH     H1  598   2.584   1.632   1.471
  137HOH     H2  599   2.488   1.618   1.586
  138HOH      O  600   0.950  -0.009   3.257
  138HOH     H1  601   0.944   0.042   3.338
  138HOH     H2  602   0.948   0.056   3.187
  139HOH      O  603   2.722   2.432   0.389
  139HOH     H1  604   2.809   2.461   0.419
  139HOH     H2  605   2.706   2.352   0.439
  140HOH      O  606   0.668   2.967   1.695
  140HOH     H1  607   0.670   3.051   1.648
  140HOH     H2  608   0.577   2.955   1.720
  141HOH      O  609   0.339   2.711   0.557
  141HOH     H1  610   0.312   2.699   0.648
  141HOH     H2  611   0.365   2.803   0.552
  142HOH      O  612   1.235   2.958   3.551
  142HOH     H1  613   1.166   2.893   3.541
  142HOH     H2  614   1.193   3.041   3.529
  143HOH      O  615   2.744   1.386   0.178
  143HOH     H1  616   2.754   1.350   0.090
  143HOH     H2  617   2.650   1.398   0.188
  144HOH      O  618   1.680   2.156   2.032
  144HOH     H1  619   1.589   2.155   2.060
  144HOH     H2  620   1.700   2.249   2.020
  145HOH      O  621   0.772   2.894   0.649
  145HOH     H1  622   0.820   2.935   0.721
  145HOH     H2  623   0.703   2.843   0.692
  146HOH      O  624   2.517   2.593   3.016
  146HOH     H1  625   2.604   2.598   2.976
  146HOH     H2  626   2.474   2.520   2.971
  147HOH      O  627   2.530   3.978   3.540
  147HOH     H1  628   2.565   3.890   3.527
  147HOH     H2  629   2.603   4.037   3.520
  148HOH      O  630   3.165   2.574   1.533
  148HOH     H1  631   3.202   2.657   1.503
  148HOH     H2  632   3.233   2.509   1.516
  149HOH      O  633   3.892   3.404   1.089
  149HOH     H1  634   3.833   3.328   1.093
  149HOH     H2  635   3.842   3.474   1.130
  150HOH      O  636   3.931   0.148   0.125
  150HOH     H1  637   3.923   0.240   0.148
  150HOH     H2  638   3.977   0.108   0.199
  151HOH      O  639   3.745   1.536   2.336
  151HOH     H1  640   3.652   1.514   2.345
  151HOH     H2  641   3.746   1.614   2.282
  152HOH      O  642   1.819   0.856   3.510
  152HOH     H1  643   1.824   0.818   3.597
  152HOH     H2  644   1.733   0.831   3.477
  153HOH      O  645   3.214   3.391   3.744
  153HOH     H1  646   3.209   3.316   3.804
  153HOH     H2  647   3.269   3.454   3.790
  154HOH      O  648   3.561   2.411   1.947
  154HOH     H1  649   3.521   2.351   2.010
  154HOH     H2  650   3.489   2.467   1.919
  155HOH      O  651   1.160   1.294   2.569
  155HOH     H1  652   1.159   1.368   2.630
  155HOH     H2  653   1.220   1.321   2.500
  156HOH      O  654   3.759   2.839   2.390
  156HOH     H1  655   3.722   2.920   2.426
  156HOH     H2  656   3.838   2.868   2.344
  157HOH      O  657   3.601   2.210   3.909
  157HOH     H1  658   3.557   2.252   3.835
  157HOH     H2  659   3.627   2.283   3.965
  158HOH      O  660   0.635   3.892   1.034
  158HOH     H1  661   0.580   3.941   0.972
  158HOH     H2  662   0.724   3.905   1.002
  159HOH      O  663   2.135   1.148   0.043
  159HOH     H1  664   2.054   1.146   0.094
  159HOH     H2  665   2.202   1.116   0.103
  160HOH      O  666   1.395   3.597   0.051
  160HOH     H1  667   1.416   3.505   0.067
  160HOH     H2  668   1.357   3.598  -0.036
  161HOH      O  669   0.997   2.279   1.834
  161HOH     H1  670   1.055   2.204   1.845
  161HOH     H2  671   1.045   2.352   1.875
  162HOH      O  672   1.557   1.795   1.539
  162HOH     H1  673   1.641   1.831   1.509
  162HOH     H2  674   1.554   1.814   1.632
  163HOH      O  675   0.436   2.955   0.641
  163HOH     H1  676   0.480   2.934   0.723
  163HOH     H2  677   0.347   2.978   0.666
  164HOH      O  678   3.034   0.120   2.766
  164HOH     H1  679   3.099   0.051   2.754
  164HOH     H2  680   3.047   0.149   2.856
  165HOH      O  681   3.719   3.598   1.204
  165HOH     H1  682   3.769   3.657   1.261
  165HOH     H2  683   3.630   3.602   1.239
  166HOH      O  684   1.793   3.177   0.273
  166HOH     H1  685   1.765   3.268   0.264
  166HOH     H2  686   1.842   3.159   0.194
  167HOH      O  687   3.157   0.584   3.117
  167HOH     H1  688   3.104   0.620   3.047
  167HOH     H2  689   3.192   0.660   3.163
  168HOH      O  690   2.625   1.007   4.022
  168HOH     H1  691   2.672   0.961   3.952
  168HOH     H2  692   2.676   1.087   4.036
  169HOH      O  693   0.759   2.340   0.193
  169HOH     H1  694   0.745   2.366   0.102
  169HOH     H2  695   0.762   2.422   0.241
  170HOH      O  696   3.681   0.563   1.578
  170HOH     H1  697   3.695   0.600   1.492
  170HOH     H2  698   3.602   0.509   1.569
  171HOH      O  699   0.443   1.394   3.206
  171HOH     H1  700   0.442   1.489   3.220
  171HOH     H2  701   0.526   1.378   3.162
  172HOH      O  702   1.584   0.433   0.250
  172HOH     H1  703   1.579   0.489   0.172
  172HOH     H2  704   1.593   0.344   0.215
  173HOH      O  705   3.955   3.825   0.336
  173HOH     H1  706   3.918   3.738   0.349
  173HOH     H2  707   3.884   3.876   0.299
  174HOH      O  708   0.411   3.532   1.879
  174HOH     H1  709   0.384   3.587   1.806
  174HOH     H2  710   0.341   3.467   1.888
  175HOH      O  711   3.428   1.694   2.562
  175HOH     H1  712   3.455   1.611   2.524
  175HOH     H2  713   3.461   1.760   2.501
  176HOH      O  714   1.393   3.886   1.075
  176HOH     H1  715   1.461   3.953   1.074
  176HOH     H2  716   1.430   3.813   1.026
  177HOH      O  717   1.953   2.499   3.004
  177HOH     H1  718   1.949   2.580   3.054
  177HOH     H2  719   2.036   2.505   2.957
  178HOH      O  720   3.408   2.719   3.176
  178HOH     H1  721   3.433   2.812   3.179
  178HOH     H2  722   3.331   2.713   3.233
  179HOH      O  723   1.984   1.431   1.340
  179HOH     H1  724   1.957   1.466   1.425
  179HOH     H2  725   2.007   1.340   1.358
  180HOH      O  726   0.603   1.005   0.358
  180HOH     H1  727   0.687   1.029   0.320
  180HOH     H2  728   0.558   0.955   0.289
  181HOH      O  729   1.295   1.610   3.775
  181HOH     H1  730   1.252   1.547   3.833
  181HOH     H2  731   1.242   1.689   3.782
  182HOH      O  732   0.139   1.741   1.015
  182HOH     H1  733   0.123   1.664   0.960
  182HOH     H2  734   0.052   1.766   1.047
  183HOH      O  735   1.146   0.203   1.650
  183HOH     H1  736   1.119   0.221   1.740
  183HOH     H2  737   1.076   0.147   1.615
  184HOH      O  738   0.939   1.669   1.844
  184HOH     H1  739   0.890   1.749   1.824
  184HOH     H2  740   0.967   1.680   1.934
  185HOH      O  741   3.684   0.818   1.739
  185HOH     H1  742   3.765   0.776   1.769
  185HOH     H2  743   3.632   0.747   1.702
  186HOH      O  744   0.365   1.575   2.316
  186HOH     H1  745   0.315   1.493   2.320
  186HOH     H2  746   0.341   1.621   2.397
  187HOH      O  747   3.447   1.198   0.734
  187HOH     H1  748   3.540   1.190   0.711
  187HOH     H2  749   3.418   1.107   0.746
  188HOH      O  750   3.104   0.959   0.460
  188HOH     H1  751   3.115   0.974   0.554
  188HOH     H2  752   3.102   0.864   0.450
  189HOH      O  753   3.218   1.037   3.514
  189HOH     H1  754   3.262   0.952   3.505
  189HOH     H2  755   3.251   1.089   3.441
  190HOH      O  756   0.274   0.472   3.406
  190HOH     H1  757   0.269   0.467   3.501
  190HOH     H2  758   0.205   0.534   3.382
  191HOH      O  759   2.780   2.705   0.489
  191HOH     H1  760   2.700   2.755   0.473
  191HOH     H2  761   2.763   2.657   0.570
  192HOH      O  762   3.328   0.354   3.559
  192HOH     H1  763   3.360   0.273   3.518
  192HOH     H2  764   3.235   0.337   3.575
  193HOH      O  765   3.557   3.250   0.758
  193HOH     H1  766   3.469   3.287   0.761
  193HOH     H2  767   3.556   3.192   0.681
  194HOH      O  768   2.927   1.184   3.743
  194HOH     H1  769   3.006   1.234   3.764
  194HOH     H2  770   2.952   1.093   3.760
  195HOH      O  771   1.691   3.994   0.039
  195HOH     H1  772   1.655   3.963   0.123
  195HOH     H2  773   1.623   3.973  -0.025
  196HOH      O  774   0.998   2.275   3.429
  196HOH     H1  775   1.068   2.283   3.365
  196HOH     H2  776   0.921   2.312   3.385
  197HOH      O  777   1.725   2.713   3.120
  197HOH     H1  778   1.774   2.723   3.038
  197HOH     H2  779   1.635   2.699   3.093
  198HOH      O  780   0.782   2.417   2.136
  198HOH     H1  781   0.811   2.506   2.156
  198HOH     H2  782   0.697   2.409   2.180
  199HOH      O  783   3.212   3.846   3.725
  199HOH     H1  784   3.178   3.924   3.680
  199HOH     H2  785   3.217   3.780   3.656
  200HOH      O  786   1.715   3.719   0.379
  200HOH     H1  787   1.750   3.662   0.448
  200HOH     H2  788   1.625   3.690   0.367
  201HOH      O  789   1.276   3.792   2.236
  201HOH     H1  790   1.308   3.716   2.188
  201HOH     H2  791   1.275   3.763   2.328
  202HOH      O  792   1.704   3.433   0.205
  202HOH     H1  793   1.613   3.402   0.205
  202HOH     H2  794   1.698   3.524   0.176
  203HOH      O  795   1.817   3.501   0.859
  203HOH     H1  796   1.759   3.425   0.867
  203HOH     H2  797   1.786   3.562   0.927
  204HOH      O  798   2.042   2.997   3.886
  204HOH     H1  799   2.091   2.927   3.844
  204HOH     H2  800   2.015   3.055   3.815
  205HOH      O  801   0.272   1.702   2.560
  205HOH     H1  802   0.249   1.771   2.623
  205HOH     H2  803   0.226   1.624   2.593
  206HOH      O  804   1.033   1.025   1.197
  206HOH     H1  805   0.970   0.953   1.185
  206HOH     H2  806   1.116   0.981   1.216
  207HOH      O  807   0.165   3.684   2.884
  207HOH     H1  808   0.244   3.726   2.919
  207HOH     H2  809   0.198   3.607   2.837
  208HOH      O  810   0.004   1.747   0.554
  208HOH     H1  811   0.095   1.778   0.547
  208HOH     H2  812   0.007   1.680   0.622
  209HOH      O  813   3.696   0.351   2.259
  209HOH     H1  814   3.787   0.349   2.290
  209HOH     H2  815   3.685   0.269   2.212
  210HOH      O  816   0.192   3.370   1.178
  210HOH     H1  817   0.142   3.384   1.098
  210HOH     H2  818   0.157   3.434   1.240
  211HOH      O  819   3.522   0.087   0.979
  211HOH     H1  820   3.487   0.078   1.068
  211HOH     H2  821   3.462   0.036   0.925
  212HOH      O  822   2.041   0.166   0.127
  212HOH     H1  823   2.031   0.117   0.045
  212HOH     H2  824   2.006   0.253   0.108
  213HOH      O  825   3.911   0.459   1.330
  213HOH     H1  826   3.953   0.382   1.293
  213HOH     H2  827   3.956   0.474   1.413
  214HOH      O  828   3.017   1.388   1.522
  214HOH     H1  829   3.071   1.348   1.454
  214HOH     H2  830   2.975   1.314   1.567
  215HOH      O  831   2.583   3.346   0.585
  215HOH     H1  832   2.561   3.371   0.495
  215HOH     H2  833   2.646   3.275   0.576
  216HOH      O  834   0.500   3.737   1.677
  216HOH     H1  835   0.509   3.775   1.590
  216HOH     H2  836   0.586   3.748   1.717
  217HOH      O  837   3.427   1.485   3.210
  217HOH     H1  838   3.452   1.463   3.300
  217HOH     H2  839   3.332   1.490   3.212
  218HOH      O  840   2.333   1.087   0.869
  218HOH     H1  841   2.282   1.007   0.854
  218HOH     H2  842   2.424   1.060   0.855
  219HOH      O  843   1.666   0.172   3.672
  219HOH     H1  844   1.713   0.089   3.675
  219HOH     H2  845   1.612   0.166   3.593
  220HOH      O  846   0.045   3.935   3.410
  220HOH     H1  847   0.107   3.862   3.403
  220HOH     H2  848   0.024   3.957   3.319
  221HOH      O  849   0.580   0.778   0.203
  221HOH     H1  850   0.649   0.758   0.139
  221HOH     H2  851   0.615   0.748   0.287
  222HOH      O  852   1.923   0.154   1.494
  222HOH     H1  853   1.877   0.145   1.577
  222HOH     H2  854   1.867   0.212   1.442
  223HOH      O  855   3.499   1.449   0.589
  223HOH     H1  856   3.416   1.401   0.579
  223HOH     H2  857   3.501   1.475   0.681
  224HOH      O  858   0.292   2.530   3.093
  224HOH     H1  859   0.242   2.612   3.091
  224HOH     H2  860   0.366   2.546   3.035
  225HOH      O  861   3.975   0.227   1.161
  225HOH     H1  862   3.960   0.265   1.075
  225HOH     H2  863   3.924   0.146   1.161
  226HOH      O  864   0.191   1.426   3.336
  226HOH     H1  865   0.165   1.409   3.245
  226HOH     H2  866   0.286   1.420   3.335
  227HOH      O  867   2.994   1.605   1.106
  227HOH     H1  868   2.902   1.634   1.107
  227HOH     H2  869   2.988   1.509   1.111
  228HOH      O  870   0.002   0.370   3.995
  228HOH     H1  871   0.051   0.349   3.916
  228HOH     H2  872  -0.012   0.465   3.990
  229HOH      O  873   2.950   0.361   0.909
  229HOH     H1  874   2.961   0.314   0.991
  229HOH     H2  875   2.877   0.421   0.925
  230HOH      O  876   1.332   0.076   3.317
  230HOH     H1  877   1.384   0.075   3.236
  230HOH     H2  878   1.257   0.132   3.297
  231HOH      O  879   3.039   3.306   1.039
  231HOH     H1  880   3.090   3.268   0.967
  231HOH     H2  881   3.005   3.388   1.002
  232HOH      O  882   1.340   0.344   3.620
  232HOH     H1  883   1.398   0.291   3.566
  232HOH     H2  884   1.264   0.289   3.635
  233HOH      O  885   0.775   2.085   2.095
  233HOH     H1  886   0.711   2.087   2.166
  233HOH     H2  887   0.783   2.177   2.069
  234HOH      O  888   0.400   3.420   0.295
  234HOH     H1  889   0.460   3.486   0.329
  234HOH     H2  890   0.313   3.458   0.307
  235HOH      O  891   2.423   2.041   2.521
  235HOH     H1  892   2.405   2.113   2.582
  235HOH     H2  893   2.518   2.030   2.525
  236HOH      O  894   1.088   1.260   1.674
  236HOH     H1  895   1.068   1.351   1.655
  236HOH     H2  896   1.177   1.262   1.710
  237HOH      O  897   1.500   2.018   0.494
  237HOH     H1  898   1.538   2.030   0.407
  237HOH     H2  899   1.457   1.932   0.490
  238HOH      O  900   3.069   2.369   3.829
  238HOH     H1  901   2.988   2.417   3.847
  238HOH     H2  902   3.116   2.369   3.912
  239HOH      O  903   0.627   0.304   2.421
  239HOH     H1  904   0.587   0.345   2.344
  239HOH     H2  905   0.565   0.236   2.447
  240HOH      O  906   1.909   3.434   2.800
  240HOH     H1  907   1.887   3.429   2.707
  240HOH     H2  908   1.917   3.343   2.827
  241HOH      O  909   1.718   0.313   3.098
  241HOH     H1  910   1.765   0.391   3.067
  241HOH     H2  911   1.753   0.298   3.186
  242HOH      O  912   0.834   3.538   0.430
  242HOH     H1  913   0.746   3.556   0.397
  242HOH     H2  914   0.829   3.556   0.524
  243HOH      O  915   0.584   2.161   1.902
  243HOH     H1  916   0.656   2.100   1.892
  243HOH     H2  917   0.582   2.181   1.996
  244HOH      O  918   3.841   2.066   2.787
  244HOH     H1  919   3.833   1.976   2.756
  244HOH     H2  920   3.789   2.118   2.725
  245HOH      O  921   1.651   1.290   1.849
  245HOH     H1  922   1.593   1.347   1.899
  245HOH     H2  923   1.714   1.350   1.809
  246HOH      O  924   1.244   0.038   0.194
  246HOH     H1  925   1.309   0.089   0.146
  246HOH     H2  926   1.222   0.092   0.270
  247HOH      O  927   0.442   3.143   1.490
  247HOH     H1  928   0.534   3.169   1.485
  247HOH     H2  929   0.398   3.219   1.530
  248HOH      O  930   3.099   1.907   0.277
  248HOH     H1  931   3.164   1.909   0.347
  248HOH     H2  932   3.124   1.979   0.219
  249HOH      O  933   0.809   3.491   2.418
  249HOH     H1  934   0.741   3.449   2.365
  249HOH     H2  935   0.764   3.560   2.466
  250HOH      O  936   3.230   3.340   2.107
  250HOH     H1  937   3.311   3.290   2.113
  250HOH     H2  938   3.163   3.283   2.146
  251HOH      O  939   0.385   0.652   1.809
  251HOH     H1  940   0.319   0.721   1.823
  251HOH     H2  941   0.469   0.699   1.809
  252HOH      O  942   3.675   0.069   3.139
  252HOH     H1  943   3.737   0.070   3.212
  252HOH     H2  944   3.627   0.152   3.148
  253HOH      O  945   1.119   3.049   1.576
  253HOH     H1  946   1.086   2.986   1.640
  253HOH     H2  947   1.120   3.133   1.623
  254HOH      O  948   2.665   3.557   1.143
  254HOH     H1  949   2.677   3.470   1.104
  254HOH     H2  950   2.719   3.554   1.222
  255HOH      O  951   3.453   1.338   1.353
  255HOH     H1  952   3.445   1.280   1.277
  255HOH     H2  953   3.502   1.414   1.320
  256HOH      O  954   3.478   1.598   0.844
  256HOH     H1  955   3.514   1.615   0.931
  256HOH     H2  956   3.479   1.683   0.800
  257HOH      O  957   3.663   1.046   1.067
  257HOH     H1  958   3.700   1.059   1.154
  257HOH     H2  959   3.713   1.104   1.010
  258HOH      O  960   0.541   1.228   3.654
  258HOH     H1  961   0.539   1.323   3.648
  258HOH     H2  962   0.520   1.209   3.745
  259HOH      O  963   1.768   2.558   1.075
  259HOH     H1  964   1.842   2.497   1.067
  259HOH     H2  965   1.776   2.593   1.164
  260HOH      O  966   1.170   1.672   0.085
  260HOH     H1  967   1.214   1.655   0.168
  260HOH     H2  968   1.194   1.762   0.063
  261HOH      O  969   2.018   1.074   1.594
  261HOH     H1  970   2.034   1.110   1.506
  261HOH     H2  971   1.923   1.068   1.600
  262HOH      O  972   2.982   0.378   2.658
  262HOH     H1  973   3.014   0.300   2.704
  262HOH     H2  974   3.061   0.425   2.632
  263HOH      O  975   1.518   3.244   1.716
  263HOH     H1  976   1.582   3.178   1.690
  263HOH     H2  977   1.501   3.293   1.636
  264HOH      O  978   0.123   1.712   3.162
  264HOH     H1  979   0.093   1.788   3.211
  264HOH     H2  980   0.206   1.688   3.203
  265HOH      O  981   3.501   0.070   0.151
  265HOH     H1  982   3.484   0.019   0.072
  265HOH     H2  983   3.571   0.023   0.196
  266HOH      O  984   0.516   0.691   0.920
  266HOH     H1  985   0.594   0.638   0.902
  266HOH     H2  986   0.542   0.747   0.993
  267HOH      O  987   0.742   0.371   0.422
  267HOH     H1  988   0.828   0.353   0.461
  267HOH     H2  989   0.699   0.285   0.419
  268HOH      O  990   2.752   2.006   3.283
  268HOH     H1  991   2.803   1.950   3.224
  268HOH     H2  992   2.703   2.064   3.225
  269HOH      O  993   2.102   3.381   2.186
  269HOH     H1  994   2.105   3.347   2.276
  269HOH     H2  995   2.139   3.469   2.193
  270HOH      O  996   2.718   0.644   3.128
  270HOH     H1  997   2.803   0.687   3.140
  270HOH     H2  998   2.738   0.571   3.068
  271HOH      O  999   1.883   2.628   2.306
  271HOH     H1 1000   1.855   2.716   2.331
  271HOH     H2 1001   1.828   2.606   2.231
  272HOH      O 1002   1.166   2.657   2.869
  272HOH     H1 1003   1.188   2.738   2.823
  272HOH     H2 1004   1.094   2.681   2.928
  273HOH      O 1005   2.950   0.182   2.141
  273HOH     H1 1006   2.917   0.132   2.215
  273HOH     H2 1007   2.888   0.163   2.070
  274HOH      O 1008   3.553   1.211   3.359
  274HOH     H1 1009   3.563   1.250   3.446
  274HOH     H2 1010   3.631   1.157   3.347
  275HOH      O 1011   2.701   0.826   0.904
  275HOH     H1 1012   2.713   0.851   0.812
  275HOH     H2 1013   2.607   0.832   0.919
  276HOH      O 1014   1.944   0.698   1.808
  276HOH     H1 1015   1.851   0.688   1.788
  276HOH     H2 1016   1.984   0.721   1.724
  277HOH      O 1017   1.941   3.863   0.255
  277HOH     H1 1018   1.915   3.955   0.253
  277HOH     H2 1019   1.889   3.825   0.326
  278HOH      O 1020   1.896   1.936   0.093
  278HOH     H1 1021   1.857   2.019   0.066
  278HOH     H2 1022   1.824   1.890   0.138
  279HOH      O 1023   2.261   2.936   0.501
  279HOH     H1 1024   2.215   2.852   0.498
  279HOH     H2 1025   2.256   2.964   0.592
  280HOH      O 1026   1.319   0.754   0.546
  280HOH     H1 1027   1.275   0.786   0.467
  280HOH     H2 1028   1.389   0.697   0.513
  281HOH      O 1029   0.910   1.748   0.010
  281HOH     H1 1030   0.988   1.723   0.061
  281HOH     H2 1031   0.837   1.711   0.059
  282HOH      O 1032   0.908   1.413   2.959
  282HOH     H1 1033   0.885   1.349   2.892
  282HOH     H2 1034   0.897   1.498   2.916
  283HOH      O 1035   0.795   1.570   1.022
  283HOH     H1 1036   0.844   1.500   1.065
  283HOH     H2 1037   0.704   1.557   1.050
  284HOH      O 1038   3.106   1.012   3.186
  284HOH     H1 1039   3.142   1.083   3.238
  284HOH     H2 1040   3.175   0.945   3.185
  285HOH      O 1041   1.013   2.286   3.968
  285HOH     H1 1042   0.928   2.245   3.983
  285HOH     H2 1043   0.993   2.373   3.935
  286HOH      O 1044   1.502   3.420   1.491
  286HOH     H1 1045   1.446   3.446   1.418
  286HOH     H2 1046   1.589   3.450   1.466
  287HOH      O 1047   0.247   0.861   1.909
  287HOH     H1 1048   0.209   0.918   1.842
  287HOH     H2 1049   0.172   0.816   1.947
  288HOH      O 1050  -0.006   3.760   0.084
  288HOH     H1 1051   0.047   3.822   0.034
  288HOH     H2 1052   0.001   3.790   0.175
  289HOH      O 1053   1.222   2.090   0.291
  289HOH     H1 1054   1.154   2.125   0.348
  289HOH     H2 1055   1.275   2.166   0.267
  290HOH      O 1056   0.970   1.265   1.293
  290HOH     H1 1057   0.896   1.269   1.354
  290HOH     H2 1058   0.988   1.171   1.284
  291HOH      O 1059   2.274   3.805   0.896
  291HOH     H1 1060   2.318   3.740   0.950
  291HOH     H2 1061   2.193   3.762   0.869
  292HOH      O 1062   3.132   3.578   1.166
  292HOH     H1 1063   3.144   3.606   1.257
  292HOH     H2 1064   3.067   3.508   1.171
  293HOH      O 1065   1.125   3.189   3.912
  293HOH     H1 1066   1.071   3.110   3.909
  293HOH     H2 1067   1.208   3.163   3.872
  294HOH      O 1068   3.661   3.252   2.584
  294HOH     H1 1069   3.617   3.336   2.597
  294HOH     H2 1070   3.738   3.274   2.532
  295HOH      O 1071   0.194   1.363   2.416
  295HOH     H1 1072   0.220   1.306   2.489
  295HOH     H2 1073   0.123   1.416   2.451
  296HOH      O 1074   3.800   2.807   1.822
  296HOH     H1 1075   3.805   2.771   1.734
  296HOH     H2 1076   3.843   2.892   1.817
  297HOH      O 1077   0.203   2.967   0.804
  297HOH     H1 1078   0.112   2.939   0.804
  297HOH     H2 1079   0.240   2.927   0.882
  298HOH      O 1080   3.281   0.908   3.924
  298HOH     H1 1081   3.250   0.896   4.014
  298HOH     H2 1082   3.363   0.957   3.933
  299HOH      O 1083   0.036   0.781   1.321
  299HOH     H1 1084   0.001   0.781   1.410
  299HOH     H2 1085   0.045   0.874   1.299
  300HOH      O 1086   0.091   2.503   0.165
  300HOH     H1 1087   0.129   2.428   0.118
  300HOH     H2 1088   0.015   2.466   0.210
  301HOH      O 1089   3.822   1.795   2.193
  301HOH     H1 1090   3.852   1.799   2.284
  301HOH     H2 1091   3.902   1.782   2.142
  302HOH      O 1092   1.889   0.936   1.075
  302HOH     H1 1093   1.860   1.013   1.026
  302HOH     H2 1094   1.808   0.897   1.108
  303HOH      O 1095   2.641   0.955   2.050
  303HOH     H1 1096   2.677   1.044   2.046
  303HOH     H2 1097   2.719   0.899   2.053
  304HOH      O 1098   1.545   0.535   0.499
  304HOH     H1 1099   1.582   0.623   0.511
  304HOH     H2 1100   1.581   0.506   0.415
  305HOH      O 1101   3.381   0.576   3.369
  305HOH     H1 1102   3.383   0.501   3.429
  305HOH     H2 1103   3.442   0.553   3.299
  306HOH      O 1104   0.008   1.451   1.589
  306HOH     H1 1105  -0.058   1.520   1.596
  306HOH     H2 1106   0.091   1.498   1.585
  307HOH      O 1107   0.804   2.223   1.636
  307HOH     H1 1108   0.858   2.223   1.557
  307HOH     H2 1109   0.866   2.240   1.707
  308HOH      O 1110   4.022   1.216   0.034
  308HOH     H1 1111   4.000   1.187  -0.055
  308HOH     H2 1112   3.963   1.166   0.091
  309HOH      O 1113   3.572   3.321   1.286
  309HOH     H1 1114   3.565   3.349   1.378
  309HOH     H2 1115   3.505   3.253   1.277
  310HOH      O 1116   0.369   0.044   3.557
  310HOH     H1 1117   0.283   0.087   3.555
  310HOH     H2 1118   0.367  -0.014   3.480
  311HOH      O 1119   0.165   3.140   2.355
  311HOH     H1 1120   0.218   3.159   2.433
  311HOH     H2 1121   0.209   3.186   2.284
  312HOH      O 1122   0.374   3.566   1.429
  312HOH     H1 1123   0.429   3.507   1.378
  312HOH     H2 1124   0.342   3.513   1.502
  313HOH      O 1125   1.756   3.028   3.307
  313HOH     H1 1126   1.841   3.044   3.349
  313HOH     H2 1127   1.755   2.933   3.293
  314HOH      O 1128   3.928   3.042   1.310
  314HOH     H1 1129   3.952   3.058   1.219
  314HOH     H2 1130   3.928   2.946   1.318
  315HOH      O 1131   2.284   1.047   2.920
  315HOH     H1 1132   2.377   1.068   2.914
  315HOH     H2 1133   2.251   1.057   2.830
  316HOH      O 1134   3.551   2.005   1.318
  316HOH     H1 1135   3.477   1.991   1.377
  316HOH     H2 1136   3.514   2.001   1.230
  317HOH      O 1137   3.606   0.264   3.527
  317HOH     H1 1138   3.621   0.352   3.492
  317HOH     H2 1139   3.563   0.217   3.455
  318HOH      O 1140   2.498   0.043   3.235
  318HOH     H1 1141   2.561   0.096   3.186
  318HOH     H2 1142   2.542   0.025   3.319
  319HOH      O 1143   0.827   2.739   1.009
  319HOH     H1 1144   0.818   2.835   1.004
  319HOH     H2 1145   0.757   2.706   0.953
  320HOH      O 1146   1.095   2.735   3.920
  320HOH     H1 1147   1.035   2.809   3.914
  320HOH     H2 1148   1.180   2.770   3.891
  321HOH      O 1149   2.697   1.974   3.987
  321HOH     H1 1150   2.739   1.892   4.014
  321HOH     H2 1151   2.726   2.038   4.052
  322HOH      O 1152   0.581   1.325   0.617
  322HOH     H1 1153   0.597   1.408   0.662
  322HOH     H2 1154   0.518   1.279   0.672
  323HOH      O 1155   3.841   1.368   0.827
  323HOH     H1 1156   3.865   1.293   0.772
  323HOH     H2 1157   3.826   1.439   0.764
  324HOH      O 1158   0.145   1.994   2.496
  324HOH     H1 1159   0.139   1.950   2.580
  324HOH     H2 1160   0.183   2.080   2.516
  325HOH      O 1161   0.920   2.990   2.023
  325HOH     H1 1162   0.899   2.995   1.929
  325HOH     H2 1163   0.843   3.026   2.066
  326HOH      O 1164   3.429   2.998   1.506
  326HOH     H1 1165   3.365   3.061   1.540
  326HOH     H2 1166   3.491   2.986   1.577
  327HOH      O 1167   3.483   3.687   3.757
  327HOH     H1 1168   3.489   3.602   3.799
  327HOH     H2 1169   3.409   3.730   3.801
  328HOH      O 1170   0.589   0.839   1.193
  328HOH     H1 1171   0.604   0.931   1.172
  328HOH     H2 1172   0.517   0.840   1.255
  329HOH      O 1173   0.493   3.373   0.041
  329HOH     H1 1174   0.515   3.435  -0.028
  329HOH     H2 1175   0.459   3.426   0.112
  330HOH      O 1176   2.542   0.462   2.761
  330HOH     H1 1177   2.486   0.460   2.683
  330HOH     H2 1178   2.511   0.389   2.814
  331HOH      O 1179   2.943   2.894   0.767
  331HOH     H1 1180   2.893   2.866   0.690
  331HOH     H2 1181   3.012   2.950   0.731
  332HOH      O 1182   3.545   3.333   1.560
  332HOH     H1 1183   3.579   3.372   1.640
  332HOH     H2 1184   3.583   3.245   1.558
  333HOH      O 1185   4.020   3.168   3.327
  333HOH     H1 1186   4.018   3.127   3.240
  333HOH     H2 1187   3.971   3.249   3.316
  334HOH      O 1188   2.884   1.375   3.417
  334HOH     H1 1189   2.830   1.303   3.384
  334HOH     H2 1190   2.823   1.447   3.430
  335HOH      O 1191   2.806   2.369   1.370
  335HOH     H1 1192   2.751   2.426   1.424
  335HOH     H2 1193   2.771   2.281   1.384
  336HOH      O 1194   3.570   1.683   2.837
  336HOH     H1 1195   3.543   1.676   2.745
  336HOH     H2 1196   3.532   1.766   2.867
  337HOH      O 1197   1.461   1.944   2.524
  337HOH     H1 1198   1.425   1.855   2.522
  337HOH     H2 1199   1.555   1.932   2.513
  338HOH      O 1200   2.109   2.166   1.300
  338HOH     H1 1201   2.073   2.204   1.380
  338HOH     H2 1202   2.156   2.088   1.329
  339HOH      O 1203   0.732   1.801   2.341
  339HOH     H1 1204   0.802   1.754   2.387
  339HOH     H2 1205   0.657   1.797   2.400
  340HOH      O 1206   3.249   3.417   1.830
  340HOH     H1 1207   3.161   3.385   1.809
  340HOH     H2 1208   3.259   3.400   1.923
  341HOH      O 1209   0.048   1.480   3.055
  341HOH     H1 1210   0.111   1.486   2.983
  341HOH     H2 1211   0.044   1.569   3.090
  342HOH      O 1212   1.754   3.544   3.021
  342HOH     H1 1213   1.711   3.613   2.969
  342HOH     H2 1214   1.835   3.526   2.974
  343HOH      O 1215   1.962   3.999   0.866
  343HOH     H1 1216   2.040   4.018   0.917
  343HOH     H2 1217   1.982   3.915   0.823
  344HOH      O 1218   1.576   1.181   2.767
  344HOH     H1 1219   1.666   1.163   2.740
  344HOH     H2 1220   1.522   1.139   2.701
  345HOH      O 1221   3.196   0.147   0.990
  345HOH     H1 1222   3.191   0.097   0.908
  345HOH     H2 1223   3.229   0.233   0.963
  346HOH      O 1224   0.387   3.456   2.333
  346HOH     H1 1225   0.412   3.532   2.280
  346HOH     H2 1226   0.368   3.387   2.270
  347HOH      O 1227   1.531   1.537   3.003
  347HOH     H1 1228   1.480   1.590   3.063
  347HOH     H2 1229   1.537   1.589   2.923
  348HOH      O 1230   1.761   1.153   3.906
  348HOH     H1 1231   1.847   1.173   3.868
  348HOH     H2 1232   1.703   1.222   3.872
  349HOH      O 1233   1.400   1.762   2.065
  349HOH     H1 1234   1.306   1.748   2.064
  349HOH     H2 1235   1.424   1.763   2.158
  350HOH      O 1236   2.637   1.526   1.321
  350HOH     H1 1237   2.680   1.445   1.347
  350HOH     H2 1238   2.544   1.504   1.319
  351HOH      O 1239   3.001   2.230   2.022
  351HOH     H1 1240   2.953   2.294   2.076
  351HOH     H2 1241   3.059   2.284   1.968
  352HOH      O 1242   1.151   2.353   3.658
  352HOH     H1 1243   1.105   2.404   3.725
  352HOH     H2 1244   1.088   2.344   3.587
  353HOH      O 1245   3.255   1.816   3.037
  353HOH     H1 1246   3.342   1.798   3.001
  353HOH     H2 1247   3.229   1.899   2.998
  354HOH      O 1248   3.134   2.373   1.238
  354HOH     H1 1249   3.062   2.311   1.226
  354HOH     H2 1250   3.091   2.457   1.255
  355HOH      O 1251   0.167   3.971   3.977
  355HOH     H1 1252   0.244   4.021   3.949
  355HOH     H2 1253   0.094   4.011   3.930
  356HOH      O 1254   3.861   2.360   2.462
  356HOH     H1 1255   3.879   2.449   2.494
  356HOH     H2 1256   3.789   2.329   2.517
  357HOH      O 1257   3.010   0.140   1.209
  357HOH     H1 1258   3.078   0.131   1.142
  357HOH     H2 1259   2.961   0.058   1.203
  358HOH      O 1260   1.773   0.566   2.896
  358HOH     H1 1261   1.864   0.565   2.865
  358HOH     H2 1262   1.736   0.647   2.861
  359HOH      O 1263   1.023   2.379   2.763
  359HOH     H1 1264   1.016   2.420   2.676
  359HOH     H2 1265   0.932   2.356   2.785
  360HOH      O 1266   1.052   1.205   3.073
  360HOH     H1 1267   0.987   1.135   3.075
  360HOH     H2 1268   1.010   1.275   3.023
  361HOH      O 1269   3.783   2.430   1.686
  361HOH     H1 1270   3.859   2.382   1.717
  361HOH     H2 1271   3.716   2.414   1.751
  362HOH      O 1272   1.764   2.860   2.429
  362HOH     H1 1273   1.801   2.938   2.387
  362HOH     H2 1274   1.674   2.885   2.451
  363HOH      O 1275   1.995   0.194   1.038
  363HOH     H1 1276   1.973   0.134   0.967
  363HOH     H2 1277   2.088   0.179   1.055
  364HOH      O 1278   3.322   1.516   3.504
  364HOH     H1 1279   3.228   1.532   3.497
  364HOH     H2 1280   3.355   1.586   3.559
  365HOH      O 1281   3.625   3.449   2.957
  365HOH     H1 1282   3.554   3.467   2.896
  365HOH     H2 1283   3.603   3.500   3.035
  366HOH      O 1284   3.024   3.500   3.481
  366HOH     H1 1285   3.116   3.525   3.490
  366HOH     H2 1286   2.975   3.575   3.516
  367HOH      O 1287   2.889   0.125   2.468
  367HOH     H1 1288   2.886   0.068   2.545
  367HOH     H2 1289   2.980   0.121   2.438
  368HOH      O 1290   1.649   0.390   2.505
  368HOH     H1 1291   1.733   0.394   2.460
  368HOH     H2 1292   1.608   0.475   2.485
  369HOH      O 1293   2.849   1.737   2.691
  369HOH     H1 1294   2.804   1.673   2.635
  369HOH     H2 1295   2.925   1.690   2.725
  370HOH      O 1296   1.872   1.565   2.979
  370HOH     H1 1297   1.777   1.565   2.991
  370HOH     H2 1298   1.891   1.651   2.941
  371HOH      O 1299   3.740   3.081   1.509
  371HOH     H1 1300   3.804   3.040   1.566
  371HOH     H2 1301   3.773   3.065   1.420
  372HOH      O 1302   3.287   0.419   1.322
  372HOH     H1 1303   3.235   0.498   1.333
  372HOH     H2 1304   3.345   0.438   1.248
  373HOH      O 1305   3.899   1.381   1.323
  373HOH     H1 1306   3.816   1.428   1.332
  373HOH     H2 1307   3.953   1.412   1.396
  374HOH      O 1308   0.554   0.650   2.508
  374HOH     H1 1309   0.498   0.579   2.542
  374HOH     H2 1310   0.631   0.649   2.565
  375HOH      O 1311   3.989   2.937   2.299
  375HOH     H1 1312   4.048   2.917   2.371
  375HOH     H2 1313   4.015   3.025   2.270
  376HOH      O 1314   0.553   0.890   1.697
  376HOH     H1 1315   0.598   0.942   1.631
  376HOH     H2 1316   0.496   0.952   1.742
  377HOH      O 1317   0.460   3.985   3.814
  377HOH     H1 1318   0.457   3.890   3.827
  377HOH     H2 1319   0.430   3.998   3.724
  378HOH      O 1320   0.518   1.813   0.818
  378HOH     H1 1321   0.453   1.862   0.767
  378HOH     H2 1322   0.558   1.879   0.874
  379HOH      O 1323   0.379   0.015   0.131
  379HOH     H1 1324   0.325   0.060   0.196
  379HOH     H2 1325   0.320  -0.044   0.085
  380HOH      O 1326   2.807   0.447   2.212
  380HOH     H1 1327   2.900   0.424   2.219
  380HOH     H2 1328   2.771   0.428   2.299
  381HOH      O 1329   0.352   2.664   3.938
  381HOH     H1 1330   0.383   2.664   4.028
  381HOH     H2 1331   0.399   2.592   3.896
  382HOH      O 1332   2.235   2.264   0.198
  382HOH     H1 1333   2.176   2.256   0.273
  382HOH     H2 1334   2.176   2.270   0.122
  383HOH      O 1335   1.473   3.795   2.641
  383HOH     H1 1336   1.527   3.835   2.573
  383HOH     H2 1337   1.391   3.774   2.597
  384HOH      O 1338   2.399   1.590   2.947
  384HOH     H1 1339   2.465   1.607   3.014
  384HOH     H2 1340   2.365   1.676   2.924
  385HOH      O 1341   1.084   1.668   1.407
  385HOH     H1 1342   1.125   1.754   1.401
  385HOH     H2 1343   1.098   1.630   1.320
  386HOH      O 1344   0.978   1.463   0.832
  386HOH     H1 1345   0.961   1.531   0.897
  386HOH     H2 1346   0.991   1.384   0.884
  387HOH      O 1347   2.963   2.576   1.278
  387HOH     H1 1348   2.899   2.511   1.307
  387HOH     H2 1349   2.961   2.644   1.345
  388HOH      O 1350   0.950   0.427   3.939
  388HOH     H1 1351   1.033   0.386   3.962
  388HOH     H2 1352   0.889   0.402   4.009
  389HOH      O 1353   3.196   1.848   2.564
  389HOH     H1 1354   3.268   1.786   2.553
  389HOH     H2 1355   3.135   1.826   2.494
  390HOH      O 1356   2.973   1.540   0.236
  390HOH     H1 1357   2.962   1.627   0.273
  390HOH     H2 1358   2.884   1.512   0.214
  391HOH      O 1359   0.844   1.217   3.634
  391HOH     H1 1360   0.924   1.268   3.640
  391HOH     H2 1361   0.776   1.281   3.613
  392HOH      O 1362   3.324   2.375   2.440
  392HOH     H1 1363   3.302   2.426   2.518
  392HOH     H2 1364   3.325   2.439   2.369
  393HOH      O 1365   0.609   2.570   3.512
  393HOH     H1 1366   0.605   2.665   3.513
  393HOH     H2 1367   0.553   2.544   3.439
  394HOH      O 1368   1.380   0.012   1.542
  394HOH     H1 1369   1.351  -0.071   1.578
  394HOH     H2 1370   1.341   0.078   1.599
  395HOH      O 1371   0.595   0.537   3.376
  395HOH     H1 1372   0.504   0.512   3.394
  395HOH     H2 1373   0.641   0.513   3.456
  396HOH      O 1374   2.784   0.571   0.960
  396HOH     H1 1375   2.764   0.662   0.936
  396HOH     H2 1376   2.732   0.556   1.039
  397HOH      O 1377   1.952   1.595   1.147
  397HOH     H1 1378   1.950   1.520   1.208
  397HOH     H2 1379   1.894   1.659   1.187
  398HOH      O 1380   3.716   2.318   3.196
  398HOH     H1 1381   3.811   2.324   3.187
  398HOH     H2 1382   3.685   2.408   3.184
  399HOH      O 1383   0.108   0.652   3.736
  399HOH     H1 1384   0.182   0.709   3.715
  399HOH     H2 1385   0.146   0.564   3.735
  400HOH      O 1386   0.864   0.826   1.154
  400HOH     H1 1387   0.769   0.821   1.168
  400HOH     H2 1388   0.873   0.834   1.059
  401HOH      O 1389   2.095   2.795   1.293
  401HOH     H1 1390   2.068   2.872   1.343
  401HOH     H2 1391   2.015   2.744   1.283
  402HOH      O 1392   0.592   0.529   3.931
  402HOH     H1 1393   0.682   0.558   3.945
  402HOH     H2 1394   0.595   0.434   3.945
  403HOH      O 1395   3.515   2.679   0.370
  403HOH     H1 1396   3.542   2.736   0.297
  403HOH     H2 1397   3.420   2.689   0.374
  404HOH      O 1398   3.943   0.463   3.600
  404HOH     H1 1399   4.013   0.522   3.572
  404HOH     H2 1400   3.887   0.516   3.656
  405HOH      O 1401   1.272   0.872   1.217
  405HOH     H1 1402   1.274   0.838   1.128
  405HOH     H2 1403   1.240   0.799   1.270
  406HOH      O 1404   2.211   1.378   2.974
  406HOH     H1 1405   2.225   1.315   2.903
  406HOH     H2 1406   2.279   1.444   2.961
  407HOH      O 1407   1.237   0.596   3.773
  407HOH     H1 1408   1.257   0.559   3.686
  407HOH     H2 1409   1.317   0.642   3.798
  408HOH      O 1410   0.294   0.873   3.834
  408HOH     H1 1411   0.306   0.783   3.865
  408HOH     H2 1412   0.235   0.913   3.897
  409HOH      O 1413   2.076   3.063   2.121
  409HOH     H1 1414   2.167   3.092   2.124
  409HOH     H2 1415   2.082   2.968   2.109
  410HOH      O 1416   2.499   0.690   3.921
  410HOH     H1 1417   2.419   0.730   3.885
  410HOH     H2 1418   2.569   0.722   3.864
  411HOH      O 1419   1.054   3.270   2.282
  411HOH     H1 1420   1.110   3.272   2.204
  411HOH     H2 1421   1.059   3.358   2.318
  412HOH      O 1422   3.056   0.466   1.840
  412HOH     H1 1423   3.099   0.483   1.924
  412HOH     H2 1424   3.047   0.553   1.800
  413HOH      O 1425   0.930   3.434   3.930
  413HOH     H1 1426   1.018   3.398   3.915
  413HOH     H2 1427   0.878   3.358   3.957
  414HOH      O 1428   0.691   3.409   2.953
  414HOH     H1 1429   0.629   3.407   3.026
  414HOH     H2 1430   0.777   3.405   2.994
  415HOH      O 1431   0.748   2.559   0.339
  415HOH     H1 1432   0.781   2.642   0.304
  415HOH     H2 1433   0.683   2.585   0.404
  416HOH      O 1434   1.682   2.115   0.858
  416HOH     H1 1435   1.595   2.154   0.864
  416HOH     H2 1436   1.733   2.177   0.805
  417HOH      O 1437   0.540   1.310   0.348
  417HOH     H1 1438   0.626   1.298   0.308
  417HOH     H2 1439   0.556   1.300   0.442
  418HOH      O 1440   3.523   2.167   2.392
  418HOH     H1 1441   3.590   2.193   2.456
  418HOH     H2 1442   3.447   2.221   2.415
  419HOH      O 1443   0.140   4.042   0.974
  419HOH     H1 1444   0.087   3.962   0.970
  419HOH     H2 1445   0.182   4.038   1.060
  420HOH      O 1446   3.980   2.893   2.033
  420HOH     H1 1447   3.980   2.899   2.129
  420HOH     H2 1448   3.900   2.847   2.012
  421HOH      O 1449   2.557   2.794   3.621
  421HOH     H1 1450   2.549   2.881   3.583
  421HOH     H2 1451   2.490   2.742   3.577
  422HOH      O 1452   0.031   3.438   3.939
  422HOH     H1 1453   0.115   3.411   3.903
  422HOH     H2 1454  -0.025   3.361   3.928
  423HOH      O 1455   3.776   2.982   0.132
  423HOH     H1 1456   3.695   2.980   0.184
  423HOH     H2 1457   3.747   3.005   0.044
  424HOH      O 1458   0.862   3.670   3.812
  424HOH     H1 1459   0.799   3.697   3.878
  424HOH     H2 1460   0.894   3.585   3.844
  425HOH      O 1461   4.020   1.296   1.828
  425HOH     H1 1462   3.966   1.228   1.786
  425HOH     H2 1463   4.020   1.368   1.765
  426HOH      O 1464   0.075   3.419   0.932
  426HOH     H1 1465  -0.009   3.427   0.976
  426HOH     H2 1466   0.054   3.375   0.849
  427HOH      O 1467   0.147   2.719   1.944
  427HOH     H1 1468   0.079   2.784   1.958
  427HOH     H2 1469   0.226   2.770   1.924
  428HOH      O 1470   1.735   1.796   2.594
  428HOH     H1 1471   1.781   1.732   2.541
  428HOH     H2 1472   1.804   1.847   2.636
  429HOH      O 1473   2.048   0.582   0.986
  429HOH     H1 1474   1.988   0.651   0.957
  429HOH     H2 1475   2.073   0.537   0.905
  430HOH      O 1476   3.776   0.542   3.810
  430HOH     H1 1477   3.687   0.521   3.782
  430HOH     H2 1478   3.765   0.584   3.895
  431HOH      O 1479   0.778   0.633   2.662
  431HOH     H1 1480   0.794   0.727   2.651
  431HOH     H2 1481   0.855   0.592   2.622
  432HOH      O 1482   0.768   0.427   0.159
  432HOH     H1 1483   0.767   0.427   0.254
  432HOH     H2 1484   0.706   0.358   0.135
  433HOH      O 1485   0.857   3.680   3.029
  433HOH     H1 1486   0.846   3.633   3.112
  433HOH     H2 1487   0.940   3.727   3.039
  434HOH      O 1488   0.030   3.762   0.930
  434HOH     H1 1489   0.040   3.747   1.024
  434HOH     H2 1490  -0.055   3.722   0.909
  435HOH      O 1491   1.780   0.289   2.109
  435HOH     H1 1492   1.874   0.270   2.109
  435HOH     H2 1493   1.775   0.384   2.119
  436HOH      O 1494   0.904   0.228   2.453
  436HOH     H1 1495   0.854   0.181   2.519
  436HOH     H2 1496   0.855   0.308   2.437
  437HOH      O 1497   2.043   0.355   2.082
  437HOH     H1 1498   2.102   0.312   2.144
  437HOH     H2 1499   2.031   0.443   2.118
  438HOH      O 1500   3.892   3.325   2.444
  438HOH     H1 1501   3.984   3.327   2.418
  438HOH     H2 1502   3.845   3.360   2.368
  439HOH      O 1503   3.120   0.204   0.065
  439HOH     H1 1504   3.087   0.173  -0.019
  439HOH     H2 1505   3.209   0.234   0.046
  440HOH      O 1506   3.440   0.483   2.443
  440HOH     H1 1507   3.425   0.435   2.525
  440HOH     H2 1508   3.402   0.427   2.376
  441HOH      O 1509   0.964   2.097   1.196
  441HOH     H1 1510   0.952   2.131   1.107
  441HOH     H2 1511   1.052   2.058   1.195
  442HOH      O 1512   3.113   0.960   2.692
  442HOH     H1 1513   3.134   1.014   2.616
  442HOH     H2 1514   3.076   0.880   2.656
  443HOH      O 1515   2.054   2.401   2.646
  443HOH     H1 1516   2.053   2.413   2.551
  443HOH     H2 1517   2.078   2.486   2.681
  444HOH      O 1518   0.081   3.242   1.503
  444HOH     H1 1519  -0.004   3.285   1.515
  444HOH     H2 1520   0.061   3.165   1.450
  445HOH      O 1521   2.606   1.605   3.146
  445HOH     H1 1522   2.669   1.649   3.088
  445HOH     H2 1523   2.660   1.574   3.219
  446HOH      O 1524   3.056   3.291   0.688
  446HOH     H1 1525   3.018   3.378   0.678
  446HOH     H2 1526   3.149   3.307   0.704
  447HOH      O 1527   0.415   0.779   2.104
  447HOH     H1 1528   0.502   0.801   2.071
  447HOH     H2 1529   0.355   0.827   2.047
  448HOH      O 1530   4.013   1.908   3.985
  448HOH     H1 1531   3.999   1.839   3.919
  448HOH     H2 1532   4.005   1.990   3.936
  449HOH      O 1533   0.244   3.612   3.719
  449HOH     H1 1534   0.149   3.627   3.716
  449HOH     H2 1535   0.252   3.519   3.740
  450HOH      O 1536   0.766   0.010   0.214
  450HOH     H1 1537   0.807   0.044   0.134
  450HOH     H2 1538   0.836  -0.036   0.259
  451HOH      O 1539   2.256   0.092   1.096
  451HOH     H1 1540   2.323   0.050   1.151
  451HOH     H2 1541   2.300   0.107   1.012
  452HOH      O 1542   0.182   1.010   0.020
  452HOH     H1 1543   0.109   1.072   0.021
  452HOH     H2 1544   0.248   1.050   0.077
  453HOH      O 1545   2.881   0.276   1.790
  453HOH     H1 1546   2.877   0.303   1.698
  453HOH     H2 1547   2.951   0.329   1.827
  454HOH      O 1548   0.468   2.605   1.952
  454HOH     H1 1549   0.389   2.655   1.971
  454HOH     H2 1550   0.514   2.600   2.037
  455HOH      O 1551   1.603   0.844   0.886
  455HOH     H1 1552   1.616   0.799   0.969
  455HOH     H2 1553   1.689   0.880   0.865
  456HOH      O 1554   1.459   3.201   1.168
  456HOH     H1 1555   1.429   3.152   1.245
  456HOH     H2 1556   1.544   3.163   1.147
  457HOH      O 1557   2.756   2.704   3.337
  457HOH     H1 1558   2.753   2.798   3.355
  457HOH     H2 1559   2.780   2.698   3.245
  458HOH      O 1560   3.474   1.851   0.141
  458HOH     H1 1561   3.569   1.865   0.149
  458HOH     H2 1562   3.445   1.833   0.231
  459HOH      O 1563   1.772   3.519   1.430
  459HOH     H1 1564   1.780   3.593   1.370
  459HOH     H2 1565   1.828   3.451   1.392
  460HOH      O 1566   0.759   2.430   1.841
  460HOH     H1 1567   0.843   2.383   1.844
  460HOH     H2 1568   0.769   2.499   1.906
  461HOH      O 1569   1.620   2.398   3.539
  461HOH     H1 1570   1.619   2.476   3.595
  461HOH     H2 1571   1.528   2.381   3.520
  462HOH      O 1572   0.128   3.777   1.726
  462HOH     H1 1573   0.143   3.865   1.759
  462HOH     H2 1574   0.138   3.784   1.631
  463HOH      O 1575   2.830   1.352   2.519
  463HOH     H1 1576   2.787   1.268   2.500
  463HOH     H2 1577   2.900   1.329   2.579
  464HOH      O 1578   2.456   2.656   0.788
  464HOH     H1 1579   2.453   2.684   0.696
  464HOH     H2 1580   2.431   2.564   0.786
  465HOH      O 1581   0.663   1.941   2.785
  465HOH     H1 1582   0.702   1.960   2.870
  465HOH     H2 1583   0.729   1.969   2.722
  466HOH      O 1584   0.829   2.783   3.667
  466HOH     H1 1585   0.877   2.728   3.605
  466HOH     H2 1586   0.769   2.834   3.612
  467HOH      O 1587   1.117   2.118   0.690
  467HOH     H1 1588   1.079   2.153   0.609
  467HOH     H2 1589   1.088   2.027   0.692
  468HOH      O 1590   0.408   3.411   0.643
  468HOH     H1 1591   0.359   3.332   0.669
  468HOH     H2 1592   0.443   3.390   0.557
  469HOH      O 1593   1.571   3.028   1.526
  469HOH     H1 1594   1.548   2.935   1.538
  469HOH     H2 1595   1.645   3.042   1.584
  470HOH      O 1596   1.406   2.690   0.380
  470HOH     H1 1597   1.402   2.774   0.425
  470HOH     H2 1598   1.407   2.625   0.449
  471HOH      O 1599   1.842   1.875   0.956
  471HOH     H1 1600   1.919   1.913   1.000
  471HOH     H2 1601   1.794   1.951   0.923
  472HOH      O 1602   3.641   1.239   2.020
  472HOH     H1 1603   3.592   1.278   1.947
  472HOH     H2 1604   3.600   1.275   2.098
  473HOH      O 1605   2.485   1.562   3.586
  473HOH     H1 1606   2.396   1.569   3.551
  473HOH     H2 1607   2.492   1.636   3.646
  474HOH      O 1608   3.858   1.549   2.584
  474HOH     H1 1609   3.776   1.507   2.611
  474HOH     H2 1610   3.854   1.551   2.489
  475HOH      O 1611   3.529   0.202   1.649
  475HOH     H1 1612   3.622   0.210   1.630
  475HOH     H2 1613   3.505   0.284   1.692
  476HOH      O 1614   2.379   2.111   0.587
  476HOH     H1 1615   2.356   2.018   0.579
  476HOH     H2 1616   2.475   2.111   0.592
  477HOH      O 1617   0.180   2.394   0.393
  477HOH     H1 1618   0.166   2.435   0.307
  477HOH     H2 1619   0.273   2.407   0.410
  478HOH      O 1620   2.467   1.797   3.758
  478HOH     H1 1621   2.502   1.884   3.736
  478HOH     H2 1622   2.504   1.778   3.844
  479HOH      O 1623   0.256   3.699   0.151
  479HOH     H1 1624   0.273   3.721   0.242
  479HOH     H2 1625   0.185   3.635   0.154
  480HOH      O 1626   4.020   1.006   2.114
  480HOH     H1 1627   4.088   1.066   2.145
  480HOH     H2 1628   3.969   1.058   2.052
  481HOH      O 1629   0.563   3.043   2.713
  481HOH     H1 1630   0.602   3.131   2.714
  481HOH     H2 1631   0.628   2.988   2.757
  482HOH      O 1632   0.562   0.223   0.019
  482HOH     H1 1633   0.512   0.147   0.050
  482HOH     H2 1634   0.614   0.189  -0.053
  483HOH      O 1635   1.985   1.274   3.758
  483HOH     H1 1636   2.075   1.258   3.788
  483HOH     H2 1637   1.988   1.257   3.664
  484HOH      O 1638   3.254   0.939   0.167
  484HOH     H1 1639   3.246   1.023   0.211
  484HOH     H2 1640   3.321   0.892   0.217
  485HOH      O 1641   1.820   3.543   0.582
  485HOH     H1 1642   1.852   3.579   0.664
  485HOH     H2 1643   1.874   3.465   0.568
  486HOH      O 1644   3.126   2.363   0.509
  486HOH     H1 1645   3.038   2.384   0.539
  486HOH     H2 1646   3.175   2.344   0.588
  487HOH      O 1647   0.488   2.114   1.624
  487HOH     H1 1648   0.527   2.038   1.579
  487HOH     H2 1649   0.459   2.080   1.708
  488HOH      O 1650   3.168   0.539   2.071
  488HOH     H1 1651   3.150   0.511   2.161
  488HOH     H2 1652   3.154   0.633   2.072
  489HOH      O 1653   0.671   1.362   3.079
  489HOH     H1 1654   0.754   1.407   3.060
  489HOH     H2 1655   0.692   1.269   3.070
  490HOH      O 1656   3.708   3.583   2.453
  490HOH     H1 1657   3.686   3.664   2.406
  490HOH     H2 1658   3.703   3.515   2.385
  491HOH      O 1659   3.317   2.119   3.707
  491HOH     H1 1660   3.339   2.072   3.787
  491HOH     H2 1661   3.356   2.206   3.719
  492HOH      O 1662   0.666   1.147   2.073
  492HOH     H1 1663   0.717   1.161   1.993
  492HOH     H2 1664   0.591   1.205   2.065
  493HOH      O 1665   0.701   2.705   1.850
  493HOH     H1 1666   0.701   2.721   1.755
  493HOH     H2 1667   0.621   2.654   1.865
  494HOH      O 1668   3.487   2.153   0.763
  494HOH     H1 1669   3.419   2.216   0.740
  494HOH     H2 1670   3.551   2.204   0.812
  495HOH      O 1671   3.378   3.108   0.544
  495HOH     H1 1672   3.377   3.200   0.516
  495HOH     H2 1673   3.468   3.079   0.527
  496HOH      O 1674   1.288   2.521   2.658
  496HOH     H1 1675   1.217   2.493   2.600
  496HOH     H2 1676   1.255   2.600   2.701
  497HOH      O 1677   2.141   1.821   0.184
  497HOH     H1 1678   2.070   1.864   0.137
  497HOH     H2 1679   2.112   1.819   0.275
  498HOH      O 1680   0.809   0.114   0.870
  498HOH     H1 1681   0.870   0.115   0.944
  498HOH     H2 1682   0.730   0.156   0.904
  499HOH      O 1683   3.333   2.065   1.507
  499HOH     H1 1684   3.267   2.132   1.523
  499HOH     H2 1685   3.285   1.982   1.513
  500HOH      O 1686   2.974   0.685   2.709
  500HOH     H1 1687   3.032   0.623   2.664
  500HOH     H2 1688   2.902   0.699   2.647
  501HOH      O 1689   0.628   2.231   3.309
  501HOH     H1 1690   0.552   2.264   3.356
  501HOH     H2 1691   0.667   2.167   3.368
  502HOH      O 1692   3.850   1.069   0.694
  502HOH     H1 1693   3.893   1.009   0.632
  502HOH     H2 1694   3.776   1.019   0.728
  503HOH      O 1695   2.073   2.700   0.711
  503HOH     H1 1696   2.134   2.769   0.741
  503HOH     H2 1697   2.061   2.645   0.788
  504HOH      O 1698   0.725   3.174   3.654
  504HOH     H1 1699   0.737   3.269   3.656
  504HOH     H2 1700   0.657   3.159   3.589
  505HOH      O 1701   3.560   2.956   3.126
  505HOH     H1 1702   3.552   2.961   3.031
  505HOH     H2 1703   3.591   3.043   3.152
  506HOH      O 1704   3.261   3.833   0.466
  506HOH     H1 1705   3.355   3.853   0.467
  506HOH     H2 1706   3.218   3.918   0.467
  507HOH      O 1707   1.059   3.682   1.131
  507HOH     H1 1708   1.028   3.600   1.168
  507HOH     H2 1709   1.114   3.720   1.199
  508HOH      O 1710   0.051   1.224   3.167
  508HOH     H1 1711   0.137   1.225   3.125
  508HOH     H2 1712   0.016   1.312   3.153
  509HOH      O 1713   0.153   2.158   3.063
  509HOH     H1 1714   0.191   2.123   3.144
  509HOH     H2 1715   0.099   2.087   3.029
  510HOH      O 1716   3.630   2.622   3.881
  510HOH     H1 1717   3.652   2.569   3.804
  510HOH     H2 1718   3.710   2.671   3.900
  511HOH      O 1719   0.105   3.328   3.593
  511HOH     H1 1720   0.012   3.306   3.596
  511HOH     H2 1721   0.136   3.316   3.683
  512HOH      O 1722   3.861   1.090   1.688
  512HOH     H1 1723   3.857   1.027   1.616
  512HOH     H2 1724   3.799   1.159   1.663
  513HOH      O 1725   3.905   2.129   2.319
  513HOH     H1 1726   3.916   2.073   2.396
  513HOH     H2 1727   3.876   2.213   2.355
  514HOH      O 1728   3.680   1.492   3.065
  514HOH     H1 1729   3.595   1.483   3.109
  514HOH     H2 1730   3.670   1.568   3.008
  515HOH      O 1731   2.298   1.483   0.438
  515HOH     H1 1732   2.239   1.447   0.372
  515HOH     H2 1733   2.324   1.407   0.490
  516HOH      O 1734   2.332   0.136   0.149
  516HOH     H1 1735   2.335   0.198   0.222
  516HOH     H2 1736   2.252   0.158   0.103
  517HOH      O 1737   1.533   1.618   1.302
  517HOH     H1 1738   1.572   1.654   1.222
  517HOH     H2 1739   1.533   1.692   1.364
  518HOH      O 1740   2.036   2.140   3.067
  518HOH     H1 1741   2.044   2.065   3.125
  518HOH     H2 1742   2.017   2.214   3.126
  519HOH      O 1743   1.730   0.804   2.816
  519HOH     H1 1744   1.685   0.873   2.864
  519HOH     H2 1745   1.822   0.831   2.814
  520HOH      O 1746   4.003   3.246   0.179
  520HOH     H1 1747   3.952   3.212   0.106
  520HOH     H2 1748   3.966   3.204   0.256
  521HOH      O 1749   0.272   1.310   3.696
  521HOH     H1 1750   0.203   1.359   3.650
  521HOH     H2 1751   0.248   1.218   3.685
  522HOH      O 1752   3.524   0.831   3.730
  522HOH     H1 1753   3.532   0.736   3.716
  522HOH     H2 1754   3.606   0.867   3.698
  523HOH      O 1755   1.539   2.288   1.704
  523HOH     H1 1756   1.486   2.217   1.740
  523HOH     H2 1757   1.541   2.271   1.610
  524HOH      O 1758   2.932   2.909   3.651
  524HOH     H1 1759   3.020   2.894   3.617
  524HOH     H2 1760   2.904   2.824   3.686
  525HOH      O 1761   0.528   3.175   0.492
  525HOH     H1 1762   0.506   3.100   0.547
  525HOH     H2 1763   0.623   3.179   0.495
  526HOH      O 1764   2.039   3.891   1.264
  526HOH     H1 1765   2.111   3.830   1.280
  526HOH     H2 1766   2.081   3.973   1.238
  527HOH      O 1767   2.844   0.921   3.577
  527HOH     H1 1768   2.930   0.963   3.578
  527HOH     H2 1769   2.795   0.967   3.510
  528HOH      O 1770   0.400   0.926   0.876
  528HOH     H1 1771   0.449   0.967   0.805
  528HOH     H2 1772   0.439   0.839   0.885
  529HOH      O 1773   0.200   0.089   0.327
  529HOH     H1 1774   0.228   0.119   0.414
  529HOH     H2 1775   0.112   0.056   0.341
  530HOH      O 1776   1.758   1.150   0.524
  530HOH     H1 1777   1.700   1.186   0.591
  530HOH     H2 1778   1.846   1.174   0.553
  531HOH      O 1779   3.782   0.417   0.695
  531HOH     H1 1780   3.688   0.404   0.711
  531HOH     H2 1781   3.806   0.348   0.633
  532HOH      O 1782   3.811   3.916   3.401
  532HOH     H1 1783   3.816   3.850   3.333
  532HOH     H2 1784   3.901   3.928   3.429
  533HOH      O 1785   0.756   3.449   3.646
  533HOH     H1 1786   0.809   3.505   3.703
  533HOH     H2 1787   0.754   3.495   3.562
  534HOH      O 1788   1.593   3.436   2.631
  534HOH     H1 1789   1.545   3.452   2.550
  534HOH     H2 1790   1.626   3.523   2.656
  535HOH      O 1791   1.484   2.653   2.987
  535HOH     H1 1792   1.510   2.600   2.911
  535HOH     H2 1793   1.404   2.612   3.019
  536HOH      O 1794   0.529   2.555   2.215
  536HOH     H1 1795   0.509   2.635   2.265
  536HOH     H2 1796   0.450   2.502   2.222
  537HOH      O 1797   2.829   3.262   2.692
  537HOH     H1 1798   2.866   3.319   2.625
  537HOH     H2 1799   2.770   3.319   2.741
  538HOH      O 1800   1.032   3.025   2.423
  538HOH     H1 1801   1.059   3.090   2.358
  538HOH     H2 1802   0.979   3.074   2.486
  539HOH      O 1803   1.971   2.476   0.868
  539HOH     H1 1804   1.991   2.385   0.889
  539HOH     H2 1805   1.880   2.474   0.838
  540HOH      O 1806   1.459   3.621   0.348
  540HOH     H1 1807   1.381   3.637   0.401
  540HOH     H2 1808   1.424   3.603   0.260
  541HOH      O 1809   3.497   3.203   3.786
  541HOH     H1 1810   3.462   3.260   3.718
  541HOH     H2 1811   3.442   3.125   3.782
  542HOH      O 1812   2.016   0.707   1.520
  542HOH     H1 1813   1.937   0.758   1.505
  542HOH     H2 1814   2.033   0.664   1.437
  543HOH      O 1815   1.974   3.032   2.559
  543HOH     H1 1816   1.890   2.993   2.533
  543HOH     H2 1817   2.024   2.959   2.596
  544HOH      O 1818   2.526   1.157   3.206
  544HOH     H1 1819   2.556   1.159   3.115
  544HOH     H2 1820   2.432   1.145   3.200
  545HOH      O 1821   1.662   2.117   2.843
  545HOH     H1 1822   1.585   2.175   2.844
  545HOH     H2 1823   1.736   2.175   2.830
  546HOH      O 1824   1.742   3.930   3.668
  546HOH     H1 1825   1.780   3.904   3.584
  546HOH     H2 1826   1.750   3.851   3.723
  547HOH      O 1827   1.695   0.602   1.375
  547HOH     H1 1828   1.717   0.685   1.419
  547HOH     H2 1829   1.609   0.578   1.410
  548HOH      O 1830   0.803   0.288   1.786
  548HOH     H1 1831   0.854   0.360   1.747
  548HOH     H2 1832   0.776   0.235   1.711
  549HOH      O 1833   1.357   0.047   1.883
  549HOH     H1 1834   1.287   0.026   1.944
  549HOH     H2 1835   1.405  -0.035   1.871
  550HOH      O 1836   3.812   1.063   0.195
  550HOH     H1 1837   3.819   0.991   0.132
  550HOH     H2 1838   3.758   1.029   0.265
  551HOH      O 1839   1.928   2.775   2.900
  551HOH     H1 1840   1.980   2.848   2.933
  551HOH     H2 1841   1.951   2.768   2.808
  552HOH      O 1842   3.484   4.040   1.878
  552HOH     H1 1843   3.437   4.070   1.800
  552HOH     H2 1844   3.500   3.947   1.862
  553HOH      O 1845   2.223   0.742   1.942
  553HOH     H1 1846   2.159   0.782   1.884
  553HOH     H2 1847   2.302   0.796   1.932
  554HOH      O 1848   2.563   3.053   1.055
  554HOH     H1 1849   2.609   3.036   0.973
  554HOH     H2 1850   2.482   3.096   1.028
  555HOH      O 1851   2.244   1.166   1.370
  555HOH     H1 1852   2.279   1.079   1.351
  555HOH     H2 1853   2.162   1.170   1.321
  556HOH      O 1854   2.419   2.376   2.842
  556HOH     H1 1855   2.486   2.310   2.857
  556HOH     H2 1856   2.370   2.343   2.767
  557HOH      O 1857   3.190   1.551   0.666
  557HOH     H1 1858   3.190   1.610   0.741
  557HOH     H2 1859   3.099   1.552   0.635
  558HOH      O 1860   0.023   1.199   0.404
  558HOH     H1 1861  -0.067   1.226   0.421
  558HOH     H2 1862   0.072   1.231   0.480
  559HOH      O 1863   2.034   2.356   2.145
  559HOH     H1 1864   2.104   2.314   2.096
  559HOH     H2 1865   1.993   2.285   2.195
  560HOH      O 1866   0.890   2.070   2.647
  560HOH     H1 1867   0.953   2.108   2.708
  560HOH     H2 1868   0.894   2.126   2.569
  561HOH      O 1869   3.322   0.939   0.659
  561HOH     H1 1870   3.346   0.964   0.569
  561HOH     H2 1871   3.388   0.875   0.685
  562HOH      O 1872   2.580   3.031   3.954
  562HOH     H1 1873   2.511   3.087   3.918
  562HOH     H2 1874   2.535   2.976   4.019
  563HOH      O 1875   2.804   1.780   1.631
  563HOH     H1 1876   2.717   1.740   1.636
  563HOH     H2 1877   2.858   1.714   1.586
  564HOH      O 1878   0.120   2.899   2.624
  564HOH     H1 1879   0.137   2.857   2.539
  564HOH     H2 1880   0.056   2.967   2.603
  565HOH      O 1881   2.988   3.184   3.612
  565HOH     H1 1882   3.058   3.240   3.647
  565HOH     H2 1883   2.995   3.103   3.662
  566HOH      O 1884   1.262   1.069   2.709
  566HOH     H1 1885   1.316   1.100   2.783
  566HOH     H2 1886   1.235   1.149   2.665
  567HOH      O 1887   2.526   1.685   2.549
  567HOH     H1 1888   2.480   1.607   2.581
  567HOH     H2 1889   2.470   1.758   2.574
  568HOH      O 1890   0.807   0.987   3.336
  568HOH     H1 1891   0.794   0.958   3.427
  568HOH     H2 1892   0.869   1.059   3.343
  569HOH      O 1893   0.603   3.463   1.647
  569HOH     H1 1894   0.562   3.550   1.638
  569HOH     H2 1895   0.533   3.408   1.682
  570HOH      O 1896   0.467   0.199   1.163
  570HOH     H1 1897   0.374   0.196   1.142
  570HOH     H2 1898   0.507   0.136   1.103
  571HOH      O 1899   0.848   3.599   3.296
  571HOH     H1 1900   0.864   3.680   3.345
  571HOH     H2 1901   0.757   3.578   3.314
  572HOH      O 1902   1.828   1.135   2.692
  572HOH     H1 1903   1.865   1.048   2.706
  572HOH     H2 1904   1.895   1.195   2.726
  573HOH      O 1905   0.758   3.864   0.553
  573HOH     H1 1906   0.767   3.801   0.624
  573HOH     H2 1907   0.663   3.879   0.546
  574HOH      O 1908   2.974   1.567   1.807
  574HOH     H1 1909   3.057   1.554   1.852
  574HOH     H2 1910   2.998   1.594   1.718
  575HOH      O 1911   2.245   2.427   0.827
  575HOH     H1 1912   2.167   2.482   0.831
  575HOH     H2 1913   2.254   2.405   0.734
  576HOH      O 1914   1.123   1.804   2.944
  576HOH     H1 1915   1.141   1.711   2.928
  576HOH     H2 1916   1.201   1.849   2.911
  577HOH      O 1917   2.428   0.494   2.444
  577HOH     H1 1918   2.501   0.434   2.458
  577HOH     H2 1919   2.451   0.543   2.365
  578HOH      O 1920   0.875   0.796   2.273
  578HOH     H1 1921   0.808   0.817   2.208
  578HOH     H2 1922   0.835   0.729   2.328
  579HOH      O 1923   2.743   1.395   2.967
  579HOH     H1 1924   2.659   1.394   3.014
  579HOH     H2 1925   2.783   1.478   2.992
  580HOH      O 1926   1.293   1.362   2.875
  580HOH     H1 1927   1.223   1.338   2.936
  580HOH     H2 1928   1.273   1.452   2.849
  581HOH      O 1929   2.759   0.023   1.689
  581HOH     H1 1930   2.791   0.099   1.737
  581HOH     H2 1931   2.669   0.012   1.719
  582HOH      O 1932   1.216   0.033   2.748
  582HOH     H1 1933   1.169  -0.050   2.733
  582HOH     H2 1934   1.149   0.100   2.738
  583HOH      O 1935   0.760   2.089   3.482
  583HOH     H1 1936   0.837   2.032   3.477
  583HOH     H2 1937   0.757   2.118   3.574
  584HOH      O 1938   1.639   3.173   2.726
  584HOH     H1 1939   1.668   3.255   2.686
  584HOH     H2 1940   1.708   3.152   2.790
  585HOH      O 1941   3.257   2.578   2.633
  585HOH     H1 1942   3.172   2.615   2.611
  585HOH     H2 1943   3.259   2.576   2.729
  586HOH      O 1944   3.813   1.348   3.573
  586HOH     H1 1945   3.830   1.420   3.634
  586HOH     H2 1946   3.719   1.353   3.555
  587HOH      O 1947   2.348   0.573   1.716
  587HOH     H1 1948   2.295   0.652   1.708
  587HOH     H2 1949   2.334   0.544   1.806
  588HOH      O 1950   0.478   3.953   0.496
  588HOH     H1 1951   0.460   3.878   0.553
  588HOH     H2 1952   0.398   3.963   0.443
  589HOH      O 1953   0.675   2.078   0.236
  589HOH     H1 1954   0.715   2.165   0.233
  589HOH     H2 1955   0.749   2.018   0.244
  590HOH      O 1956   1.001   2.981   3.777
  590HOH     H1 1957   1.020   3.053   3.717
  590HOH     H2 1958   0.934   2.930   3.732
  591HOH      O 1959   2.684   3.063   3.705
  591HOH     H1 1960   2.648   3.015   3.780
  591HOH     H2 1961   2.772   3.029   3.694
  592HOH      O 1962   1.298   3.809   1.641
  592HOH     H1 1963   1.214   3.786   1.681
  592HOH     H2 1964   1.363   3.782   1.706
  593HOH      O 1965   2.696   2.061   1.404
  593HOH     H1 1966   2.633   2.011   1.457
  593HOH     H2 1967   2.642   2.118   1.350
  594HOH      O 1968   2.935   2.755   1.583
  594HOH     H1 1969   2.885   2.702   1.645
  594HOH     H2 1970   3.001   2.695   1.549
  595HOH      O 1971   1.691   0.303   1.426
  595HOH     H1 1972   1.684   0.335   1.517
  595HOH     H2 1973   1.730   0.377   1.379
  596HOH      O 1974   1.599   1.038   1.990
  596HOH     H1 1975   1.654   1.031   2.069
  596HOH     H2 1976   1.648   1.097   1.932
  597HOH      O 1977   1.827   0.275   3.357
  597HOH     H1 1978   1.791   0.327   3.429
  597HOH     H2 1979   1.919   0.302   3.352
  598HOH      O 1980   1.081   0.872   1.853
  598HOH     H1 1981   1.082   0.915   1.939
  598HOH     H2 1982   0.989   0.852   1.838
  599HOH      O 1983   1.233   0.826   3.211
  599HOH     H1 1984   1.222   0.790   3.299
  599HOH     H2 1985   1.321   0.797   3.184
  600HOH      O 1986   0.411   1.158   1.365
  600HOH     H1 1987   0.397   1.064   1.379
  600HOH     H2 1988   0.335   1.200   1.405
  601HOH      O 1989   0.997   1.001   2.118
  601HOH     H1 1990   1.033   1.064   2.180
  601HOH     H2 1991   0.939   0.945   2.170
  602HOH      O 1992   0.937   0.592   2.890
  602HOH     H1 1993   0.892   0.596   2.806
  602HOH     H2 1994   0.885   0.532   2.943
  603HOH      O 1995   0.540   1.792   0.242
  603HOH     H1 1996   0.558   1.885   0.224
  603HOH     H2 1997   0.446   1.782   0.227
  604HOH      O 1998   2.994   3.913   1.973
  604HOH     H1 1999   2.929   3.902   2.042
  604HOH     H2 2000   3.073   3.943   2.018
  605HOH      O 2001   1.714   0.005   1.689
  605HOH     H1 2002   1.642  -0.032   1.739
  605HOH     H2 2003   1.745   0.080   1.741
  606HOH      O 2004   1.853   0.582   3.174
  606HOH     H1 2005   1.814   0.592   3.088
  606HOH     H2 2006   1.928   0.524   3.160
  607HOH      O 2007   1.804   2.367   0.372
  607HOH     H1 2008   1.841   2.442   0.418
  607HOH     H2 2009   1.745   2.405   0.307
  608HOH      O 2010   1.104   2.687   0.331
  608HOH     H1 2011   1.192   2.722   0.345
  608HOH     H2 2012   1.062   2.693   0.416
  609HOH      O 2013   0.955   2.297   2.382
  609HOH     H1 2014   0.873   2.302   2.333
  609HOH     H2 2015   0.963   2.383   2.423
  610HOH      O 2016   2.321   2.531   3.238
  610HOH     H1 2017   2.412   2.547   3.264
  610HOH     H2 2018   2.321   2.541   3.143
  611HOH      O 2019   0.851   3.147   3.332
  611HOH     H1 2020   0.842   3.064   3.285
  611HOH     H2 2021   0.945   3.163   3.334
  612HOH      O 2022   3.126   1.363   3.757
  612HOH     H1 2023   3.102   1.442   3.709
  612HOH     H2 2024   3.191   1.320   3.700
  613HOH      O 2025   0.812   0.884   2.570
  613HOH     H1 2026   0.871   0.933   2.627
  613HOH     H2 2027   0.856   0.885   2.485
  614HOH      O 2028   3.438   0.469   1.606
  614HOH     H1 2029   3.405   0.547   1.651
  614HOH     H2 2030   3.369   0.445   1.545
  615HOH      O 2031   1.152   0.632   1.698
  615HOH     H1 2032   1.113   0.703   1.749
  615HOH     H2 2033   1.247   0.641   1.713
  616HOH      O 2034   0.239   2.497   1.534
  616HOH     H1 2035   0.169   2.543   1.580
  616HOH     H2 2036   0.206   2.408   1.523
  617HOH      O 2037   1.390   0.577   3.467
  617HOH     H1 2038   1.474   0.594   3.424
  617HOH     H2 2039   1.382   0.482   3.467
  618HOH      O 2040   0.435   2.494   3.332
  618HOH     H1 2041   0.390   2.516   3.250
  618HOH     H2 2042   0.365   2.463   3.390
  619HOH      O 2043   1.711   1.765   3.823
  619HOH     H1 2044   1.648   1.836   3.835
  619HOH     H2 2045   1.672   1.710   3.754
  620HOH      O 2046   0.530   2.962   1.146
  620HOH     H1 2047   0.616   3.003   1.141
  620HOH     H2 2048   0.529   2.919   1.232
  621HOH      O 2049   3.814   3.686   1.476
  621HOH     H1 2050   3.856   3.749   1.418
  621HOH     H2 2051   3.784   3.738   1.550
  622HOH      O 2052   0.820   1.951   0.542
  622HOH     H1 2053   0.727   1.970   0.558
  622HOH     H2 2054   0.820   1.864   0.501
  623HOH      O 2055   3.032   0.278   2.993
  623HOH     H1 2056   2.989   0.356   2.956
  623HOH     H2 2057   2.979   0.256   3.069
  624HOH      O 2058   0.986   0.105   1.363
  624HOH     H1 2059   1.076   0.131   1.344
  624HOH     H2 2060   0.992   0.013   1.388
  625HOH      O 2061   3.015   3.588   3.808
  625HOH     H1 2062   2.997   3.625   3.722
  625HOH     H2 2063   3.072   3.514   3.790
  626HOH      O 2064   3.470   3.753   1.806
  626HOH     H1 2065   3.422   3.696   1.747
  626HOH     H2 2066   3.418   3.754   1.887
  627HOH      O 2067   0.803   1.112   0.924
  627HOH     H1 2068   0.832   1.025   0.897
  627HOH     H2 2069   0.883   1.155   0.957
  628HOH      O 2070   1.141   1.991   1.819
  628HOH     H1 2071   1.059   1.950   1.848
  628HOH     H2 2072   1.134   1.994   1.724
  629HOH      O 2073   3.556   0.277   0.778
  629HOH     H1 2074   3.556   0.222   0.857
  629HOH     H2 2075   3.539   0.215   0.707
  630HOH      O 2076   0.481   0.032   0.906
  630HOH     H1 2077   0.410   0.019   0.843
  630HOH     H2 2078   0.498   0.127   0.905
  631HOH      O 2079   2.616   0.511   0.105
  631HOH     H1 2080   2.638   0.604   0.097
  631HOH     H2 2081   2.661   0.483   0.184
  632HOH      O 2082   3.952   1.132   3.812
  632HOH     H1 2083   3.916   1.045   3.791
  632HOH     H2 2084   4.026   1.141   3.753
  633HOH      O 2085   0.167   0.743   0.688
  633HOH     H1 2086   0.213   0.694   0.619
  633HOH     H2 2087   0.228   0.811   0.714
  634HOH      O 2088   3.289   2.852   0.371
  634HOH     H1 2089   3.270   2.910   0.445
  634HOH     H2 2090   3.206   2.805   0.356
  635HOH      O 2091   0.163   1.072   3.674
  635HOH     H1 2092   0.233   1.012   3.698
  635HOH     H2 2093   0.143   1.050   3.583
  636HOH      O 2094   1.143   3.309   3.383
  636HOH     H1 2095   1.186   3.234   3.342
  636HOH     H2 2096   1.179   3.385   3.337
  637HOH      O 2097   2.484   0.416   3.686
  637HOH     H1 2098   2.454   0.501   3.652
  637HOH     H2 2099   2.500   0.363   3.608
  638HOH      O 2100   1.475   0.728   3.761
  638HOH     H1 2101   1.459   0.820   3.781
  638HOH     H2 2102   1.532   0.730   3.684
  639HOH      O 2103   2.413   2.474   0.161
  639HOH     H1 2104   2.476   2.415   0.203
  639HOH     H2 2105   2.329   2.427   0.169
  640HOH      O 2106   1.980   2.374   0.079
  640HOH     H1 2107   1.903   2.418   0.041
  640HOH     H2 2108   2.034   2.350   0.004
  641HOH      O 2109   4.020   2.217   1.182
  641HOH     H1 2110   4.027   2.253   1.094
  641HOH     H2 2111   3.938   2.250   1.216
  642HOH      O 2112   1.228   2.405   0.780
  642HOH     H1 2113   1.194   2.316   0.772
  642HOH     H2 2114   1.165   2.450   0.835
  643HOH      O 2115   3.943   0.092   2.092
  643HOH     H1 2116   3.868   0.093   2.033
  643HOH     H2 2117   3.920   0.028   2.160
  644HOH      O 2118   1.614   2.783   1.024
  644HOH     H1 2119   1.702   2.806   0.995
  644HOH     H2 2120   1.615   2.687   1.030
  645HOH      O 2121   2.324   2.232   0.989
  645HOH     H1 2122   2.353   2.299   1.051
  645HOH     H2 2123   2.285   2.281   0.917
  646HOH      O 2124   0.849   1.180   0.620
  646HOH     H1 2125   0.777   1.187   0.683
  646HOH     H2 2126   0.842   1.091   0.585
  647HOH      O 2127   3.897   1.034   3.123
  647HOH     H1 2128   3.966   1.100   3.120
  647HOH     H2 2129   3.822   1.076   3.080
  648HOH      O 2130   1.277   2.845   0.891
  648HOH     H1 2131   1.211   2.855   0.823
  648HOH     H2 2132   1.241   2.891   0.967
  649HOH      O 2133   2.752   1.902   3.719
  649HOH     H1 2134   2.769   1.989   3.683
  649HOH     H2 2135   2.710   1.919   3.804
  650HOH      O 2136   1.948   0.249   3.840
  650HOH     H1 2137   1.946   0.161   3.879
  650HOH     H2 2138   1.883   0.245   3.770
  651HOH      O 2139   3.054   2.446   3.181
  651HOH     H1 2140   3.134   2.485   3.215
  651HOH     H2 2141   3.083   2.393   3.106
  652HOH      O 2142   2.383   1.833   0.551
  652HOH     H1 2143   2.478   1.819   0.548
  652HOH     H2 2144   2.354   1.815   0.462
  653HOH      O 2145   0.272   2.398   3.640
  653HOH     H1 2146   0.215   2.370   3.712
  653HOH     H2 2147   0.216   2.454   3.587
  654HOH      O 2148   1.567   0.185   2.900
  654HOH     H1 2149   1.499   0.132   2.941
  654HOH     H2 2150   1.618   0.220   2.973
  655HOH      O 2151   2.759   2.122   0.828
  655HOH     H1 2152   2.710   2.190   0.874
  655HOH     H2 2153   2.813   2.081   0.896
  656HOH      O 2154   0.223   0.147   2.311
  656HOH     H1 2155   0.223   0.089   2.235
  656HOH     H2 2156   0.174   0.099   2.377
  657HOH      O 2157   1.032   3.793   3.389
  657HOH     H1 2158   0.997   3.831   3.470
  657HOH     H2 2159   1.028   3.864   3.325
  658HOH      O 2160   3.749   3.497   3.843
  658HOH     H1 2161   3.691   3.498   3.766
  658HOH     H2 2162   3.725   3.417   3.890
  659HOH      O 2163   1.541   3.879   1.860
  659HOH     H1 2164   1.544   3.805   1.798
  659HOH     H2 2165   1.532   3.837   1.946
  660HOH      O 2166   1.195   2.100   2.337
  660HOH     H1 2167   1.231   2.145   2.414
  660HOH     H2 2168   1.105   2.132   2.330
  661HOH      O 2169   0.782   2.781   3.922
  661HOH     H1 2170   0.793   2.797   3.828
  661HOH     H2 2171   0.785   2.686   3.931
  662HOH      O 2172   3.914   3.389   3.187
  662HOH     H1 2173   3.982   3.454   3.170
  662HOH     H2 2174   3.910   3.337   3.107
  663HOH      O 2175   0.464   2.565   0.260
  663HOH     H1 2176   0.418   2.621   0.323
  663HOH     H2 2177   0.499   2.626   0.195
  664HOH      O 2178   1.100   4.050   3.893
  664HOH     H1 2179   1.123   3.972   3.843
  664HOH     H2 2180   1.131   4.032   3.982
  665HOH      O 2181   1.284   3.065   2.496
  665HOH     H1 2182   1.193   3.036   2.482
  665HOH     H2 2183   1.287   3.153   2.459
  666HOH      O 2184   1.694   0.813   1.888
  666HOH     H1 2185   1.612   0.789   1.846
  666HOH     H2 2186   1.670   0.885   1.947
  667HOH      O 2187   0.413   0.302   1.460
  667HOH     H1 2188   0.493   0.318   1.509
  667HOH     H2 2189   0.443   0.271   1.375
  668HOH      O 2190   1.240   2.123   3.831
  668HOH     H1 2191   1.251   2.188   3.901
  668HOH     H2 2192   1.225   2.175   3.753
  669HOH      O 2193   0.831   3.367   0.989
  669HOH     H1 2194   0.864   3.376   0.899
  669HOH     H2 2195   0.761   3.431   0.995
  670HOH      O 2196   3.822   0.737   0.267
  670HOH     H1 2197   3.897   0.794   0.285
  670HOH     H2 2198   3.746   0.796   0.272
  671HOH      O 2199   3.232   2.204   1.017
  671HOH     H1 2200   3.200   2.276   1.070
  671HOH     H2 2201   3.217   2.126   1.070
  672HOH      O 2202   3.415   2.846   2.663
  672HOH     H1 2203   3.368   2.763   2.666
  672HOH     H2 2204   3.372   2.895   2.594
  673HOH      O 2205   1.199   3.564   3.302
  673HOH     H1 2206   1.136   3.620   3.347
  673HOH     H2 2207   1.260   3.624   3.260
  674HOH      O 2208   3.542   2.893   1.027
  674HOH     H1 2209   3.559   2.972   1.079
  674HOH     H2 2210   3.609   2.831   1.057
  675HOH      O 2211   2.138   0.333   1.346
  675HOH     H1 2212   2.114   0.241   1.351
  675HOH     H2 2213   2.135   0.364   1.437
  676HOH      O 2214   2.801   3.194   0.576
  676HOH     H1 2215   2.842   3.179   0.491
  676HOH     H2 2216   2.873   3.185   0.639
  677HOH      O 2217   1.178   0.285   3.252
  677HOH     H1 2218   1.125   0.335   3.315
  677HOH     H2 2219   1.172   0.334   3.171
  678HOH      O 2220   3.890   1.698   3.533
  678HOH     H1 2221   3.859   1.654   3.612
  678HOH     H2 2222   3.836   1.776   3.526
  679HOH      O 2223   3.443   3.454   3.885
  679HOH     H1 2224   3.470   3.466   3.976
  679HOH     H2 2225   3.451   3.359   3.870
  680HOH      O 2226   0.908   0.860   0.884
  680HOH     H1 2227   0.979   0.896   0.831
  680HOH     H2 2228   0.882   0.779   0.839
  681HOH      O 2229   3.867   1.296   2.340
  681HOH     H1 2230   3.914   1.314   2.258
  681HOH     H2 2231   3.825   1.379   2.362
  682HOH      O 2232   1.187   3.988   2.078
  682HOH     H1 2233   1.237   3.930   2.135
  682HOH     H2 2234   1.152   4.055   2.137
  683HOH      O 2235   2.964   0.167   0.341
  683HOH     H1 2236   3.000   0.233   0.282
  683HOH     H2 2237   2.929   0.217   0.415
  684HOH      O 2238   1.746   2.344   3.106
  684HOH     H1 2239   1.809   2.388   3.048
  684HOH     H2 2240   1.763   2.381   3.192
  685HOH      O 2241   3.286   2.321   0.754
  685HOH     H1 2242   3.231   2.247   0.778
  685HOH     H2 2243   3.260   2.390   0.816
  686HOH      O 2244   3.934   2.886   1.051
  686HOH     H1 2245   4.028   2.869   1.060
  686HOH     H2 2246   3.893   2.817   1.103
  687HOH      O 2247   3.224   1.465   0.305
  687HOH     H1 2248   3.131   1.480   0.288
  687HOH     H2 2249   3.226   1.391   0.366
  688HOH      O 2250   2.509   3.741   1.399
  688HOH     H1 2251   2.515   3.722   1.493
  688HOH     H2 2252   2.571   3.813   1.386
  689HOH      O 2253   3.337   0.775   1.105
  689HOH     H1 2254   3.307   0.792   1.194
  689HOH     H2 2255   3.309   0.852   1.055
  690HOH      O 2256   3.313   2.699   1.149
  690HOH     H1 2257   3.310   2.736   1.237
  690HOH     H2 2258   3.400   2.723   1.116
  691HOH      O 2259   3.597   0.143   2.092
  691HOH     H1 2260   3.587   0.101   2.007
  691HOH     H2 2261   3.626   0.073   2.151
  692HOH      O 2262   2.293   0.432   3.959
  692HOH     H1 2263   2.246   0.490   3.899
  692HOH     H2 2264   2.281   0.471   4.045
  693HOH      O 2265   1.349   3.114   3.233
  693HOH     H1 2266   1.398   3.180   3.183
  693HOH     H2 2267   1.408   3.039   3.236
  694HOH      O 2268   1.743   1.052   2.463
  694HOH     H1 2269   1.765   1.083   2.550
  694HOH     H2 2270   1.664   0.999   2.475
  695HOH      O 2271   1.187   1.160   0.673
  695HOH     H1 2272   1.177   1.067   0.693
  695HOH     H2 2273   1.107   1.182   0.625
  696HOH      O 2274   3.678   3.470   0.582
  696HOH     H1 2275   3.603   3.427   0.625
  696HOH     H2 2276   3.642   3.504   0.500
  697HOH      O 2277   2.511   1.845   3.310
  697HOH     H1 2278   2.535   1.797   3.231
  697HOH     H2 2279   2.579   1.913   3.318
  698HOH      O 2280   0.660   2.853   3.453
  698HOH     H1 2281   0.675   2.870   3.360
  698HOH     H2 2282   0.569   2.879   3.468
  699HOH      O 2283   1.276   0.385   2.679
  699HOH     H1 2284   1.301   0.420   2.594
  699HOH     H2 2285   1.358   0.381   2.729
  700HOH      O 2286   2.937   1.053   2.204
  700HOH     H1 2287   3.017   1.106   2.201
  700HOH     H2 2288   2.881   1.090   2.136
  701HOH      O 2289   1.255   2.038   1.220
  701HOH     H1 2290   1.350   2.039   1.227
  701HOH     H2 2291   1.236   2.063   1.130
  702HOH      O 2292   0.218   2.750   0.171
  702HOH     H1 2293   0.199   2.833   0.128
  702HOH     H2 2294   0.138   2.699   0.160
  703HOH      O 2295   2.143   1.394   1.993
  703HOH     H1 2296   2.202   1.343   2.049
  703HOH     H2 2297   2.201   1.439   1.932
  704HOH      O 2298   3.751   0.099   1.367
  704HOH     H1 2299   3.673   0.084   1.419
  704HOH     H2 2300   3.733   0.179   1.318
  705HOH      O 2301   3.838   2.734   0.672
  705HOH     H1 2302   3.747   2.742   0.701
  705HOH     H2 2303   3.883   2.809   0.711
  706HOH      O 2304   0.334   1.951   0.693
  706HOH     H1 2305   0.258   2.009   0.705
  706HOH     H2 2306   0.296   1.868   0.664
  707HOH      O 2307   2.228   2.209   2.025
  707HOH     H1 2308   2.210   2.162   1.944
  707HOH     H2 2309   2.243   2.140   2.090
  708HOH      O 2310   0.586   3.141   0.142
  708HOH     H1 2311   0.554   3.225   0.106
  708HOH     H2 2312   0.678   3.158   0.162
  709HOH      O 2313   3.704   0.968   2.864
  709HOH     H1 2314   3.658   1.023   2.927
  709HOH     H2 2315   3.748   1.030   2.806
  710HOH      O 2316   1.748   3.072   1.228
  710HOH     H1 2317   1.764   3.166   1.240
  710HOH     H2 2318   1.771   3.033   1.312
  711HOH      O 2319   2.342   0.866   1.364
  711HOH     H1 2320   2.381   0.779   1.371
  711HOH     H2 2321   2.254   0.850   1.329
  712HOH      O 2322   0.652   2.297   2.382
  712HOH     H1 2323   0.598   2.218   2.370
  712HOH     H2 2324   0.590   2.365   2.408
  713HOH      O 2325   3.524   2.909   0.213
  713HOH     H1 2326   3.450   2.889   0.269
  713HOH     H2 2327   3.514   2.850   0.138
  714HOH      O 2328   3.635   1.418   2.668
  714HOH     H1 2329   3.661   1.337   2.625
  714HOH     H2 2330   3.578   1.390   2.739
  715HOH      O 2331   1.803   0.345   1.159
  715HOH     H1 2332   1.855   0.423   1.175
  715HOH     H2 2333   1.861   0.286   1.110
  716HOH      O 2334   0.254   0.689   2.603
  716HOH     H1 2335   0.287   0.600   2.609
  716HOH     H2 2336   0.250   0.707   2.509
  717HOH      O 2337   0.356   2.843   1.859
  717HOH     H1 2338   0.390   2.925   1.894
  717HOH     H2 2339   0.390   2.839   1.769
  718HOH      O 2340   3.938   0.750   3.052
  718HOH     H1 2341   3.929   0.772   2.959
  718HOH     H2 2342   3.943   0.834   3.097
  719HOH      O 2343   0.177   1.950   0.152
  719HOH     H1 2344   0.159   1.878   0.212
  719HOH     H2 2345   0.126   1.929   0.073
  720HOH      O 2346   3.126   2.241   1.489
  720HOH     H1 2347   3.126   2.267   1.397
  720HOH     H2 2348   3.070   2.163   1.491
  721HOH      O 2349   3.890   2.342   1.420
  721HOH     H1 2350   3.897   2.398   1.497
  721HOH     H2 2351   3.871   2.255   1.455
  722HOH      O 2352   2.178   2.551   3.649
  722HOH     H1 2353   2.102   2.591   3.607
  722HOH     H2 2354   2.210   2.487   3.585
  723HOH      O 2355   3.804   1.253   0.476
  723HOH     H1 2356   3.797   1.346   0.501
  723HOH     H2 2357   3.808   1.207   0.560
  724HOH      O 2358   2.339   3.916   3.969
  724HOH     H1 2359   2.278   3.861   4.017
  724HOH     H2 2360   2.295   4.001   3.961
  725HOH      O 2361   2.921   1.912   3.078
  725HOH     H1 2362   2.998   1.859   3.095
  725HOH     H2 2363   2.954   2.002   3.076
  726HOH      O 2364   3.666   1.914   3.599
  726HOH     H1 2365   3.598   1.900   3.533
  726HOH     H2 2366   3.701   2.001   3.578
  727HOH      O 2367   0.121   0.591   1.655
  727HOH     H1 2368   0.206   0.635   1.648
  727HOH     H2 2369   0.128   0.516   1.595
  728HOH      O 2370   0.150   1.449   1.243
  728HOH     H1 2371   0.183   1.384   1.181
  728HOH     H2 2372   0.065   1.416   1.270
  729HOH      O 2373   1.299   0.431   2.190
  729HOH     H1 2374   1.348   0.381   2.125
  729HOH     H2 2375   1.211   0.393   2.187
  730HOH      O 2376   3.902   2.412   2.117
  730HOH     H1 2377   3.837   2.454   2.061
  730HOH     H2 2378   3.871   2.429   2.206
  731HOH      O 2379   0.085   1.064   1.255
  731HOH     H1 2380   0.152   1.022   1.201
  731HOH     H2 2381   0.122   1.150   1.276
  732HOH      O 2382   3.595   2.093   3.108
  732HOH     H1 2383   3.629   2.179   3.132
  732HOH     H2 2384   3.658   2.031   3.143
  733HOH      O 2385   2.746   1.216   1.980
  733HOH     H1 2386   2.715   1.284   2.039
  733HOH     H2 2387   2.715   1.244   1.893
  734HOH      O 2388   2.126   1.070   2.103
  734HOH     H1 2389   2.049   1.081   2.048
  734HOH     H2 2390   2.111   0.987   2.150
  735HOH      O 2391   3.201   3.227   3.928
  735HOH     H1 2392   3.218   3.136   3.902
  735HOH     H2 2393   3.249   3.237   4.010
  736HOH      O 2394   1.182   0.185   0.403
  736HOH     H1 2395   1.092   0.215   0.417
  736HOH     H2 2396   1.235   0.264   0.406
  737HOH      O 2397   2.507   3.646   0.625
  737HOH     H1 2398   2.500   3.643   0.530
  737HOH     H2 2399   2.546   3.561   0.649
  738HOH      O 2400   1.592   3.129   0.012
  738HOH     H1 2401   1.680   3.159  -0.012
  738HOH     H2 2402   1.605   3.079   0.093
  739HOH      O 2403   2.513   3.059   3.506
  739HOH     H1 2404   2.549   3.060   3.418
  739HOH     H2 2405   2.590   3.060   3.563
  740HOH      O 2406   2.690   0.839   2.306
  740HOH     H1 2407   2.764   0.827   2.247
  740HOH     H2 2408   2.613   0.840   2.248
  741HOH      O 2409   3.783   2.648   0.407
  741HOH     H1 2410   3.689   2.662   0.422
  741HOH     H2 2411   3.824   2.675   0.489
  742HOH      O 2412   3.182   0.253   1.998
  742HOH     H1 2413   3.097   0.229   2.035
  742HOH     H2 2414   3.166   0.336   1.953
  743HOH      O 2415   1.664   1.611   0.015
  743HOH     H1 2416   1.693   1.655  -0.065
  743HOH     H2 2417   1.606   1.673   0.057
  744HOH      O 2418   0.970   0.101   1.068
  744HOH     H1 2419   1.056   0.064   1.046
  744HOH     H2 2420   0.969   0.102   1.163
  745HOH      O 2421   3.666   2.012   0.605
  745HOH     H1 2422   3.614   2.071   0.660
  745HOH     H2 2423   3.627   2.020   0.518
  746HOH      O 2424   3.420   0.236   3.316
  746HOH     H1 2425   3.458   0.288   3.245
  746HOH     H2 2426   3.366   0.170   3.271
  747HOH      O 2427   1.812   3.055   0.631
  747HOH     H1 2428   1.852   3.130   0.588
  747HOH     H2 2429   1.827   3.070   0.725
  748HOH      O 2430   0.389   0.353   2.263
  748HOH     H1 2431   0.334   0.281   2.294
  748HOH     H2 2432   0.342   0.388   2.187
  749HOH      O 2433   2.281   2.851   1.068
  749HOH     H1 2434   2.368   2.821   1.094
  749HOH     H2 2435   2.229   2.843   1.148
  750HOH      O 2436   1.557   2.689   3.591
  750HOH     H1 2437   1.572   2.777   3.556
  750HOH     H2 2438   1.618   2.682   3.665
  751HOH      O 2439   1.571   3.000   0.269
  751HOH     H1 2440   1.497   3.046   0.309
  751HOH     H2 2441   1.647   3.053   0.291
  752HOH      O 2442   2.349   1.201   1.639
  752HOH     H1 2443   2.317   1.161   1.558
  752HOH     H2 2444   2.273   1.246   1.676
  753HOH      O 2445   2.420   3.394   3.981
  753HOH     H1 2446   2.384   3.471   3.937
  753HOH     H2 2447   2.491   3.428   4.035
  754HOH      O 2448   0.263   0.671   2.299
  754HOH     H1 2449   0.328   0.621   2.349
  754HOH     H2 2450   0.312   0.706   2.225
  755HOH      O 2451   0.507   3.902   1.900
  755HOH     H1 2452   0.539   3.979   1.854
  755HOH     H2 2453   0.475   3.844   1.831
  756HOH      O 2454   0.111   3.484   0.238
  756HOH     H1 2455   0.049   3.519   0.302
  756HOH     H2 2456   0.080   3.395   0.220
  757HOH      O 2457   3.339   1.689   3.710
  757HOH     H1 2458   3.245   1.685   3.728
  757HOH     H2 2459   3.349   1.762   3.650
  758HOH      O 2460   0.541   1.957   0.497
  758HOH     H1 2461   0.476   1.971   0.566
  758HOH     H2 2462   0.495   1.981   0.417
  759HOH      O 2463   2.389   1.690   0.288
  759HOH     H1 2464   2.352   1.609   0.323
  759HOH     H2 2465   2.482   1.687   0.312
  760HOH      O 2466   2.218   0.837   3.112
  760HOH     H1 2467   2.125   0.832   3.136
  760HOH     H2 2468   2.224   0.911   3.052
  761HOH      O 2469   3.116   3.899   1.476
  761HOH     H1 2470   3.067   3.922   1.554
  761HOH     H2 2471   3.197   3.949   1.483
  762HOH      O 2472   1.869   0.989   3.067
  762HOH     H1 2473   1.948   0.993   3.013
  762HOH     H2 2474   1.899   0.953   3.151
  763HOH      O 2475   0.065   1.486   3.560
  763HOH     H1 2476   0.098   1.450   3.478
  763HOH     H2 2477  -0.006   1.544   3.535
  764HOH      O 2478   3.763   3.952   0.173
  764HOH     H1 2479   3.822   4.026   0.160
  764HOH     H2 2480   3.752   3.915   0.085
  765HOH      O 2481   1.656   0.587   3.366
  765HOH     H1 2482   1.726   0.602   3.303
  765HOH     H2 2483   1.699   0.548   3.442
  766HOH      O 2484   2.067   2.131   3.436
  766HOH     H1 2485   2.104   2.066   3.377
  766HOH     H2 2486   2.040   2.203   3.379
  767HOH      O 2487   0.294   3.438   2.805
  767HOH     H1 2488   0.365   3.447   2.742
  767HOH     H2 2489   0.273   3.345   2.804
  768HOH      O 2490   3.611   3.445   1.788
  768HOH     H1 2491   3.581   3.518   1.842
  768HOH     H2 2492   3.702   3.431   1.816
  769HOH      O 2493   3.268   0.612   0.114
  769HOH     H1 2494   3.287   0.669   0.189
  769HOH     H2 2495   3.174   0.597   0.118
  770HOH      O 2496   0.355   1.165   0.193
  770HOH     H1 2497   0.411   1.207   0.258
  770HOH     H2 2498   0.338   1.233   0.128
  771HOH      O 2499   2.834   0.648   0.484
  771HOH     H1 2500   2.834   0.729   0.434
  771HOH     H2 2501   2.818   0.580   0.419
  772HOH      O 2502   0.667   3.858   3.230
  772HOH     H1 2503   0.663   3.784   3.169
  772HOH     H2 2504   0.758   3.889   3.224
  773HOH      O 2505   0.950   2.597   3.522
  773HOH     H1 2506   1.021   2.634   3.470
  773HOH     H2 2507   0.901   2.543   3.461
  774HOH      O 2508   3.451   3.247   3.507
  774HOH     H1 2509   3.397   3.168   3.511
  774HOH     H2 2510   3.438   3.280   3.419
  775HOH      O 2511   0.478   1.563   0.396
  775HOH     H1 2512   0.486   1.476   0.357
  775HOH     H2 2513   0.490   1.624   0.323
  776HOH      O 2514   2.853   0.909   0.370
  776HOH     H1 2515   2.780   0.951   0.416
  776HOH     H2 2516   2.931   0.954   0.403
  777HOH      O 2517   3.215   0.031   2.150
  777HOH     H1 2518   3.165   0.074   2.220
  777HOH     H2 2519   3.229   0.100   2.085
  778HOH      O 2520   0.931   1.675   3.788
  778HOH     H1 2521   1.026   1.684   3.789
  778HOH     H2 2522   0.902   1.716   3.870
  779HOH      O 2523   3.310   1.576   2.231
  779HOH     H1 2524   3.386   1.553   2.284
  779HOH     H2 2525   3.245   1.508   2.251
  780HOH      O 2526   1.316   0.514   2.465
  780HOH     H1 2527   1.281   0.518   2.377
  780HOH     H2 2528   1.406   0.548   2.457
  781HOH      O 2529   1.774   1.894   2.057
  781HOH     H1 2530   1.745   1.983   2.037
  781HOH     H2 2531   1.867   1.894   2.034
  782HOH      O 2532   2.365   3.161   3.804
  782HOH     H1 2533   2.400   3.242   3.840
  782HOH     H2 2534   2.326   3.117   3.880
  783HOH      O 2535   3.095   2.322   2.944
  783HOH     H1 2536   3.102   2.272   2.862
  783HOH     H2 2537   3.075   2.411   2.916
  784HOH      O 2538   0.756   0.970   3.602
  784HOH     H1 2539   0.825   1.035   3.610
  784HOH     H2 2540   0.677   1.021   3.586
  785HOH      O 2541   1.482   3.842   0.123
  785HOH     H1 2542   1.436   3.763   0.096
  785HOH     H2 2543   1.416   3.894   0.169
  786HOH      O 2544   2.739   3.050   0.154
  786HOH     H1 2545   2.697   3.065   0.069
  786HOH     H2 2546   2.671   3.073   0.218
  787HOH      O 2547   0.852   1.868   1.697
  787HOH     H1 2548   0.918   1.907   1.640
  787HOH     H2 2549   0.768   1.890   1.657
  788HOH      O 2550   1.346   2.354   0.301
  788HOH     H1 2551   1.312   2.437   0.267
  788HOH     H2 2552   1.371   2.374   0.391
  789HOH      O 2553   1.132   1.621   2.193
  789HOH     H1 2554   1.062   1.622   2.258
  789HOH     H2 2555   1.135   1.530   2.163
  790HOH      O 2556   3.508   1.022   1.727
  790HOH     H1 2557   3.528   1.078   1.651
  790HOH     H2 2558   3.578   0.957   1.727
  791HOH      O 2559   0.871   2.352   0.771
  791HOH     H1 2560   0.884   2.269   0.818
  791HOH     H2 2561   0.847   2.325   0.682
  792HOH      O 2562   2.179   0.744   3.941
  792HOH     H1 2563   2.143   0.826   3.906
  792HOH     H2 2564   2.160   0.679   3.873
  793HOH      O 2565   0.174   0.283   3.066
  793HOH     H1 2566   0.112   0.356   3.066
  793HOH     H2 2567   0.158   0.239   3.150
  794HOH      O 2568   3.198   3.066   0.912
  794HOH     H1 2569   3.117   3.017   0.919
  794HOH     H2 2570   3.261   3.004   0.875
  795HOH      O 2571   1.000   2.124   0.431
  795HOH     H1 2572   0.968   2.214   0.423
  795HOH     H2 2573   0.922   2.073   0.453
  796HOH      O 2574   2.565   1.155   2.287
  796HOH     H1 2575   2.627   1.152   2.360
  796HOH     H2 2576   2.543   1.063   2.271
  797HOH      O 2577   3.833   1.559   2.017
  797HOH     H1 2578   3.909   1.616   2.013
  797HOH     H2 2579   3.857   1.492   2.081
  798HOH      O 2580   2.528   3.979   2.229
  798HOH     H1 2581   2.450   3.977   2.284
  798HOH     H2 2582   2.500   3.939   2.147
  799HOH      O 2583   1.737   3.377   2.233
  799HOH     H1 2584   1.655   3.329   2.242
  799HOH     H2 2585   1.791   3.321   2.177
  800HOH      O 2586   2.201   1.596   1.059
  800HOH     H1 2587   2.229   1.508   1.035
  800HOH     H2 2588   2.110   1.585   1.088
  801HOH      O 2589   2.276   3.630   3.564
  801HOH     H1 2590   2.215   3.682   3.512
  801HOH     H2 2591   2.363   3.654   3.531
  802HOH      O 2592   2.055   3.524   3.672
  802HOH     H1 2593   2.134   3.562   3.635
  802HOH     H2 2594   2.013   3.479   3.598
  803HOH      O 2595   3.115   2.982   0.569
  803HOH     H1 2596   3.066   3.002   0.489
  803HOH     H2 2597   3.169   3.060   0.584
  804HOH      O 2598   1.683   2.477   0.157
  804HOH     H1 2599   1.600   2.483   0.111
  804HOH     H2 2600   1.728   2.559   0.137
  805HOH      O 2601   3.304   3.397   0.811
  805HOH     H1 2602   3.303   3.463   0.881
  805HOH     H2 2603   3.292   3.447   0.731
  806HOH      O 2604   1.479   3.259   3.728
  806HOH     H1 2605   1.420   3.305   3.668
  806HOH     H2 2606   1.436   3.176   3.745
  807HOH      O 2607   0.753   3.281   2.226
  807HOH     H1 2608   0.848   3.287   2.230
  807HOH     H2 2609   0.730   3.216   2.293
  808HOH      O 2610   1.847   0.298   0.777
  808HOH     H1 2611   1.798   0.243   0.839
  808HOH     H2 2612   1.888   0.235   0.718
  809HOH      O 2613   2.063   1.919   3.221
  809HOH     H1 2614   2.143   1.883   3.259
  809HOH     H2 2615   1.994   1.896   3.284
  810HOH      O 2616   2.109   2.580   0.240
  810HOH     H1 2617   2.073   2.504   0.194
  810HOH     H2 2618   2.058   2.585   0.321
  811HOH      O 2619   0.045   2.704   0.490
  811HOH     H1 2620   0.139   2.717   0.503
  811HOH     H2 2621   0.037   2.672   0.400
  812HOH      O 2622   0.822   1.257   2.771
  812HOH     H1 2623   0.832   1.304   2.688
  812HOH     H2 2624   0.848   1.167   2.750
  813HOH      O 2625   2.650   2.556   1.479
  813HOH     H1 2626   2.603   2.632   1.445
  813HOH     H2 2627   2.601   2.532   1.558
  814HOH      O 2628   1.551   1.846   1.844
  814HOH     H1 2629   1.624   1.876   1.898
  814HOH     H2 2630   1.498   1.793   1.904
  815HOH      O 2631   0.181   3.339   1.873
  815HOH     H1 2632   0.123   3.325   1.948
  815HOH     H2 2633   0.128   3.388   1.810
  816HOH      O 2634   1.343   1.076   2.068
  816HOH     H1 2635   1.432   1.062   2.038
  816HOH     H2 2636   1.304   0.989   2.070
  817HOH      O 2637   3.944   2.603   2.577
  817HOH     H1 2638   3.997   2.656   2.517
  817HOH     H2 2639   3.858   2.644   2.576
  818HOH      O 2640   3.237   0.634   3.849
  818HOH     H1 2641   3.261   0.727   3.856
  818HOH     H2 2642   3.259   0.597   3.935
  819HOH      O 2643   0.983   1.087   2.399
  819HOH     H1 2644   0.893   1.118   2.404
  819HOH     H2 2645   1.031   1.144   2.458
  820HOH      O 2646   0.266   1.712   0.599
  820HOH     H1 2647   0.349   1.706   0.552
  820HOH     H2 2648   0.253   1.626   0.637
  821HOH      O 2649   0.535   1.002   2.788
  821HOH     H1 2650   0.465   0.996   2.853
  821HOH     H2 2651   0.603   0.942   2.820
  822HOH      O 2652   0.708   1.620   0.130
  822HOH     H1 2653   0.648   1.569   0.075
  822HOH     H2 2654   0.652   1.686   0.171
  823HOH      O 2655   1.079   2.114   2.830
  823HOH     H1 2656   1.160   2.086   2.873
  823HOH     H2 2657   1.082   2.210   2.835
  824HOH      O 2658   2.484   2.767   0.530
  824HOH     H1 2659   2.457   2.856   0.508
  824HOH     H2 2660   2.408   2.712   0.509
  825HOH      O 2661   0.594   1.343   1.714
  825HOH     H1 2662   0.501   1.321   1.717
  825HOH     H2 2663   0.617   1.362   1.805
  826HOH      O 2664   3.747   2.595   2.006
  826HOH     H1 2665   3.670   2.541   1.985
  826HOH     H2 2666   3.767   2.640   1.924
  827HOH      O 2667   0.679   0.735   3.200
  827HOH     H1 2668   0.630   0.668   3.247
  827HOH     H2 2669   0.764   0.738   3.242
  828HOH      O 2670   2.008   0.837   2.789
  828HOH     H1 2671   2.025   0.813   2.698
  828HOH     H2 2672   2.073   0.787   2.839
  829HOH      O 2673   2.671   2.511   2.567
  829HOH     H1 2674   2.690   2.466   2.650
  829HOH     H2 2675   2.678   2.604   2.588
  830HOH      O 2676   2.896   3.505   0.600
  830HOH     H1 2677   2.893   3.566   0.527
  830HOH     H2 2678   2.812   3.460   0.598
  831HOH      O 2679   3.902   0.856   3.746
  831HOH     H1 2680   3.959   0.780   3.736
  831HOH     H2 2681   3.871   0.874   3.657
  832HOH      O 2682   1.318   3.359   2.397
  832HOH     H1 2683   1.239   3.401   2.431
  832HOH     H2 2684   1.352   3.422   2.332
  833HOH      O 2685   3.535   3.733   0.133
  833HOH     H1 2686   3.473   3.796   0.096
  833HOH     H2 2687   3.618   3.750   0.087
  834HOH      O 2688   2.737   0.383   2.471
  834HOH     H1 2689   2.804   0.316   2.486
  834HOH     H2 2690   2.762   0.455   2.529
  835HOH      O 2691   1.181   2.849   3.124
  835HOH     H1 2692   1.229   2.916   3.172
  835HOH     H2 2693   1.238   2.826   3.052
  836HOH      O 2694   0.227   0.898   1.102
  836HOH     H1 2695   0.239   0.914   1.009
  836HOH     H2 2696   0.210   0.804   1.109
  837HOH      O 2697   2.527   3.131   0.354
  837HOH     H1 2698   2.434   3.112   0.341
  837HOH     H2 2699   2.530   3.225   0.373
  838HOH      O 2700   3.438   1.148   0.422
  838HOH     H1 2701   3.345   1.173   0.423
  838HOH     H2 2702   3.463   1.150   0.330
  839HOH      O 2703   0.504   1.544   2.788
  839HOH     H1 2704   0.506   1.448   2.789
  839HOH     H2 2705   0.555   1.569   2.865
  840HOH      O 2706   0.981   4.018   1.650
  840HOH     H1 2707   0.997   3.951   1.584
  840HOH     H2 2708   1.005   3.977   1.732
  841HOH      O 2709   2.711   2.924   1.511
  841HOH     H1 2710   2.754   3.007   1.534
  841HOH     H2 2711   2.745   2.861   1.574
  842HOH      O 2712   3.209   1.303   0.517
  842HOH     H1 2713   3.190   1.379   0.572
  842HOH     H2 2714   3.201   1.228   0.575
  843HOH      O 2715   3.678   2.268   1.159
  843HOH     H1 2716   3.583   2.270   1.144
  843HOH     H2 2717   3.691   2.328   1.233
  844HOH      O 2718   0.078   0.975   1.719
  844HOH     H1 2719  -0.008   1.017   1.717
  844HOH     H2 2720   0.124   1.010   1.642
  845HOH      O 2721   1.876   2.755   3.351
  845HOH     H1 2722   1.814   2.717   3.289
  845HOH     H2 2723   1.960   2.750   3.307
  846HOH      O 2724   0.161   2.533   3.411
  846HOH     H1 2725   0.116   2.518   3.328
  846HOH     H2 2726   0.105   2.596   3.458
  847HOH      O 2727   1.729   2.368   2.533
  847HOH     H1 2728   1.737   2.352   2.627
  847HOH     H2 2729   1.774   2.451   2.519
  848HOH      O 2730   0.248   0.471   2.048
  848HOH     H1 2731   0.167   0.448   2.003
  848HOH     H2 2732   0.273   0.556   2.011
  849HOH      O 2733   3.237   0.151   3.817
  849HOH     H1 2734   3.314   0.126   3.766
  849HOH     H2 2735   3.164   0.144   3.756
  850HOH      O 2736   0.775   3.346   0.688
  850HOH     H1 2737   0.760   3.291   0.611
  850HOH     H2 2738   0.869   3.360   0.690
  851HOH      O 2739   0.686   1.483   3.575
  851HOH     H1 2740   0.656   1.564   3.616
  851HOH     H2 2741   0.774   1.503   3.543
  852HOH      O 2742   1.045   2.622   0.892
  852HOH     H1 2743   1.005   2.607   0.806
  852HOH     H2 2744   0.981   2.675   0.940
  853HOH      O 2745   0.653   2.951   2.021
  853HOH     H1 2746   0.695   2.880   1.971
  853HOH     H2 2747   0.597   2.995   1.956
  854HOH      O 2748   0.571   1.017   0.630
  854HOH     H1 2749   0.519   1.028   0.550
  854HOH     H2 2750   0.652   0.974   0.601
  855HOH      O 2751   1.775   3.706   2.281
  855HOH     H1 2752   1.809   3.622   2.251
  855HOH     H2 2753   1.816   3.719   2.366
  856HOH      O 2754   0.165   2.267   1.374
  856HOH     H1 2755   0.122   2.234   1.453
  856HOH     H2 2756   0.095   2.271   1.308
  857HOH      O 2757   2.372   2.321   1.513
  857HOH     H1 2758   2.279   2.344   1.519
  857HOH     H2 2759   2.418   2.403   1.528
  858HOH      O 2760   1.864   0.806   3.783
  858HOH     H1 2761   1.797   0.820   3.850
  858HOH     H2 2762   1.938   0.860   3.810
  859HOH      O 2763   1.127   3.734   2.918
  859HOH     H1 2764   1.057   3.796   2.897
  859HOH     H2 2765   1.206   3.788   2.920
  860HOH      O 2766   1.238   3.301   0.898
  860HOH     H1 2767   1.263   3.384   0.937
  860HOH     H2 2768   1.322   3.261   0.873
  861HOH      O 2769   0.474   1.828   3.034
  861HOH     H1 2770   0.500   1.839   2.943
  861HOH     H2 2771   0.466   1.918   3.068
  862HOH      O 2772   2.822   2.183   1.723
  862HOH     H1 2773   2.858   2.265   1.688
  862HOH     H2 2774   2.859   2.115   1.666
  863HOH      O 2775   1.660   2.318   3.891
  863HOH     H1 2776   1.740   2.360   3.857
  863HOH     H2 2777   1.598   2.390   3.902
  864HOH      O 2778   2.461   1.243   2.596
  864HOH     H1 2779   2.397   1.219   2.529
  864HOH     H2 2780   2.429   1.326   2.631
  865HOH      O 2781   1.473   2.532   1.241
  865HOH     H1 2782   1.381   2.507   1.232
  865HOH     H2 2783   1.522   2.451   1.225
  866HOH      O 2784   2.688   3.944   1.437
  866HOH     H1 2785   2.772   3.952   1.392
  866HOH     H2 2786   2.702   3.986   1.522
  867HOH      O 2787   1.767   2.170   0.060
  867HOH     H1 2788   1.726   2.213  -0.015
  867HOH     H2 2789   1.830   2.234   0.093
  868HOH      O 2790   3.348   3.393   0.537
  868HOH     H1 2791   3.280   3.369   0.473
  868HOH     H2 2792   3.393   3.466   0.496
  869HOH      O 2793   0.976   3.953   1.919
  869HOH     H1 2794   0.949   3.865   1.945
  869HOH     H2 2795   1.060   3.966   1.964
  870HOH      O 2796   0.249   2.188   1.876
  870HOH     H1 2797   0.189   2.196   1.949
  870HOH     H2 2798   0.334   2.213   1.912
  871HOH      O 2799   1.866   2.514   1.561
  871HOH     H1 2800   1.950   2.517   1.607
  871HOH     H2 2801   1.802   2.503   1.632
  872HOH      O 2802   3.595   0.973   2.342
  872HOH     H1 2803   3.574   0.887   2.379
  872HOH     H2 2804   3.688   0.984   2.359
  873HOH      O 2805   3.104   0.505   0.672
  873HOH     H1 2806   3.073   0.454   0.746
  873HOH     H2 2807   3.163   0.445   0.625
  874HOH      O 2808   2.525   1.965   2.207
  874HOH     H1 2809   2.598   1.992   2.263
  874HOH     H2 2810   2.538   2.014   2.126
  875HOH      O 2811   1.993   1.221   2.425
  875HOH     H1 2812   1.940   1.151   2.462
  875HOH     H2 2813   1.933   1.270   2.370
  876HOH      O 2814   0.813   2.653   2.898
  876HOH     H1 2815   0.749   2.601   2.850
  876HOH     H2 2816   0.843   2.719   2.836
  877HOH      O 2817   4.007   2.244   0.511
  877HOH     H1 2818   3.938   2.231   0.446
  877HOH     H2 2819   4.078   2.286   0.462
  878HOH      O 2820   1.974   3.803   3.811
  878HOH     H1 2821   2.004   3.777   3.723
  878HOH     H2 2822   2.000   3.731   3.867
  879HOH      O 2823   2.790   0.476   2.922
  879HOH     H1 2824   2.835   0.512   2.845
  879HOH     H2 2825   2.698   0.473   2.896
  880HOH      O 2826   1.900   1.731   0.725
  880HOH     H1 2827   1.832   1.783   0.681
  880HOH     H2 2828   1.933   1.787   0.795
  881HOH      O 2829   1.506   2.893   0.787
  881HOH     H1 2830   1.580   2.914   0.844
  881HOH     H2 2831   1.434   2.874   0.848
  882HOH      O 2832   3.869   1.327   2.922
  882HOH     H1 2833   3.892   1.412   2.958
  882HOH     H2 2834   3.778   1.313   2.948
  883HOH      O 2835   1.306   0.973   1.529
  883HOH     H1 2836   1.314   1.036   1.601
  883HOH     H2 2837   1.214   0.947   1.530
  884HOH      O 2838   1.343   0.040   2.330
  884HOH     H1 2839   1.323  -0.054   2.322
  884HOH     H2 2840   1.422   0.051   2.276
  885HOH      O 2841   2.547   0.197   3.997
  885HOH     H1 2842   2.553   0.125   3.934
  885HOH     H2 2843   2.482   0.168   4.061
  886HOH      O 2844   3.193   1.382   2.970
  886HOH     H1 2845   3.281   1.343   2.963
  886HOH     H2 2846   3.134   1.314   2.937
  887HOH      O 2847   3.531   3.543   2.158
  887HOH     H1 2848   3.571   3.612   2.106
  887HOH     H2 2849   3.450   3.580   2.191
  888HOH      O 2850   1.337   3.093   1.379
  888HOH     H1 2851   1.263   3.068   1.435
  888HOH     H2 2852   1.415   3.064   1.427
  889HOH      O 2853   1.458   3.160   0.780
  889HOH     H1 2854   1.426   3.156   0.690
  889HOH     H2 2855   1.484   3.070   0.801
  890HOH      O 2856   2.895   1.917   1.902
  890HOH     H1 2857   2.843   1.871   1.837
  890HOH     H2 2858   2.985   1.892   1.883
  891HOH      O 2859   1.149   1.375   2.072
  891HOH     H1 2860   1.183   1.289   2.047
  891HOH     H2 2861   1.151   1.425   1.990
  892HOH      O 2862   2.088   3.508   1.799
  892HOH     H1 2863   2.141   3.586   1.814
  892HOH     H2 2864   2.000   3.543   1.780
  893HOH      O 2865   2.427   3.920   0.260
  893HOH     H1 2866   2.426   3.956   0.349
  893HOH     H2 2867   2.406   3.994   0.204
  894HOH      O 2868   1.123   3.476   2.959
  894HOH     H1 2869   1.212   3.453   2.984
  894HOH     H2 2870   1.125   3.571   2.947
  895HOH      O 2871   2.958   3.931   0.378
  895HOH     H1 2872   3.028   3.927   0.314
  895HOH     H2 2873   2.936   4.024   0.385
  896HOH      O 2874   2.402   2.549   2.394
  896HOH     H1 2875   2.435   2.613   2.457
  896HOH     H2 2876   2.307   2.550   2.407
  897HOH      O 2877   0.458   1.508   3.771
  897HOH     H1 2878   0.510   1.514   3.851
  897HOH     H2 2879   0.385   1.450   3.794
  898HOH      O 2880   1.562   1.372   3.890
  898HOH     H1 2881   1.553   1.402   3.799
  898HOH     H2 2882   1.608   1.444   3.934
  899HOH      O 2883   2.282   2.028   1.478
  899HOH     H1 2884   2.348   2.096   1.495
  899HOH     H2 2885   2.254   2.001   1.565
  900HOH      O 2886   0.124   0.374   1.491
  900HOH     H1 2887   0.210   0.351   1.456
  900HOH     H2 2888   0.092   0.292   1.530
  901HOH      O 2889   0.924   3.817   0.935
  901HOH     H1 2890   0.976   3.758   0.989
  901HOH     H2 2891   0.975   3.898   0.931
  902HOH      O 2892   3.030   1.116   0.054
  902HOH     H1 2893   3.077   1.053  -0.001
  902HOH     H2 2894   3.005   1.067   0.132
  903HOH      O 2895   2.090   3.433   1.355
  903HOH     H1 2896   2.112   3.521   1.388
  903HOH     H2 2897   2.065   3.448   1.263
  904HOH      O 2898   0.140   1.230   0.906
  904HOH     H1 2899   0.183   1.237   0.991
  904HOH     H2 2900   0.177   1.301   0.854
  905HOH      O 2901   1.754   3.756   3.377
  905HOH     H1 2902   1.818   3.690   3.351
  905HOH     H2 2903   1.804   3.837   3.383
  906HOH      O 2904   1.405   2.615   3.377
  906HOH     H1 2905   1.368   2.531   3.403
  906HOH     H2 2906   1.470   2.635   3.443
  907HOH      O 2907   2.332   2.308   3.546
  907HOH     H1 2908   2.419   2.326   3.580
  907HOH     H2 2909   2.315   2.217   3.571
  908HOH      O 2910   3.617   0.718   2.458
  908HOH     H1 2911   3.571   0.634   2.452
  908HOH     H2 2912   3.709   0.694   2.472
  909HOH      O 2913   3.960   1.806   2.435
  909HOH     H1 2914   4.045   1.850   2.432
  909HOH     H2 2915   3.929   1.820   2.524
  910HOH      O 2916   1.466   2.382   2.326
  910HOH     H1 2917   1.442   2.289   2.320
  910HOH     H2 2918   1.526   2.386   2.401
  911HOH      O 2919   2.264   3.998   3.596
  911HOH     H1 2920   2.359   4.008   3.596
  911HOH     H2 2921   2.236   4.037   3.678
  912HOH      O 2922   0.219   0.294   0.852
  912HOH     H1 2923   0.174   0.210   0.866
  912HOH     H2 2924   0.149   0.359   0.854
  913HOH      O 2925   2.003   0.807   3.265
  913HOH     H1 2926   1.934   0.741   3.272
  913HOH     H2 2927   2.021   0.833   3.355
  914HOH      O 2928   0.969   1.499   1.616
  914HOH     H1 2929   0.943   1.552   1.691
  914HOH     H2 2930   1.006   1.561   1.554
  915HOH      O 2931   2.776   1.529   3.920
  915HOH     H1 2932   2.757   1.477   3.843
  915HOH     H2 2933   2.859   1.494   3.954
  916HOH      O 2934   0.823   2.598   1.264
  916HOH     H1 2935   0.768   2.528   1.230
  916HOH     H2 2936   0.826   2.664   1.194
  917HOH      O 2937   2.187   1.073   2.648
  917HOH     H1 2938   2.184   0.979   2.627
  917HOH     H2 2939   2.214   1.115   2.566
  918HOH      O 2940   1.440   1.680   0.723
  918HOH     H1 2941   1.465   1.632   0.802
  918HOH     H2 2942   1.350   1.650   0.705
  919HOH      O 2943   1.212   2.599   1.126
  919HOH     H1 2944   1.146   2.609   1.058
  919HOH     H2 2945   1.290   2.642   1.090
  920HOH      O 2946   2.664   1.910   2.889
  920HOH     H1 2947   2.730   1.898   2.957
  920HOH     H2 2948   2.696   1.858   2.815
  921HOH      O 2949   2.433   0.945   3.781
  921HOH     H1 2950   2.362   0.988   3.733
  921HOH     H2 2951   2.485   1.017   3.815
  922HOH      O 2952   3.376   0.820   3.477
  922HOH     H1 2953   3.426   0.830   3.558
  922HOH     H2 2954   3.373   0.725   3.462
  923HOH      O 2955   1.063   2.551   1.630
  923HOH     H1 2956   1.068   2.481   1.565
  923HOH     H2 2957   1.144   2.601   1.620
  924HOH      O 2958   1.105   3.638   1.801
  924HOH     H1 2959   1.149   3.558   1.830
  924HOH     H2 2960   1.048   3.609   1.730
  925HOH      O 2961   2.444   2.547   1.673
  925HOH     H1 2962   2.423   2.633   1.711
  925HOH     H2 2963   2.437   2.486   1.747
  926HOH      O 2964   3.959   2.531   0.995
  926HOH     H1 2965   3.885   2.590   1.006
  926HOH     H2 2966   3.998   2.525   1.082
  927HOH      O 2967   0.141   2.309   2.465
  927HOH     H1 2968   0.047   2.323   2.449
  927HOH     H2 2969   0.152   2.331   2.557
  928HOH      O 2970   0.480   3.651   3.586
  928HOH     H1 2971   0.394   3.656   3.629
  928HOH     H2 2972   0.472   3.579   3.524
  929HOH      O 2973   2.270   3.308   0.187
  929HOH     H1 2974   2.295   3.364   0.114
  929HOH     H2 2975   2.241   3.227   0.146
  930HOH      O 2976   2.070   0.966   3.837
  930HOH     H1 2977   2.116   1.021   3.773
  930HOH     H2 2978   2.063   1.020   3.915
  931HOH      O 2979   1.450   1.496   1.963
  931HOH     H1 2980   1.427   1.585   1.988
  931HOH     H2 2981   1.405   1.481   1.880
  932HOH      O 2982   2.450   0.842   1.005
  932HOH     H1 2983   2.358   0.864   1.019
  932HOH     H2 2984   2.461   0.757   1.048
  933HOH      O 2985   2.135   1.753   0.457
  933HOH     H1 2986   2.182   1.670   0.469
  933HOH     H2 2987   2.135   1.793   0.544
  934HOH      O 2988   2.493   0.842   2.972
  934HOH     H1 2989   2.429   0.857   3.042
  934HOH     H2 2990   2.577   0.836   3.017
  935HOH      O 2991   2.431   2.875   3.166
  935HOH     H1 2992   2.468   2.814   3.102
  935HOH     H2 2993   2.470   2.960   3.144
  936HOH      O 2994   3.704   2.040   1.836
  936HOH     H1 2995   3.612   2.030   1.812
  936HOH     H2 2996   3.705   2.027   1.931
  937HOH      O 2997   3.045   0.451   2.323
  937HOH     H1 2998   3.061   0.485   2.411
  937HOH     H2 2999   3.058   0.357   2.331
  938HOH      O 3000   3.549   3.881   0.469
  938HOH     H1 3001   3.580   3.830   0.544
  938HOH     H2 3002   3.595   3.964   0.476
  939HOH      O 3003   0.492   0.389   1.787
  939HOH     H1 3004   0.444   0.471   1.778
  939HOH     H2 3005   0.480   0.364   1.878
  940HOH      O 3006   2.508   2.810   1.405
  940HOH     H1 3007   2.585   2.850   1.446
  940HOH     H2 3008   2.490   2.865   1.329
  941HOH      O 3009   0.681   3.726   2.553
  941HOH     H1 3010   0.679   3.716   2.648
  941HOH     H2 3011   0.670   3.820   2.539
  942HOH      O 3012   0.210   1.284   1.489
  942HOH     H1 3013   0.118   1.306   1.505
  942HOH     H2 3014   0.258   1.365   1.506
  943HOH      O 3015   2.924   0.869   1.880
  943HOH     H1 3016   2.864   0.883   1.807
  943HOH     H2 3017   2.880   0.804   1.936
  944HOH      O 3018   1.575   1.532   0.905
  944HOH     H1 3019   1.528   1.452   0.930
  944HOH     H2 3020   1.625   1.507   0.827
  945HOH      O 3021   1.772   0.256   1.842
  945HOH     H1 3022   1.768   0.230   1.934
  945HOH     H2 3023   1.850   0.312   1.836
  946HOH      O 3024   0.144   1.435   0.598
  946HOH     H1 3025   0.163   1.447   0.505
  946HOH     H2 3026   0.166   1.343   0.615
  947HOH      O 3027   2.351   2.240   3.270
  947HOH     H1 3028   2.339   2.201   3.357
  947HOH     H2 3029   2.347   2.335   3.286
  948HOH      O 3030   3.200   3.418   0.302
  948HOH     H1 3031   3.181   3.511   0.291
  948HOH     H2 3032   3.160   3.376   0.225
  949HOH      O 3033   0.294   0.253   0.530
  949HOH     H1 3034   0.360   0.322   0.521
  949HOH     H2 3035   0.329   0.196   0.599
  950HOH      O 3036   1.496   1.023   2.514
  950HOH     H1 3037   1.447   1.072   2.448
  950HOH     H2 3038   1.429   0.979   2.565
  951HOH      O 3039   2.959   3.088   0.351
  951HOH     H1 3040   3.016   3.143   0.299
  951HOH     H2 3041   2.879   3.079   0.299
  952HOH      O 3042   0.876   1.983   3.007
  952HOH     H1 3043   0.858   2.073   3.034
  952HOH     H2 3044   0.958   1.989   2.958
  953HOH      O 3045   1.680   1.851   0.628
  953HOH     H1 3046   1.614   1.802   0.677
  953HOH     H2 3047   1.630   1.916   0.578
  954HOH      O 3048   2.376   1.574   1.709
  954HOH     H1 3049   2.300   1.521   1.685
  954HOH     H2 3050   2.418   1.525   1.781
  955HOH      O 3051   1.542   2.955   3.499
  955HOH     H1 3052   1.592   3.003   3.434
  955HOH     H2 3053   1.453   2.990   3.493
  956HOH      O 3054   0.431   1.278   2.828
  956HOH     H1 3055   0.366   1.258   2.761
  956HOH     H2 3056   0.506   1.222   2.806
  957HOH      O 3057   1.506  -0.016   0.721
  957HOH     H1 3058   1.510  -0.024   0.626
  957HOH     H2 3059   1.491   0.077   0.737
  958HOH      O 3060   3.731   0.776   1.079
  958HOH     H1 3061   3.825   0.768   1.063
  958HOH     H2 3062   3.716   0.870   1.091
  959HOH      O 3063   1.620   0.480   0.762
  959HOH     H1 3064   1.604   0.525   0.679
  959HOH     H2 3065   1.710   0.447   0.754
  960HOH      O 3066   0.471   1.723   3.597
  960HOH     H1 3067   0.407   1.744   3.665
  960HOH     H2 3068   0.448   1.634   3.570
  961HOH      O 3069   4.008   0.760   1.028
  961HOH     H1 3070   4.051   0.781   1.111
  961HOH     H2 3071   4.019   0.839   0.975
  962HOH      O 3072   1.731   0.889  -0.029
  962HOH     H1 3073   1.730   0.867   0.064
  962HOH     H2 3074   1.742   0.985  -0.031
  963HOH      O 3075   2.412   3.056   1.829
  963HOH     H1 3076   2.448   3.091   1.748
  963HOH     H2 3077   2.365   3.129   1.868
  964HOH      O 3078   2.958   2.602   2.653
  964HOH     H1 3079   2.923   2.514   2.639
  964HOH     H2 3080   2.976   2.606   2.746
  965HOH      O 3081   0.760   0.650   0.403
  965HOH     H1 3082   0.723   0.562   0.413
  965HOH     H2 3083   0.855   0.637   0.406
  966HOH      O 3084   0.980   0.437   1.600
  966HOH     H1 3085   1.038   0.495   1.649
  966HOH     H2 3086   1.037   0.365   1.573
  967HOH      O 3087   2.953   1.883   0.851
  967HOH     H1 3088   2.905   1.813   0.806
  967HOH     H2 3089   2.892   1.917   0.916
  968HOH      O 3090   0.896   2.825   2.703
  968HOH     H1 3091   0.979   2.803   2.662
  968HOH     H2 3092   0.866   2.904   2.658
  969HOH      O 3093   1.117   3.472   2.527
  969HOH     H1 3094   1.117   3.446   2.619
  969HOH     H2 3095   1.025   3.470   2.501
  970HOH      O 3096   3.105   0.693   0.445
  970HOH     H1 3097   3.060   0.660   0.367
  970HOH     H2 3098   3.073   0.638   0.516
  971HOH      O 3099   1.203   0.869   2.385
  971HOH     H1 3100   1.209   0.795   2.324
  971HOH     H2 3101   1.112   0.897   2.380
  972HOH      O 3102   2.898   2.530   0.704
  972HOH     H1 3103   2.895   2.493   0.792
  972HOH     H2 3104   2.982   2.577   0.701
  973HOH      O 3105   1.406   2.588   0.927
  973HOH     H1 3106   1.382   2.680   0.913
  973HOH     H2 3107   1.372   2.542   0.851
  974HOH      O 3108   2.100   0.182   3.229
  974HOH     H1 3109   2.159   0.141   3.165
  974HOH     H2 3110   2.158   0.204   3.303
  975HOH      O 3111   3.063   0.063   3.603
  975HOH     H1 3112   2.977   0.021   3.592
  975HOH     H2 3113   3.046   0.155   3.583
  976HOH      O 3114   3.814   0.886   4.003
  976HOH     H1 3115   3.846   0.913   3.916
  976HOH     H2 3116   3.757   0.811   3.985
  977HOH      O 3117   1.144   3.003   0.358
  977HOH     H1 3118   1.116   3.091   0.383
  977HOH     H2 3119   1.154   3.006   0.263
  978HOH      O 3120   3.010   1.222   0.815
  978HOH     H1 3121   3.032   1.240   0.906
  978HOH     H2 3122   3.010   1.127   0.808
  979HOH      O 3123   0.095   2.247   1.630
  979HOH     H1 3124   0.017   2.236   1.685
  979HOH     H2 3125   0.167   2.212   1.682
  980HOH      O 3126   2.365   0.900   0.094
  980HOH     H1 3127   2.435   0.925   0.034
  980HOH     H2 3128   2.292   0.876   0.037
  981HOH      O 3129   1.895   0.771   0.710
  981HOH     H1 3130   1.815   0.763   0.659
  981HOH     H2 3131   1.942   0.689   0.695
  982HOH      O 3132   3.735   2.684   1.083
  982HOH     H1 3133   3.720   2.707   1.175
  982HOH     H2 3134   3.665   2.622   1.062
  983HOH      O 3135   3.485   2.373   2.963
  983HOH     H1 3136   3.555   2.350   2.902
  983HOH     H2 3137   3.495   2.312   3.036
  984HOH      O 3138   0.326   0.977   2.983
  984HOH     H1 3139   0.288   1.061   3.007
  984HOH     H2 3140   0.372   0.948   3.062
  985HOH      O 3141   2.311   2.056   3.620
  985HOH     H1 3142   2.236   2.034   3.676
  985HOH     H2 3143   2.381   2.078   3.682
  986HOH      O 3144   2.707   1.274   1.359
  986HOH     H1 3145   2.744   1.218   1.426
  986HOH     H2 3146   2.660   1.214   1.300
  987HOH      O 3147   3.544   1.008   3.998
  987HOH     H1 3148   3.524   0.975   3.910
  987HOH     H2 3149   3.634   0.980   4.015
  988HOH      O 3150   3.640   0.735   0.619
  988HOH     H1 3151   3.726   0.706   0.647
  988HOH     H2 3152   3.603   0.660   0.572
  989HOH      O 3153   1.784   0.102   0.351
  989HOH     H1 3154   1.808   0.186   0.311
  989HOH     H2 3155   1.830   0.102   0.435
  990HOH      O 3156   1.236   0.829   0.281
  990HOH     H1 3157   1.160   0.886   0.290
  990HOH     H2 3158   1.256   0.829   0.188
  991HOH      O 3159   0.958   3.922   2.850
  991HOH     H1 3160   0.950   3.998   2.907
  991HOH     H2 3161   0.868   3.889   2.841
  992HOH      O 3162   3.702   3.824   1.672
  992HOH     H1 3163   3.614   3.805   1.703
  992HOH     H2 3164   3.747   3.862   1.748
  993HOH      O 3165   3.464   1.293   2.835
  993HOH     H1 3166   3.506   1.252   2.911
  993HOH     H2 3167   3.452   1.221   2.773
  994HOH      O 3168   2.446   0.208   1.638
  994HOH     H1 3169   2.447   0.214   1.734
  994HOH     H2 3170   2.455   0.115   1.620
  995HOH      O 3171   2.647   1.529   0.646
  995HOH     H1 3172   2.636   1.529   0.551
  995HOH     H2 3173   2.587   1.598   0.676
  996HOH      O 3174   3.179   0.189   1.423
  996HOH     H1 3175   3.110   0.164   1.362
  996HOH     H2 3176   3.201   0.279   1.398
  997HOH      O 3177   0.623   1.429   2.011
  997HOH     H1 3178   0.572   1.505   1.984
  997HOH     H2 3179   0.665   1.455   2.093
  998HOH      O 3180   0.926   3.411   2.780
  998HOH     H1 3181   0.852   3.454   2.823
  998HOH     H2 3182   1.002   3.437   2.833
  999HOH      O 3183   2.500   0.882   1.616
  999HOH     H1 3184   2.446   0.865   1.693
  999HOH     H2 3185   2.437   0.893   1.544
 1000HOH      O 3186   2.919   2.443   2.207
 1000HOH     H1 3187   2.831   2.443   2.243
 1000HOH     H2 3188   2.942   2.535   2.196
 1001HOH      O 3189   2.257   2.222   2.678
 1001HOH     H1 3190   2.194   2.155   2.650
 1001HOH     H2 3191   2.212   2.305   2.660
 1002HOH      O 3192   2.723   0.695   2.561
 1002HOH     H1 3193   2.636   0.699   2.601
 1002HOH     H2 3194   2.713   0.741   2.478
 1003HOH      O 3195   3.046   3.274   0.143
 1003HOH     H1 3196   3.013   3.353   0.102
 1003HOH     H2 3197   3.035   3.206   0.077
 1004HOH      O 3198   3.093   1.112   1.845
 1004HOH     H1 3199   3.024   1.048   1.863
 1004HOH     H2 3200   3.122   1.091   1.756
 1005HOH      O 3201   3.943   0.283   2.399
 1005HOH     H1 3202   4.001   0.356   2.376
 1005HOH     H2 3203   3.974   0.210   2.345
 1006HOH      O 3204   1.870   2.170   2.361
 1006HOH     H1 3205   1.835   2.242   2.413
 1006HOH     H2 3206   1.801   2.104   2.361
 1007HOH      O 3207   2.794   0.488   3.508
 1007HOH     H1 3208   2.819   0.575   3.540
 1007HOH     H2 3209   2.791   0.497   3.413
 1008HOH      O 3210   1.525   0.349   3.854
 1008HOH     H1 3211   1.464   0.335   3.783
 1008HOH     H2 3212   1.580   0.271   3.855
 1009HOH      O 3213   1.268   1.314   1.370
 1009HOH     H1 3214   1.175   1.293   1.360
 1009HOH     H2 3215   1.290   1.364   1.291
 1010HOH      O 3216   1.736   2.805   0.436
 1010HOH     H1 3217   1.726   2.867   0.509
 1010HOH     H2 3218   1.647   2.783   0.411
 1011HOH      O 3219   3.088   1.934   2.834
 1011HOH     H1 3220   2.994   1.944   2.818
 1011HOH     H2 3221   3.123   1.908   2.748
 1012HOH      O 3222   2.181   0.678   2.895
 1012HOH     H1 3223   2.183   0.705   2.987
 1012HOH     H2 3224   2.217   0.590   2.895
 1013HOH      O 3225   1.635   0.785   0.598
 1013HOH     H1 3226   1.593   0.795   0.684
 1013HOH     H2 3227   1.599   0.856   0.545
 1014HOH      O 3228   0.332   3.245   2.158
 1014HOH     H1 3229   0.383   3.166   2.175
 1014HOH     H2 3230   0.379   3.288   2.086
 1015HOH      O 3231   1.487   3.973   3.833
 1015HOH     H1 3232   1.412   3.944   3.781
 1015HOH     H2 3233   1.561   3.971   3.772
 1016HOH      O 3234   3.977   3.687   3.031
 1016HOH     H1 3235   3.908   3.690   2.966
 1016HOH     H2 3236   4.059   3.688   2.980
 1017HOH      O 3237   1.940   2.293   1.126
 1017HOH     H1 3238   1.997   2.239   1.180
 1017HOH     H2 3239   1.956   2.262   1.036
 1018HOH      O 3240   1.703   1.914   3.032
 1018HOH     H1 3241   1.712   1.988   2.972
 1018HOH     H2 3242   1.792   1.887   3.053
 1019HOH      O 3243   2.099   3.963   2.081
 1019HOH     H1 3244   2.152   3.891   2.046
 1019HOH     H2 3245   2.163   4.024   2.117
 1020HOH      O 3246   0.699   2.397   1.122
 1020HOH     H1 3247   0.614   2.359   1.101
 1020HOH     H2 3248   0.743   2.406   1.037
 1021HOH      O 3249   3.020   2.991   1.430
 1021HOH     H1 3250   2.954   3.057   1.453
 1021HOH     H2 3251   2.994   2.913   1.478
 1022HOH      O 3252   2.830   0.685   2.068
 1022HOH     H1 3253   2.854   0.602   2.109
 1022HOH     H2 3254   2.751   0.665   2.017
 1023HOH      O 3255   2.277   2.871   0.793
 1023HOH     H1 3256   2.334   2.795   0.810
 1023HOH     H2 3257   2.269   2.914   0.878
 1024HOH      O 3258   2.593   0.463   1.121
 1024HOH     H1 3259   2.502   0.488   1.136
 1024HOH     H2 3260   2.601   0.376   1.160
 1025HOH      O 3261   1.998   1.431   0.491
 1025HOH     H1 3262   2.054   1.446   0.415
 1025HOH     H2 3263   1.999   1.514   0.539
 1026HOH      O 3264   3.122   2.241   3.552
 1026HOH     H1 3265   3.102   2.270   3.641
 1026HOH     H2 3266   3.190   2.174   3.563
 1027HOH      O 3267   3.733   3.281   3.369
 1027HOH     H1 3268   3.792   3.345   3.329
 1027HOH     H2 3269   3.673   3.255   3.298
 1028HOH      O 3270   3.755   3.812   3.963
 1028HOH     H1 3271   3.714   3.784   3.881
 1028HOH     H2 3272   3.827   3.868   3.936
 1029HOH      O 3273   1.526   3.211   2.304
 1029HOH     H1 3274   1.538   3.137   2.363
 1029HOH     H2 3275   1.456   3.263   2.343
 1030HOH      O 3276   2.080   0.430   3.484
 1030HOH     H1 3277   2.122   0.344   3.480
 1030HOH     H2 3278   2.116   0.479   3.410
 1031HOH      O 3279   3.744   1.896   0.092
 1031HOH     H1 3280   3.824   1.948   0.083
 1031HOH     H2 3281   3.707   1.894   0.004
 1032HOH      O 3282   3.148   1.821   1.912
 1032HOH     H1 3283   3.230   1.799   1.868
 1032HOH     H2 3284   3.136   1.752   1.977
 1033HOH      O 3285   3.198   0.670   1.387
 1033HOH     H1 3286   3.263   0.724   1.430
 1033HOH     H2 3287   3.169   0.609   1.455
 1034HOH      O 3288   3.166   1.050   1.590
 1034HOH     H1 3289   3.147   1.104   1.514
 1034HOH     H2 3290   3.233   0.988   1.559
 1035HOH      O 3291   1.747   1.373   3.439
 1035HOH     H1 3292   1.842   1.382   3.432
 1035HOH     H2 3293   1.713   1.432   3.371
 1036HOH      O 3294   1.096   0.892   4.002
 1036HOH     H1 3295   1.072   0.827   3.936
 1036HOH     H2 3296   1.064   0.975   3.966
 1037HOH      O 3297   2.808   0.954   1.132
 1037HOH     H1 3298   2.781   0.910   1.051
 1037HOH     H2 3299   2.878   0.899   1.166
 1038HOH      O 3300   0.308   2.413   2.252
 1038HOH     H1 3301   0.239   2.475   2.227
 1038HOH     H2 3302   0.263   2.349   2.307
 1039HOH      O 3303   0.099   2.564   2.178
 1039HOH     H1 3304   0.025   2.513   2.144
 1039HOH     H2 3305   0.129   2.614   2.102
 1040HOH      O 3306   0.373   1.926   3.985
 1040HOH     H1 3307   0.323   1.908   4.065
 1040HOH     H2 3308   0.337   1.866   3.920
 1041HOH      O 3309   3.304   3.001   2.465
 1041HOH     H1 3310   3.225   3.044   2.499
 1041HOH     H2 3311   3.272   2.924   2.419
 1042HOH      O 3312   0.966   0.311   0.535
 1042HOH     H1 3313   0.968   0.342   0.626
 1042HOH     H2 3314   0.944   0.218   0.542
 1043HOH      O 3315   2.124   1.726   2.211
 1043HOH     H1 3316   2.164   1.673   2.280
 1043HOH     H2 3317   2.140   1.816   2.237
 1044HOH      O 3318   1.316   1.763   2.369
 1044HOH     H1 3319   1.242   1.713   2.334
 1044HOH     H2 3320   1.306   1.850   2.331
 1045HOH      O 3321   2.727   1.629   3.421
 1045HOH     H1 3322   2.795   1.672   3.474
 1045HOH     H2 3323   2.645   1.654   3.464
 1046HOH      O 3324   0.465   0.117   1.690
 1046HOH     H1 3325   0.429   0.195   1.731
 1046HOH     H2 3326   0.548   0.145   1.652
 1047HOH      O 3327   2.642   2.199   2.829
 1047HOH     H1 3328   2.620   2.110   2.855
 1047HOH     H2 3329   2.654   2.194   2.734
 1048HOH      O 3330   3.768   1.503   0.599
 1048HOH     H1 3331   3.769   1.597   0.582
 1048HOH     H2 3332   3.675   1.482   0.610
 1049HOH      O 3333   0.752   0.137   1.521
 1049HOH     H1 3334   0.814   0.068   1.543
 1049HOH     H2 3335   0.784   0.174   1.439
 1050HOH      O 3336   0.926   3.398   3.103
 1050HOH     H1 3337   0.953   3.423   3.192
 1050HOH     H2 3338   1.000   3.423   3.048
 1051HOH      O 3339   3.785   0.131   1.852
 1051HOH     H1 3340   3.795   0.225   1.838
 1051HOH     H2 3341   3.699   0.110   1.815
 1052HOH      O 3342   0.918   0.379   1.107
 1052HOH     H1 3343   0.952   0.291   1.092
 1052HOH     H2 3344   0.931   0.395   1.200
 1053HOH      O 3345   0.211   1.389   0.315
 1053HOH     H1 3346   0.177   1.413   0.229
 1053HOH     H2 3347   0.181   1.299   0.329
 1054HOH      O 3348   2.530   3.655   1.644
 1054HOH     H1 3349   2.498   3.565   1.636
 1054HOH     H2 3350   2.599   3.650   1.710
 1055HOH      O 3351   1.387   2.078   1.821
 1055HOH     H1 3352   1.440   2.003   1.795
 1055HOH     H2 3353   1.299   2.042   1.834
 1056HOH      O 3354   1.073   2.690   1.338
 1056HOH     H1 3355   0.985   2.652   1.340
 1056HOH     H2 3356   1.113   2.654   1.259
 1057HOH      O 3357   1.008   1.601   3.407
 1057HOH     H1 3358   1.015   1.665   3.336
 1057HOH     H2 3359   1.012   1.653   3.487
 1058HOH      O 3360   3.647   1.219   3.048
 1058HOH     H1 3361   3.578   1.182   3.103
 1058HOH     H2 3362   3.649   1.312   3.070
 1059HOH      O 3363   1.745   4.053   2.640
 1059HOH     H1 3364   1.689   4.014   2.573
 1059HOH     H2 3365   1.759   3.982   2.703
 1060HOH      O 3366   3.774   1.521   1.041
 1060HOH     H1 3367   3.794   1.462   0.969
 1060HOH     H2 3368   3.741   1.600   0.998
 1061HOH      O 3369   0.745   1.227   0.160
 1061HOH     H1 3370   0.773   1.135   0.170
 1061HOH     H2 3371   0.750   1.242   0.065
 1062HOH      O 3372   1.344   3.213   2.777
 1062HOH     H1 3373   1.354   3.283   2.842
 1062HOH     H2 3374   1.433   3.184   2.759
 1063HOH      O 3375   3.365   0.820   2.853
 1063HOH     H1 3376   3.359   0.847   2.761
 1063HOH     H2 3377   3.435   0.755   2.854
 1064HOH      O 3378   1.844   2.769   0.873
 1064HOH     H1 3379   1.887   2.695   0.915
 1064HOH     H2 3380   1.819   2.738   0.786
 1065HOH      O 3381   2.268   0.540   0.699
 1065HOH     H1 3382   2.177   0.510   0.700
 1065HOH     H2 3383   2.261   0.635   0.697
 1066HOH      O 3384   1.670   0.223   0.094
 1066HOH     H1 3385   1.701   0.133   0.106
 1066HOH     H2 3386   1.583   0.213   0.056
 1067HOH      O 3387   2.418   3.168   1.537
 1067HOH     H1 3388   2.474   3.147   1.462
 1067HOH     H2 3389   2.348   3.101   1.534
 1068HOH      O 3390   2.150   1.126   1.055
 1068HOH     H1 3391   2.204   1.107   0.980
 1068HOH     H2 3392   2.082   1.185   1.022
 1069HOH      O 3393   2.899   2.820   0.130
 1069HOH     H1 3394   2.860   2.906   0.117
 1069HOH     H2 3395   2.845   2.761   0.077
 1070HOH      O 3396   2.072   2.030   2.528
 1070HOH     H1 3397   2.012   2.050   2.456
 1070HOH     H2 3398   2.015   2.000   2.599
 1071HOH      O 3399   0.266   2.145   2.767
 1071HOH     H1 3400   0.265   2.148   2.863
 1071HOH     H2 3401   0.189   2.196   2.741
 1072HOH      O 3402   1.210   0.370   3.954
 1072HOH     H1 3403   1.238   0.427   3.881
 1072HOH     H2 3404   1.218   0.426   4.031
 1073HOH      O 3405   0.949   3.668   0.205
 1073HOH     H1 3406   0.927   3.614   0.281
 1073HOH     H2 3407   0.879   3.649   0.142
 1074HOH      O 3408   1.940   1.946   2.749
 1074HOH     H1 3409   1.855   1.981   2.776
 1074HOH     H2 3410   1.982   1.921   2.832
 1075HOH      O 3411   2.982   0.632   0.205
 1075HOH     H1 3412   2.953   0.558   0.153
 1075HOH     H2 3413   2.907   0.691   0.207
 1076HOH      O 3414   1.563   2.270   0.544
 1076HOH     H1 3415   1.524   2.183   0.537
 1076HOH     H2 3416   1.616   2.279   0.465
 1077HOH      O 3417   1.351   1.624   3.214
 1077HOH     H1 3418   1.260   1.628   3.244
 1077HOH     H2 3419   1.386   1.711   3.232
 1078HOH      O 3420   1.588   0.662   2.442
 1078HOH     H1 3421   1.588   0.649   2.347
 1078HOH     H2 3422   1.591   0.757   2.453
 1079HOH      O 3423   2.172   3.105   1.089
 1079HOH     H1 3424   2.181   3.111   1.184
 1079HOH     H2 3425   2.179   3.011   1.070
 1080HOH      O 3426   0.509   0.939   2.472
 1080HOH     H1 3427   0.525   0.847   2.493
 1080HOH     H2 3428   0.523   0.985   2.555
 1081HOH      O 3429   2.356   1.346   1.040
 1081HOH     H1 3430   2.418   1.309   0.978
 1081HOH     H2 3431   2.297   1.274   1.062
 1082HOH      O 3432   2.672   0.313   1.997
 1082HOH     H1 3433   2.747   0.296   1.941
 1082HOH     H2 3434   2.710   0.344   2.079
 1083HOH      O 3435   0.540   2.274   2.708
 1083HOH     H1 3436   0.578   2.241   2.626
 1083HOH     H2 3437   0.455   2.230   2.715
 1084HOH      O 3438   1.039   1.482   1.151
 1084HOH     H1 3439   1.034   1.406   1.209
 1084HOH     H2 3440   1.132   1.488   1.128
 1085HOH      O 3441   1.385   2.464   0.567
 1085HOH     H1 3442   1.446   2.393   0.587
 1085HOH     H2 3443   1.320   2.460   0.637
 1086HOH      O 3444   1.649   3.274   3.100
 1086HOH     H1 3445   1.675   3.273   3.192
 1086HOH     H2 3446   1.685   3.355   3.065
 1087HOH      O 3447   2.698   3.166   1.839
 1087HOH     H1 3448   2.660   3.177   1.926
 1087HOH     H2 3449   2.725   3.254   1.813
 1088HOH      O 3450   0.189   3.765   2.593
 1088HOH     H1 3451   0.282   3.776   2.614
 1088HOH     H2 3452   0.145   3.762   2.679
 1089HOH      O 3453   2.928   2.016   2.326
 1089HOH     H1 3454   3.014   1.989   2.293
 1089HOH     H2 3455   2.869   1.945   2.301
 1090HOH      O 3456   1.577   1.863   3.442
 1090HOH     H1 3457   1.566   1.950   3.481
 1090HOH     H2 3458   1.590   1.805   3.517
 1091HOH      O 3459   0.943   0.364   0.788
 1091HOH     H1 3460   0.888   0.301   0.834
 1091HOH     H2 3461   1.025   0.364   0.836
 1092HOH      O 3462   0.888   3.098   2.651
 1092HOH     H1 3463   0.838   3.175   2.677
 1092HOH     H2 3464   0.967   3.102   2.706
 1093HOH      O 3465   2.937   1.487   0.668
 1093HOH     H1 3466   2.954   1.399   0.702
 1093HOH     H2 3467   2.842   1.495   0.669
 1094HOH      O 3468   0.387   2.871   3.450
 1094HOH     H1 3469   0.327   2.945   3.456
 1094HOH     H2 3470   0.384   2.832   3.538
 1095HOH      O 3471   3.512   3.664   1.342
 1095HOH     H1 3472   3.522   3.758   1.354
 1095HOH     H2 3473   3.468   3.633   1.421
 1096HOH      O 3474   2.554   4.026   3.820
 1096HOH     H1 3475   2.541   4.005   3.728
 1096HOH     H2 3476   2.482   3.983   3.865
 1097HOH      O 3477   2.372   1.862   2.921
 1097HOH     H1 3478   2.463   1.867   2.893
 1097HOH     H2 3479   2.352   1.949   2.954
 1098HOH      O 3480   2.547   3.098   1.324
 1098HOH     H1 3481   2.534   3.074   1.233
 1098HOH     H2 3482   2.635   3.068   1.345
 1099HOH      O 3483   0.502   2.622   2.947
 1099HOH     H1 3484   0.576   2.680   2.964
 1099HOH     H2 3485   0.521   2.583   2.862
 1100HOH      O 3486   1.479   2.537   1.810
 1100HOH     H1 3487   1.515   2.470   1.752
 1100HOH     H2 3488   1.403   2.495   1.851
 1101HOH      O 3489   0.925   0.631   0.734
 1101HOH     H1 3490   0.912   0.538   0.754
 1101HOH     H2 3491   0.980   0.631   0.656
 1102HOH      O 3492   1.028   3.173   3.591
 1102HOH     H1 3493   0.934   3.188   3.576
 1102HOH     H2 3494   1.071   3.251   3.557
 1103HOH      O 3495   2.920   2.313   3.379
 1103HOH     H1 3496   2.965   2.349   3.302
 1103HOH     H2 3497   2.991   2.286   3.438
 1104HOH      O 3498   1.395   2.125   2.174
 1104HOH     H1 3499   1.314   2.097   2.216
 1104HOH     H2 3500   1.369   2.198   2.118
 1105HOH      O 3501   1.345   1.393   0.047
 1105HOH     H1 3502   1.411   1.409  -0.021
 1105HOH     H2 3503   1.383   1.429   0.127
 1106HOH      O 3504   0.337   1.324   1.799
 1106HOH     H1 3505   0.244   1.308   1.782
 1106HOH     H2 3506   0.362   1.258   1.863
 1107HOH      O 3507   3.672   1.749   0.654
 1107HOH     H1 3508   3.729   1.771   0.728
 1107HOH     H2 3509   3.649   1.834   0.615
 1108HOH      O 3510   3.550   2.228   1.548
 1108HOH     H1 3511   3.512   2.247   1.634
 1108HOH     H2 3512   3.500   2.154   1.514
 1109HOH      O 3513   0.270   1.338   4.012
 1109HOH     H1 3514   0.250   1.297   3.928
 1109HOH     H2 3515   0.190   1.386   4.035
 1110HOH      O 3516   0.032   0.182   0.628
 1110HOH     H1 3517   0.025   0.156   0.720
 1110HOH     H2 3518   0.126   0.189   0.612
 1111HOH      O 3519   4.012   3.922   3.138
 1111HOH     H1 3520   4.033   3.987   3.071
 1111HOH     H2 3521   4.006   3.839   3.090
 1112HOH      O 3522   0.147   1.780   3.467
 1112HOH     H1 3523   0.169   1.804   3.557
 1112HOH     H2 3524   0.057   1.746   3.472
 1113HOH      O 3525   0.542   3.001   3.184
 1113HOH     H1 3526   0.468   2.954   3.146
 1113HOH     H2 3527   0.617   2.975   3.131
 1114HOH      O 3528   0.304   2.605   2.576
 1114HOH     H1 3529   0.322   2.538   2.642
 1114HOH     H2 3530   0.345   2.684   2.610
 1115HOH      O 3531   3.435   0.314   3.967
 1115HOH     H1 3532   3.479   0.230   3.983
 1115HOH     H2 3533   3.378   0.297   3.892
 1116HOH      O 3534   1.805   2.490   3.354
 1116HOH     H1 3535   1.817   2.561   3.418
 1116HOH     H2 3536   1.721   2.451   3.378
 1117HOH      O 3537   0.257   3.227   0.767
 1117HOH     H1 3538   0.246   3.139   0.804
 1117HOH     H2 3539   0.257   3.285   0.843
 1118HOH      O 3540   2.877   0.370   0.076
 1118HOH     H1 3541   2.821   0.379  -0.001
 1118HOH     H2 3542   2.925   0.289   0.062
 1119HOH      O 3543   3.603   0.964   1.422
 1119HOH     H1 3544   3.673   0.939   1.483
 1119HOH     H2 3545   3.647   1.018   1.356
 1120HOH      O 3546   1.980   1.796   3.877
 1120HOH     H1 3547   1.988   1.861   3.948
 1120HOH     H2 3548   1.886   1.790   3.861
 1121HOH      O 3549   0.054   1.711   2.010
 1121HOH     H1 3550   0.130   1.731   2.064
 1121HOH     H2 3551   0.065   1.766   1.932
 1122HOH      O 3552   1.939   0.784   2.226
 1122HOH     H1 3553   1.884   0.714   2.192
 1122HOH     H2 3554   1.880   0.858   2.237
 1123HOH      O 3555   1.877   3.499   3.256
 1123HOH     H1 3556   1.935   3.428   3.230
 1123HOH     H2 3557   1.837   3.529   3.174
 1124HOH      O 3558   3.924   1.758   1.161
 1124HOH     H1 3559   3.857   1.697   1.130
 1124HOH     H2 3560   3.894   1.784   1.248
 1125HOH      O 3561   3.756   3.809   3.661
 1125HOH     H1 3562   3.667   3.795   3.694
 1125HOH     H2 3563   3.746   3.875   3.592
 1126HOH      O 3564   0.310   1.728   3.802
 1126HOH     H1 3565   0.222   1.690   3.795
 1126HOH     H2 3566   0.368   1.653   3.816
 1127HOH      O 3567   0.776   0.114   2.691
 1127HOH     H1 3568   0.758   0.083   2.779
 1127HOH     H2 3569   0.860   0.159   2.697
 1128HOH      O 3570   1.510   1.064   0.050
 1128HOH     H1 3571   1.548   1.126   0.112
 1128HOH     H2 3572   1.502   1.113  -0.032
 1129HOH      O 3573   3.174   0.082   3.345
 1129HOH     H1 3574   3.169   0.087   3.441
 1129HOH     H2 3575   3.156   0.172   3.316
 1130HOH      O 3576   3.933   3.031   1.692
 1130HOH     H1 3577   3.955   3.110   1.741
 1130HOH     H2 3578   4.017   2.991   1.671
 1131HOH      O 3579   2.458   3.404   0.352
 1131HOH     H1 3580   2.451   3.499   0.344
 1131HOH     H2 3581   2.377   3.371   0.311
 1132HOH      O 3582   0.061   3.766   1.203
 1132HOH     H1 3583   0.109   3.769   1.285
 1132HOH     H2 3584  -0.027   3.797   1.225
 1133HOH      O 3585   0.737   1.839   3.681
 1133HOH     H1 3586   0.667   1.787   3.641
 1133HOH     H2 3587   0.806   1.776   3.700
 1134HOH      O 3588   3.700   2.763   1.330
 1134HOH     H1 3589   3.653   2.846   1.337
 1134HOH     H2 3590   3.697   2.727   1.419
 1135HOH      O 3591   2.748   2.123   3.539
 1135HOH     H1 3592   2.747   2.064   3.463
 1135HOH     H2 3593   2.803   2.196   3.512
 1136HOH      O 3594   3.210   2.647   3.662
 1136HOH     H1 3595   3.136   2.608   3.708
 1136HOH     H2 3596   3.176   2.730   3.628
 1137HOH      O 3597   1.865   2.894   1.488
 1137HOH     H1 3598   1.903   2.849   1.564
 1137HOH     H2 3599   1.855   2.985   1.517
 1138HOH      O 3600   3.657   2.486   2.751
 1138HOH     H1 3601   3.727   2.548   2.731
 1138HOH     H2 3602   3.582   2.541   2.775
 1139HOH      O 3603   3.069   1.444   2.311
 1139HOH     H1 3604   3.026   1.392   2.244
 1139HOH     H2 3605   3.043   1.403   2.394
 1140HOH      O 3606   1.885   3.831   1.748
 1140HOH     H1 3607   1.840   3.908   1.713
 1140HOH     H2 3608   1.834   3.807   1.825
 1141HOH      O 3609   3.720   1.169   2.536
 1141HOH     H1 3610   3.783   1.144   2.603
 1141HOH     H2 3611   3.773   1.207   2.466
 1142HOH      O 3612   0.968   2.394   0.497
 1142HOH     H1 3613   1.024   2.456   0.543
 1142HOH     H2 3614   0.905   2.449   0.449
 1143HOH      O 3615   3.073   2.128   3.143
 1143HOH     H1 3616   2.993   2.158   3.186
 1143HOH     H2 3617   3.091   2.192   3.075
 1144HOH      O 3618   1.520   0.916   1.361
 1144HOH     H1 3619   1.444   0.937   1.414
 1144HOH     H2 3620   1.488   0.915   1.271
 1145HOH      O 3621   2.941   3.396   2.498
 1145HOH     H1 3622   2.977   3.481   2.472
 1145HOH     H2 3623   2.996   3.332   2.453
 1146HOH      O 3624   2.721   2.329   0.988
 1146HOH     H1 3625   2.787   2.396   1.005
 1146HOH     H2 3626   2.643   2.360   1.034
 1147HOH      O 3627   2.245   2.416   1.221
 1147HOH     H1 3628   2.262   2.469   1.299
 1147HOH     H2 3629   2.200   2.338   1.254
 1148HOH      O 3630   0.778   1.741   3.066
 1148HOH     H1 3631   0.787   1.835   3.052
 1148HOH     H2 3632   0.688   1.729   3.094
 1149HOH      O 3633   0.825   1.623   2.823
 1149HOH     H1 3634   0.829   1.665   2.908
 1149HOH     H2 3635   0.786   1.689   2.765
 1150HOH      O 3636   3.803   1.368   3.899
 1150HOH     H1 3637   3.847   1.293   3.860
 1150HOH     H2 3638   3.771   1.336   3.984
 1151HOH      O 3639   3.390   3.910   4.024
 1151HOH     H1 3640   3.325   3.960   4.073
 1151HOH     H2 3641   3.361   3.915   3.933
 1152HOH      O 3642   1.617   2.004   2.294
 1152HOH     H1 3643   1.649   1.954   2.219
 1152HOH     H2 3644   1.549   2.061   2.258
 1153HOH      O 3645   1.515   0.215   3.448
 1153HOH     H1 3646   1.440   0.165   3.417
 1153HOH     H2 3647   1.559   0.244   3.368
 1154HOH      O 3648   1.310   1.152   2.349
 1154HOH     H1 3649   1.289   1.153   2.256
 1154HOH     H2 3650   1.253   1.084   2.385
 1155HOH      O 3651   2.881   0.242   0.619
 1155HOH     H1 3652   2.875   0.325   0.668
 1155HOH     H2 3653   2.811   0.188   0.656
 1156HOH      O 3654   0.349   0.241   3.872
 1156HOH     H1 3655   0.406   0.278   3.939
 1156HOH     H2 3656   0.397   0.166   3.838
 1157HOH      O 3657   0.780   3.494   1.899
 1157HOH     H1 3658   0.812   3.404   1.897
 1157HOH     H2 3659   0.728   3.503   1.819
 1158HOH      O 3660   0.211   0.381   3.672
 1158HOH     H1 3661   0.269   0.370   3.748
 1158HOH     H2 3662   0.167   0.296   3.664
 1159HOH      O 3663   2.346   1.230   2.080
 1159HOH     H1 3664   2.280   1.161   2.071
 1159HOH     H2 3665   2.398   1.204   2.155
 1160HOH      O 3666   0.642   3.925   2.161
 1160HOH     H1 3667   0.716   3.985   2.167
 1160HOH     H2 3668   0.615   3.930   2.069
 1161HOH      O 3669   2.395   1.406   1.356
 1161HOH     H1 3670   2.406   1.387   1.263
 1161HOH     H2 3671   2.365   1.323   1.395
 1162HOH      O 3672   3.726   3.652   1.996
 1162HOH     H1 3673   3.791   3.715   1.964
 1162HOH     H2 3674   3.777   3.573   2.014
 1163HOH      O 3675   2.012   3.042   3.374
 1163HOH     H1 3676   2.039   2.999   3.455
 1163HOH     H2 3677   2.089   3.090   3.345
 1164HOH      O 3678   2.872   2.444   0.080
 1164HOH     H1 3679   2.817   2.516   0.111
 1164HOH     H2 3680   2.957   2.461   0.120
 1165HOH      O 3681   2.218   1.137   3.686
 1165HOH     H1 3682   2.281   1.202   3.718
 1165HOH     H2 3683   2.170   1.182   3.616
 1166HOH      O 3684   1.861   3.422   2.490
 1166HOH     H1 3685   1.792   3.383   2.435
 1166HOH     H2 3686   1.939   3.369   2.472
 1167HOH      O 3687   1.347   3.770   0.753
 1167HOH     H1 3688   1.412   3.841   0.743
 1167HOH     H2 3689   1.391   3.693   0.718
 1168HOH      O 3690   0.824   0.827   1.792
 1168HOH     H1 3691   0.765   0.755   1.769
 1168HOH     H2 3692   0.797   0.900   1.736
 1169HOH      O 3693   0.675   3.110   2.423
 1169HOH     H1 3694   0.703   3.019   2.409
 1169HOH     H2 3695   0.697   3.127   2.514
 1170HOH      O 3696   2.576   2.022   1.925
 1170HOH     H1 3697   2.517   2.068   1.865
 1170HOH     H2 3698   2.567   1.930   1.901
 1171HOH      O 3699   2.441   2.785   1.816
 1171HOH     H1 3700   2.435   2.880   1.828
 1171HOH     H2 3701   2.403   2.748   1.895
 1172HOH      O 3702   1.780   1.005   2.197
 1172HOH     H1 3703   1.748   1.032   2.283
 1172HOH     H2 3704   1.867   1.044   2.191
 1173HOH      O 3705   3.527   3.605   0.395
 1173HOH     H1 3706   3.538   3.670   0.326
 1173HOH     H2 3707   3.464   3.644   0.455
 1174HOH      O 3708   1.582   0.895   3.387
 1174HOH     H1 3709   1.511   0.925   3.443
 1174HOH     H2 3710   1.540   0.871   3.305
 1175HOH      O 3711   3.170   3.645   0.716
 1175HOH     H1 3712   3.133   3.642   0.627
 1175HOH     H2 3713   3.103   3.690   0.768
 1176HOH      O 3714   1.857   2.650   3.597
 1176HOH     H1 3715   1.860   2.700   3.516
 1176HOH     H2 3716   1.817   2.709   3.660
 1177HOH      O 3717   2.162   2.975   2.883
 1177HOH     H1 3718   2.181   2.984   2.976
 1177HOH     H2 3719   2.247   2.954   2.844
 1178HOH      O 3720   3.663   3.821   0.732
 1178HOH     H1 3721   3.715   3.754   0.775
 1178HOH     H2 3722   3.574   3.807   0.764
 1179HOH      O 3723   0.296   0.703   1.316
 1179HOH     H1 3724   0.201   0.703   1.306
 1179HOH     H2 3725   0.323   0.618   1.279
 1180HOH      O 3726   0.018   2.198   0.137
 1180HOH     H1 3727  -0.035   2.180   0.214
 1180HOH     H2 3728   0.082   2.127   0.134
 1181HOH      O 3729   1.358   1.112   1.744
 1181HOH     H1 3730   1.377   1.101   1.837
 1181HOH     H2 3731   1.401   1.194   1.720
 1182HOH      O 3732   2.378   3.500   1.095
 1182HOH     H1 3733   2.466   3.493   1.132
 1182HOH     H2 3734   2.335   3.567   1.148
 1183HOH      O 3735   1.513   1.966   3.887
 1183HOH     H1 3736   1.421   1.980   3.866
 1183HOH     H2 3737   1.554   2.051   3.872
 1184HOH      O 3738   1.483   1.490   0.268
 1184HOH     H1 3739   1.547   1.515   0.335
 1184HOH     H2 3740   1.407   1.546   0.284
 1185HOH      O 3741   2.040   0.474   0.463
 1185HOH     H1 3742   2.068   0.395   0.416
 1185HOH     H2 3743   2.047   0.544   0.397
 1186HOH      O 3744   2.222   2.366   0.537
 1186HOH     H1 3745   2.154   2.335   0.477
 1186HOH     H2 3746   2.282   2.292   0.545
 1187HOH      O 3747   3.382   0.675   1.756
 1187HOH     H1 3748   3.398   0.688   1.849
 1187HOH     H2 3749   3.286   0.678   1.748
 1188HOH      O 3750   4.038   1.965   2.951
 1188HOH     H1 3751   3.992   1.936   3.030
 1188HOH     H2 3752   3.971   2.009   2.899
 1189HOH      O 3753   2.978   3.100   2.518
 1189HOH     H1 3754   2.988   3.005   2.522
 1189HOH     H2 3755   2.943   3.124   2.604
 1190HOH      O 3756   0.813   2.252   3.078
 1190HOH     H1 3757   0.890   2.288   3.123
 1190HOH     H2 3758   0.744   2.254   3.144
 1191HOH      O 3759   0.237   1.191   0.644
 1191HOH     H1 3760   0.261   1.132   0.572
 1191HOH     H2 3761   0.205   1.133   0.713
 1192HOH      O 3762   2.334   1.909   1.232
 1192HOH     H1 3763   2.288   1.825   1.226
 1192HOH     H2 3764   2.331   1.931   1.325
 1193HOH      O 3765   0.538   2.301   1.395
 1193HOH     H1 3766   0.610   2.244   1.368
 1193HOH     H2 3767   0.480   2.245   1.447
 1194HOH      O 3768   3.036   1.111   1.089
 1194HOH     H1 3769   2.973   1.045   1.118
 1194HOH     H2 3770   3.102   1.061   1.041
 1195HOH      O 3771   2.166   1.429   1.637
 1195HOH     H1 3772   2.072   1.438   1.621
 1195HOH     H2 3773   2.207   1.452   1.553
 1196HOH      O 3774   3.198   1.715   0.877
 1196HOH     H1 3775   3.162   1.671   0.955
 1196HOH     H2 3776   3.125   1.768   0.844
 1197HOH      O 3777   1.182   3.227   0.172
 1197HOH     H1 3778   1.146   3.207   0.085
 1197HOH     H2 3779   1.168   3.321   0.183
 1198HOH      O 3780   1.243   0.242   1.121
 1198HOH     H1 3781   1.234   0.164   1.175
 1198HOH     H2 3782   1.307   0.296   1.168
 1199HOH      O 3783   1.425   3.504   0.709
 1199HOH     H1 3784   1.439   3.507   0.804
 1199HOH     H2 3785   1.494   3.446   0.676
 1200HOH      O 3786   2.401   0.740   0.307
 1200HOH     H1 3787   2.416   0.811   0.244
 1200HOH     H2 3788   2.369   0.667   0.255
 1201HOH      O 3789   1.894   2.035   1.735
 1201HOH     H1 3790   1.910   1.969   1.802
 1201HOH     H2 3791   1.858   1.986   1.661
 1202HOH      O 3792   3.567   3.895   2.962
 1202HOH     H1 3793   3.602   3.964   3.020
 1202HOH     H2 3794   3.587   3.926   2.874
 1203HOH      O 3795   1.958   1.494   0.883
 1203HOH     H1 3796   1.934   1.567   0.827
 1203HOH     H2 3797   1.959   1.531   0.972
 1204HOH      O 3798   3.155   2.028   2.108
 1204HOH     H1 3799   3.112   2.110   2.084
 1204HOH     H2 3800   3.137   1.968   2.036
 1205HOH      O 3801   2.481   0.141   1.904
 1205HOH     H1 3802   2.462   0.052   1.934
 1205HOH     H2 3803   2.524   0.182   1.978
 1206HOH      O 3804   0.484   2.210   2.159
 1206HOH     H1 3805   0.445   2.297   2.164
 1206HOH     H2 3806   0.416   2.150   2.190
 1207HOH      O 3807   2.145   2.346   3.897
 1207HOH     H1 3808   2.121   2.281   3.831
 1207HOH     H2 3809   2.229   2.380   3.868
 1208HOH      O 3810   3.179   1.538   1.976
 1208HOH     H1 3811   3.206   1.565   2.064
 1208HOH     H2 3812   3.259   1.501   1.937
 1209HOH      O 3813   3.891   0.530   2.761
 1209HOH     H1 3814   3.935   0.614   2.778
 1209HOH     H2 3815   3.845   0.544   2.678
 1210HOH      O 3816   0.405   0.911   1.443
 1210HOH     H1 3817   0.370   0.829   1.407
 1210HOH     H2 3818   0.433   0.887   1.532
 1211HOH      O 3819   1.665   1.697   2.225
 1211HOH     H1 3820   1.702   1.755   2.159
 1211HOH     H2 3821   1.699   1.730   2.308
 1212HOH      O 3822   0.115   2.397   2.725
 1212HOH     H1 3823   0.087   2.487   2.708
 1212HOH     H2 3824   0.108   2.387   2.820
 1213HOH      O 3825   2.556   1.768   1.857
 1213HOH     H1 3826   2.509   1.736   1.780
 1213HOH     H2 3827   2.613   1.695   1.882
 1214HOH      O 3828   0.348   1.116   1.969
 1214HOH     H1 3829   0.303   1.142   2.049
 1214HOH     H2 3830   0.308   1.033   1.945
 1215HOH      O 3831   3.383   2.113   2.700
 1215HOH     H1 3832   3.368   2.026   2.663
 1215HOH     H2 3833   3.307   2.165   2.673
 1216HOH      O 3834   1.480   2.756   0.082
 1216HOH     H1 3835   1.464   2.850   0.073
 1216HOH     H2 3836   1.456   2.736   0.172
 1217HOH      O 3837   3.672   2.760   2.651
 1217HOH     H1 3838   3.692   2.796   2.565
 1217HOH     H2 3839   3.582   2.786   2.668
 1218HOH      O 3840   1.046   1.569   0.352
 1218HOH     H1 3841   1.018   1.534   0.267
 1218HOH     H2 3842   0.975   1.628   0.377
 1219HOH      O 3843   2.344   0.925   2.294
 1219HOH     H1 3844   2.369   0.855   2.234
 1219HOH     H2 3845   2.332   0.881   2.378
 1220HOH      O 3846   0.289   1.227   3.049
 1220HOH     H1 3847   0.310   1.264   2.963
 1220HOH     H2 3848   0.366   1.245   3.102
 1221HOH      O 3849   2.451   0.347   0.638
 1221HOH     H1 3850   2.535   0.394   0.642
 1221HOH     H2 3851   2.387   0.411   0.668
 1222HOH      O 3852   3.623   0.712   2.898
 1222HOH     H1 3853   3.648   0.803   2.883
 1222HOH     H2 3854   3.682   0.661   2.842
 1223HOH      O 3855   1.236   0.445   0.690
 1223HOH     H1 3856   1.192   0.383   0.748
 1223HOH     H2 3857   1.241   0.526   0.739
 1224HOH      O 3858   1.194   0.601   1.388
 1224HOH     H1 3859   1.162   0.640   1.470
 1224HOH     H2 3860   1.118   0.558   1.350
 1225HOH      O 3861   1.792   1.378   0.108
 1225HOH     H1 3862   1.718   1.339   0.155
 1225HOH     H2 3863   1.772   1.472   0.107
 1226HOH      O 3864   2.297   0.739   2.497
 1226HOH     H1 3865   2.336   0.728   2.584
 1226HOH     H2 3866   2.329   0.665   2.447
 1227HOH      O 3867   2.846   3.169   1.484
 1227HOH     H1 3868   2.791   3.226   1.538
 1227HOH     H2 3869   2.887   3.228   1.420
 1228HOH      O 3870   2.091   2.731   3.184
 1228HOH     H1 3871   2.128   2.818   3.194
 1228HOH     H2 3872   2.151   2.686   3.125
 1229HOH      O 3873   0.769   1.341   1.479
 1229HOH     H1 3874   0.840   1.381   1.530
 1229HOH     H2 3875   0.714   1.297   1.545
 1230HOH      O 3876   3.849   3.225   0.814
 1230HOH     H1 3877   3.763   3.236   0.774
 1230HOH     H2 3878   3.834   3.237   0.908
 1231HOH      O 3879   4.058   0.499   3.081
 1231HOH     H1 3880   4.017   0.568   3.029
 1231HOH     H2 3881   3.998   0.484   3.154
 1232HOH      O 3882   3.297   0.415   2.959
 1232HOH     H1 3883   3.246   0.338   2.983
 1232HOH     H2 3884   3.248   0.489   2.993
 1233HOH      O 3885   0.350   3.186   3.169
 1233HOH     H1 3886   0.420   3.121   3.167
 1233HOH     H2 3887   0.273   3.137   3.198
 1234HOH      O 3888   2.627   1.189   3.706
 1234HOH     H1 3889   2.588   1.152   3.627
 1234HOH     H2 3890   2.720   1.166   3.700
 1235HOH      O 3891   2.153   2.838   0.146
 1235HOH     H1 3892   2.145   2.852   0.240
 1235HOH     H2 3893   2.136   2.744   0.134
 1236HOH      O 3894   3.885   2.718   3.949
 1236HOH     H1 3895   3.965   2.685   3.908
 1236HOH     H2 3896   3.905   2.721   4.042
 1237HOH      O 3897   0.427   3.450   3.068
 1237HOH     H1 3898   0.395   3.363   3.092
 1237HOH     H2 3899   0.410   3.456   2.974
 1238HOH      O 3900   2.491   2.014   1.028
 1238HOH     H1 3901   2.451   2.097   1.000
 1238HOH     H2 3902   2.444   1.990   1.107
 1239HOH      O 3903   3.547   1.765   1.981
 1239HOH     H1 3904   3.578   1.682   2.019
 1239HOH     H2 3905   3.477   1.793   2.040
 1240HOH      O 3906   3.329   2.216   3.245
 1240HOH     H1 3907   3.380   2.156   3.190
 1240HOH     H2 3908   3.242   2.177   3.248
 1241HOH      O 3909   0.796   3.171   0.493
 1241HOH     H1 3910   0.891   3.174   0.485
 1241HOH     H2 3911   0.765   3.155   0.404
 1242HOH      O 3912   2.723   1.584   1.919
 1242HOH     H1 3913   2.745   1.513   1.980
 1242HOH     H2 3914   2.805   1.601   1.872
 1243HOH      O 3915   1.020   0.999   1.617
 1243HOH     H1 3916   1.036   1.093   1.625
 1243HOH     H2 3917   1.033   0.965   1.705
 1244HOH      O 3918   0.759   1.417   2.489
 1244HOH     H1 3919   0.760   1.354   2.418
 1244HOH     H2 3920   0.706   1.490   2.457
 1245HOH      O 3921   0.152   0.329   0.209
 1245HOH     H1 3922   0.084   0.330   0.142
 1245HOH     H2 3923   0.150   0.240   0.244
 1246HOH      O 3924   0.597   0.891   3.929
 1246HOH     H1 3925   0.648   0.813   3.950
 1246HOH     H2 3926   0.534   0.863   3.863
 1247HOH      O 3927   0.983   2.530   2.501
 1247HOH     H1 3928   1.040   2.583   2.446
 1247HOH     H2 3929   0.895   2.563   2.484
 1248HOH      O 3930   1.749   3.002   3.648
 1248HOH     H1 3931   1.736   3.092   3.679
 1248HOH     H2 3932   1.672   2.985   3.595
 1249HOH      O 3933   3.844   3.417   1.482
 1249HOH     H1 3934   3.836   3.511   1.499
 1249HOH     H2 3935   3.771   3.397   1.424
 1250HOH      O 3936   1.081   1.153   3.894
 1250HOH     H1 3937   0.986   1.162   3.893
 1250HOH     H2 3938   1.113   1.243   3.899
 1251HOH      O 3939   2.191   0.869   1.665
 1251HOH     H1 3940   2.158   0.803   1.604
 1251HOH     H2 3941   2.153   0.951   1.635
 1252HOH      O 3942   3.200   2.548   0.862
 1252HOH     H1 3943   3.168   2.610   0.796
 1252HOH     H2 3944   3.169   2.584   0.945
 1253HOH      O 3945   0.100   2.644   3.834
 1253HOH     H1 3946   0.183   2.656   3.880
 1253HOH     H2 3947   0.083   2.550   3.838
 1254HOH      O 3948   0.105   1.973   1.309
 1254HOH     H1 3949   0.093   1.904   1.243
 1254HOH     H2 3950   0.062   2.049   1.271
 1255HOH      O 3951   0.848   3.208   0.225
 1255HOH     H1 3952   0.910   3.199   0.152
 1255HOH     H2 3953   0.840   3.303   0.238
 1256HOH      O 3954   2.347   0.874   3.357
 1256HOH     H1 3955   2.301   0.864   3.273
 1256HOH     H2 3956   2.287   0.835   3.421
 1257HOH      O 3957   1.640   1.575   3.278
 1257HOH     H1 3958   1.636   1.666   3.305
 1257HOH     H2 3959   1.548   1.550   3.264
 1258HOH      O 3960   3.432   2.399   1.190
 1258HOH     H1 3961   3.343   2.363   1.189
 1258HOH     H2 3962   3.421   2.488   1.157
 1259HOH      O 3963   3.291   3.025   3.757
 1259HOH     H1 3964   3.274   3.026   3.662
 1259HOH     H2 3965   3.303   2.932   3.777
 1260HOH      O 3966   3.111   2.224   2.685
 1260HOH     H1 3967   3.045   2.157   2.671
 1260HOH     H2 3968   3.100   2.284   2.611
 1261HOH      O 3969   1.654   1.733   1.084
 1261HOH     H1 3970   1.620   1.668   1.022
 1261HOH     H2 3971   1.723   1.778   1.036
 1262HOH      O 3972   2.224   2.941   3.591
 1262HOH     H1 3973   2.269   2.899   3.517
 1262HOH     H2 3974   2.226   2.876   3.661
 1263HOH      O 3975   2.419   0.915   1.886
 1263HOH     H1 3976   2.394   1.001   1.853
 1263HOH     H2 3977   2.509   0.926   1.915
 1264HOH      O 3978   0.899   0.187   3.526
 1264HOH     H1 3979   0.856   0.219   3.447
 1264HOH     H2 3980   0.904   0.264   3.583
 1265HOH      O 3981   2.106   1.304   3.520
 1265HOH     H1 3982   2.100   1.399   3.509
 1265HOH     H2 3983   2.139   1.272   3.436
 1266HOH      O 3984   2.360   2.775   3.421
 1266HOH     H1 3985   2.381   2.826   3.342
 1266HOH     H2 3986   2.326   2.692   3.388
 1267HOH      O 3987   3.471   2.783   3.504
 1267HOH     H1 3988   3.402   2.850   3.502
 1267HOH     H2 3989   3.426   2.701   3.483
 1268HOH      O 3990   2.141   2.440   1.664
 1268HOH     H1 3991   2.197   2.517   1.657
 1268HOH     H2 3992   2.098   2.450   1.749
 1269HOH      O 3993   0.204   1.901   1.831
 1269HOH     H1 3994   0.149   1.895   1.753
 1269HOH     H2 3995   0.238   1.990   1.830
 1270HOH      O 3996   3.952   1.605   0.303
 1270HOH     H1 3997   3.858   1.613   0.314
 1270HOH     H2 3998   3.989   1.667   0.366
 1271HOH      O 3999   2.411   3.687   0.367
 1271HOH     H1 4000   2.425   3.767   0.315
 1271HOH     H2 4001   2.320   3.693   0.394
 1272HOH      O 4002   1.143   2.672   2.319
 1272HOH     H1 4003   1.238   2.669   2.307
 1272HOH     H2 4004   1.114   2.740   2.259
 1273HOH      O 4005   3.197   1.589   1.575
 1273HOH     H1 4006   3.257   1.531   1.623
 1273HOH     H2 4007   3.122   1.534   1.556
 1274HOH      O 4008   1.482   2.342   2.780
 1274HOH     H1 4009   1.439   2.402   2.718
 1274HOH     H2 4010   1.544   2.397   2.828
 1275HOH      O 4011   0.516   2.480   3.761
 1275HOH     H1 4012   0.577   2.492   3.688
 1275HOH     H2 4013   0.432   2.461   3.719
 1276HOH      O 4014   1.395   0.146   4.020
 1276HOH     H1 4015   1.408   0.072   3.961
 1276HOH     H2 4016   1.327   0.199   3.979
 1277HOH      O 4017   0.598   1.086   1.102
 1277HOH     H1 4018   0.653   1.097   1.025
 1277HOH     H2 4019   0.599   1.172   1.145
 1278HOH      O 4020   2.757   0.369   0.350
 1278HOH     H1 4021   2.813   0.345   0.276
 1278HOH     H2 4022   2.708   0.289   0.370
 1279HOH      O 4023   1.988   3.192   3.667
 1279HOH     H1 4024   2.045   3.229   3.599
 1279HOH     H2 4025   1.909   3.166   3.619
 1280HOH      O 4026   1.914   1.222   1.985
 1280HOH     H1 4027   1.859   1.289   1.945
 1280HOH     H2 4028   1.999   1.264   1.996
 1281HOH      O 4029   0.716   3.219   1.524
 1281HOH     H1 4030   0.747   3.185   1.440
 1281HOH     H2 4031   0.708   3.314   1.510
 1282HOH      O 4032   1.155   2.903   0.662
 1282HOH     H1 4033   1.095   2.978   0.665
 1282HOH     H2 4034   1.204   2.915   0.581
 1283HOH      O 4035   0.978   1.007   2.770
 1283HOH     H1 4036   1.064   1.034   2.738
 1283HOH     H2 4037   0.996   0.965   2.854
 1284HOH      O 4038   3.154   0.544   2.554
 1284HOH     H1 4039   3.235   0.494   2.569
 1284HOH     H2 4040   3.183   0.621   2.505
 1285HOH      O 4041   1.337   3.476   1.263
 1285HOH     H1 4042   1.262   3.512   1.217
 1285HOH     H2 4043   1.354   3.392   1.220
 1286HOH      O 4044   3.772   2.172   3.478
 1286HOH     H1 4045   3.853   2.152   3.432
 1286HOH     H2 4046   3.739   2.252   3.436
 1287HOH      O 4047   2.636   3.546   0.045
 1287HOH     H1 4048   2.722   3.506   0.060
 1287HOH     H2 4049   2.647   3.637   0.072
 1288HOH      O 4050   1.906   2.438   3.781
 1288HOH     H1 4051   1.997   2.410   3.790
 1288HOH     H2 4052   1.902   2.480   3.695
 1289HOH      O 4053   3.475   2.552   0.950
 1289HOH     H1 4054   3.532   2.485   0.912
 1289HOH     H2 4055   3.392   2.543   0.903
 1290HOH      O 4056   0.932   3.944   3.589
 1290HOH     H1 4057   0.915   3.909   3.677
 1290HOH     H2 4058   0.912   4.037   3.596
 1291HOH      O 4059   2.839   0.235   3.653
 1291HOH     H1 4060   2.833   0.147   3.617
 1291HOH     H2 4061   2.795   0.290   3.588
 1292HOH      O 4062   0.768   0.635   3.585
 1292HOH     H1 4063   0.728   0.709   3.629
 1292HOH     H2 4064   0.814   0.674   3.510
 1293HOH      O 4065   0.362   0.631   3.884
 1293HOH     H1 4066   0.454   0.604   3.891
 1293HOH     H2 4067   0.321   0.599   3.964
 1294HOH      O 4068   1.634   3.038   2.119
 1294HOH     H1 4069   1.566   3.091   2.162
 1294HOH     H2 4070   1.705   3.035   2.183
 1295HOH      O 4071   0.639   1.561   2.249
 1295HOH     H1 4072   0.649   1.656   2.244
 1295HOH     H2 4073   0.546   1.548   2.268
 1296HOH      O 4074   1.295   1.281   3.505
 1296HOH     H1 4075   1.214   1.267   3.554
 1296HOH     H2 4076   1.272   1.263   3.414
 1297HOH      O 4077   0.274   0.575   1.029
 1297HOH     H1 4078   0.224   0.524   0.965
 1297HOH     H2 4079   0.344   0.616   0.978
 1298HOH      O 4080   0.762   3.221   3.960
 1298HOH     H1 4081   0.671   3.213   3.989
 1298HOH     H2 4082   0.760   3.196   3.868
 1299HOH      O 4083   0.044   1.481   0.092
 1299HOH     H1 4084   0.002   1.395   0.101
 1299HOH     H2 4085  -0.017   1.541   0.135
 1300HOH      O 4086   1.982   1.153   1.302
 1300HOH     H1 4087   2.006   1.101   1.226
 1300HOH     H2 4088   1.887   1.165   1.294
 1301HOH      O 4089   2.696   3.817   0.789
 1301HOH     H1 4090   2.644   3.755   0.738
 1301HOH     H2 4091   2.640   3.840   0.864
 1302HOH      O 4092   1.469   2.276   0.949
 1302HOH     H1 4093   1.386   2.228   0.951
 1302HOH     H2 4094   1.445   2.366   0.970
 1303HOH      O 4095   0.064   2.621   1.693
 1303HOH     H1 4096   0.082   2.712   1.671
 1303HOH     H2 4097   0.073   2.618   1.788
 1304HOH      O 4098   3.851   1.811   1.802
 1304HOH     H1 4099   3.864   1.905   1.816
 1304HOH     H2 4100   3.796   1.784   1.876
 1305HOH      O 4101   2.475   1.357   0.155
 1305HOH     H1 4102   2.430   1.278   0.186
 1305HOH     H2 4103   2.424   1.387   0.080
 1306HOH      O 4104   3.645   2.218   2.641
 1306HOH     H1 4105   3.554   2.193   2.658
 1306HOH     H2 4106   3.653   2.305   2.680
 1307HOH      O 4107   1.898   0.387   0.039
 1307HOH     H1 4108   1.823   0.340   0.076
 1307HOH     H2 4109   1.911   0.347  -0.047
 1308HOH      O 4110   0.728   2.918   3.029
 1308HOH     H1 4111   0.770   2.833   3.018
 1308HOH     H2 4112   0.800   2.979   3.046
 1309HOH      O 4113   3.904   2.180   3.911
 1309HOH     H1 4114   3.921   2.203   4.003
 1309HOH     H2 4115   3.811   2.159   3.908
 1310HOH      O 4116   1.289   2.410   2.972
 1310HOH     H1 4117   1.349   2.372   2.908
 1310HOH     H2 4118   1.226   2.459   2.919
 1311HOH      O 4119   3.382   1.328   1.600
 1311HOH     H1 4120   3.403   1.359   1.512
 1311HOH     H2 4121   3.344   1.241   1.587
 1312HOH      O 4122   2.852   3.605   1.732
 1312HOH     H1 4123   2.930   3.550   1.742
 1312HOH     H2 4124   2.886   3.695   1.734
 1313HOH      O 4125   1.543   2.736   1.490
 1313HOH     H1 4126   1.608   2.668   1.476
 1313HOH     H2 4127   1.515   2.761   1.402
 1314HOH      O 4128   1.558   2.794   1.752
 1314HOH     H1 4129   1.544   2.782   1.658
 1314HOH     H2 4130   1.540   2.709   1.791
 1315HOH      O 4131   3.589   3.054   2.441
 1315HOH     H1 4132   3.494   3.062   2.432
 1315HOH     H2 4133   3.616   3.132   2.488
 1316HOH      O 4134   0.991   0.719   3.816
 1316HOH     H1 4135   1.061   0.654   3.823
 1316HOH     H2 4136   0.961   0.712   3.725
 1317HOH      O 4137   0.537   1.873   1.114
 1317HOH     H1 4138   0.513   1.792   1.069
 1317HOH     H2 4139   0.495   1.867   1.199
 1318HOH      O 4140   0.591   3.491   0.864
 1318HOH     H1 4141   0.581   3.439   0.784
 1318HOH     H2 4142   0.504   3.530   0.877
 1319HOH      O 4143   0.474   3.528   2.590
 1319HOH     H1 4144   0.528   3.602   2.563
 1319HOH     H2 4145   0.432   3.498   2.510
 1320HOH      O 4146   3.558   2.889   1.733
 1320HOH     H1 4147   3.504   2.815   1.704
 1320HOH     H2 4148   3.629   2.848   1.783
 1321HOH      O 4149   2.306   1.127   0.281
 1321HOH     H1 4150   2.382   1.167   0.322
 1321HOH     H2 4151   2.338   1.045   0.244
 1322HOH      O 4152   1.485   3.773   3.297
 1322HOH     H1 4153   1.461   3.861   3.326
 1322HOH     H2 4154   1.573   3.760   3.334
 1323HOH      O 4155   0.539   1.450   4.018
 1323HOH     H1 4156   0.560   1.361   3.989
 1323HOH     H2 4157   0.450   1.444   4.052
 1324HOH      O 4158   2.635   0.109   0.364
 1324HOH     H1 4159   2.693   0.089   0.290
 1324HOH     H2 4160   2.642   0.033   0.422
 1325HOH      O 4161   0.564   2.810   1.383
 1325HOH     H1 4162   0.641   2.800   1.439
 1325HOH     H2 4163   0.546   2.722   1.351
 1326HOH      O 4164   1.531   1.668   2.765
 1326HOH     H1 4165   1.583   1.721   2.705
 1326HOH     H2 4166   1.455   1.640   2.713
 1327HOH      O 4167   3.259   3.985   2.720
 1327HOH     H1 4168   3.272   3.932   2.799
 1327HOH     H2 4169   3.298   3.933   2.650
 1328HOH      O 4170   0.731   0.271   3.308
 1328HOH     H1 4171   0.718   0.229   3.224
 1328HOH     H2 4172   0.724   0.365   3.289
 1329HOH      O 4173   0.043   0.977   0.872
 1329HOH     H1 4174   0.068   1.066   0.898
 1329HOH     H2 4175  -0.005   0.988   0.790
 1330HOH      O 4176   2.696   0.439   0.720
 1330HOH     H1 4177   2.731   0.495   0.651
 1330HOH     H2 4178   2.709   0.490   0.801
 1331HOH      O 4179   3.220   2.741   3.923
 1331HOH     H1 4180   3.261   2.731   3.837
 1331HOH     H2 4181   3.126   2.748   3.904
 1332HOH      O 4182   0.336   0.440   2.508
 1332HOH     H1 4183   0.370   0.426   2.420
 1332HOH     H2 4184   0.347   0.356   2.552
 1333HOH      O 4185   3.282   1.204   3.317
 1333HOH     H1 4186   3.374   1.231   3.317
 1333HOH     H2 4187   3.233   1.286   3.321
 1334HOH      O 4188   0.715   1.084   2.341
 1334HOH     H1 4189   0.697   1.113   2.252
 1334HOH     H2 4190   0.634   1.043   2.371
 1335HOH      O 4191   1.378   3.902   2.905
 1335HOH     H1 4192   1.418   3.856   2.832
 1335HOH     H2 4193   1.334   3.977   2.866
 1336HOH      O 4194   0.100   2.591   0.794
 1336HOH     H1 4195   0.062   2.590   0.706
 1336HOH     H2 4196   0.027   2.569   0.852
 1337HOH      O 4197   1.917   1.197   0.888
 1337HOH     H1 4198   1.943   1.285   0.914
 1337HOH     H2 4199   1.937   1.192   0.795
 1338HOH      O 4200   2.848   1.643   3.031
 1338HOH     H1 4201   2.911   1.621   2.963
 1338HOH     H2 4202   2.861   1.736   3.048
 1339HOH      O 4203   0.722   2.596   0.798
 1339HOH     H1 4204   0.671   2.620   0.720
 1339HOH     H2 4205   0.755   2.508   0.779
 1340HOH      O 4206   0.187   3.210   0.460
 1340HOH     H1 4207   0.177   3.246   0.548
 1340HOH     H2 4208   0.125   3.138   0.456
 1341HOH      O 4209   3.925   0.390   3.336
 1341HOH     H1 4210   3.942   0.426   3.423
 1341HOH     H2 4211   3.830   0.401   3.324
 1342HOH      O 4212   3.260   3.587   3.190
 1342HOH     H1 4213   3.253   3.678   3.219
 1342HOH     H2 4214   3.169   3.558   3.181
 1343HOH      O 4215   2.151   3.112   1.382
 1343HOH     H1 4216   2.110   3.188   1.423
 1343HOH     H2 4217   2.192   3.065   1.455
 1344HOH      O 4218   1.430   1.375   2.458
 1344HOH     H1 4219   1.511   1.390   2.408
 1344HOH     H2 4220   1.390   1.300   2.415
 1345HOH      O 4221   3.019   2.841   2.522
 1345HOH     H1 4222   3.058   2.811   2.440
 1345HOH     H2 4223   2.980   2.763   2.560
 1346HOH      O 4224   3.649   3.459   3.568
 1346HOH     H1 4225   3.739   3.488   3.557
 1346HOH     H2 4226   3.641   3.384   3.509
 1347HOH      O 4227   1.070   1.857   0.650
 1347HOH     H1 4228   0.988   1.871   0.603
 1347HOH     H2 4229   1.049   1.791   0.716
 1348HOH      O 4230   0.722   0.557   1.076
 1348HOH     H1 4231   0.641   0.525   1.115
 1348HOH     H2 4232   0.784   0.485   1.087
 1349HOH      O 4233   2.434   0.593   2.208
 1349HOH     H1 4234   2.495   0.576   2.136
 1349HOH     H2 4235   2.348   0.579   2.169
 1350HOH      O 4236   1.374   2.782   3.841
 1350HOH     H1 4237   1.405   2.756   3.754
 1350HOH     H2 4238   1.450   2.771   3.898
 1351HOH      O 4239   2.500   2.082   3.815
 1351HOH     H1 4240   2.542   2.043   3.892
 1351HOH     H2 4241   2.489   2.174   3.838
 1352HOH      O 4242   1.853   1.613   2.440
 1352HOH     H1 4243   1.856   1.529   2.394
 1352HOH     H2 4244   1.944   1.629   2.466
 1353HOH      O 4245   2.215   0.614   0.149
 1353HOH     H1 4246   2.162   0.660   0.214
 1353HOH     H2 4247   2.208   0.668   0.070
 1354HOH      O 4248   3.045   0.840   1.196
 1354HOH     H1 4249   3.031   0.764   1.139
 1354HOH     H2 4250   3.088   0.804   1.273
 1355HOH      O 4251   0.302   3.967   3.146
 1355HOH     H1 4252   0.206   3.966   3.156
 1355HOH     H2 4253   0.335   3.936   3.230
 1356HOH      O 4254   2.626   2.170   3.125
 1356HOH     H1 4255   2.662   2.256   3.105
 1356HOH     H2 4256   2.533   2.186   3.140
 1357HOH      O 4257   1.715   1.242   3.098
 1357HOH     H1 4258   1.773   1.176   3.062
 1357HOH     H2 4259   1.747   1.257   3.187
 1358HOH      O 4260   1.848   2.031   0.411
 1358HOH     H1 4261   1.772   2.088   0.394
 1358HOH     H2 4262   1.822   1.946   0.374
 1359HOH      O 4263   2.751   0.056   0.109
 1359HOH     H1 4264   2.833   0.040   0.063
 1359HOH     H2 4265   2.719   0.139   0.073
 1360HOH      O 4266   2.760   2.196   0.521
 1360HOH     H1 4267   2.842   2.150   0.505
 1360HOH     H2 4268   2.762   2.215   0.615
 1361HOH      O 4269   3.665   1.931   3.875
 1361HOH     H1 4270   3.625   2.018   3.872
 1361HOH     H2 4271   3.668   1.903   3.783
 1362HOH      O 4272   0.811   2.447   3.356
 1362HOH     H1 4273   0.737   2.491   3.399
 1362HOH     H2 4274   0.837   2.508   3.286
 1363HOH      O 4275   2.965   2.298   2.449
 1363HOH     H1 4276   2.981   2.351   2.371
 1363HOH     H2 4277   3.030   2.228   2.445
 1364HOH      O 4278   0.188   1.896   2.741
 1364HOH     H1 4279   0.134   1.887   2.820
 1364HOH     H2 4280   0.228   1.983   2.749
 1365HOH      O 4281   0.056   0.530   0.829
 1365HOH     H1 4282   0.052   0.624   0.848
 1365HOH     H2 4283   0.097   0.525   0.743
 1366HOH      O 4284   3.064   2.479   0.270
 1366HOH     H1 4285   3.094   2.457   0.359
 1366HOH     H2 4286   3.094   2.570   0.258
 1367HOH      O 4287   1.288   1.997   3.576
 1367HOH     H1 4288   1.257   1.933   3.511
 1367HOH     H2 4289   1.215   2.059   3.583
 1368HOH      O 4290   3.346   0.105   0.399
 1368HOH     H1 4291   3.253   0.119   0.384
 1368HOH     H2 4292   3.382   0.086   0.313
 1369HOH      O 4293   0.257   1.550   2.883
 1369HOH     H1 4294   0.245   1.644   2.888
 1369HOH     H2 4295   0.345   1.539   2.848
 1370HOH      O 4296   4.008   3.327   2.058
 1370HOH     H1 4297   3.929   3.302   2.107
 1370HOH     H2 4298   4.037   3.408   2.101
 1371HOH      O 4299   2.775   0.585   1.298
 1371HOH     H1 4300   2.836   0.512   1.291
 1371HOH     H2 4301   2.692   0.550   1.264
 1372HOH      O 4302   0.584   1.328   1.230
 1372HOH     H1 4303   0.636   1.374   1.296
 1372HOH     H2 4304   0.523   1.274   1.280
 1373HOH      O 4305   0.606   2.087   0.989
 1373HOH     H1 4306   0.565   2.015   1.036
 1373HOH     H2 4307   0.544   2.160   0.999
 1374HOH      O 4308   3.698   2.593   2.263
 1374HOH     H1 4309   3.723   2.613   2.173
 1374HOH     H2 4310   3.705   2.677   2.309
 1375HOH      O 4311   0.771   2.320   2.825
 1375HOH     H1 4312   0.797   2.297   2.914
 1375HOH     H2 4313   0.676   2.309   2.824
 1376HOH      O 4314   0.883   2.123   0.924
 1376HOH     H1 4315   0.917   2.037   0.901
 1376HOH     H2 4316   0.793   2.106   0.952
 1377HOH      O 4317   1.700   3.687   3.813
 1377HOH     H1 4318   1.757   3.706   3.888
 1377HOH     H2 4319   1.691   3.592   3.813
 1378HOH      O 4320   0.021   2.170   2.083
 1378HOH     H1 4321  -0.025   2.251   2.106
 1378HOH     H2 4322   0.005   2.111   2.157
 1379HOH      O 4323   2.138   2.735   1.711
 1379HOH     H1 4324   2.046   2.760   1.708
 1379HOH     H2 4325   2.153   2.708   1.802
 1380HOH      O 4326   3.480   1.220   2.275
 1380HOH     H1 4327   3.529   1.138   2.264
 1380HOH     H2 4328   3.392   1.200   2.244
 1381HOH      O 4329   2.814   3.985   2.255
 1381HOH     H1 4330   2.725   3.952   2.249
 1381HOH     H2 4331   2.824   4.009   2.348
 1382HOH      O 4332   2.253   1.648   1.323
 1382HOH     H1 4333   2.293   1.569   1.359
 1382HOH     H2 4334   2.274   1.645   1.229
 1383HOH      O 4335   0.203   3.151   2.844
 1383HOH     H1 4336   0.167   3.157   2.755
 1383HOH     H2 4337   0.233   3.061   2.852
 1384HOH      O 4338   1.479   2.870   3.220
 1384HOH     H1 4339   1.452   2.787   3.258
 1384HOH     H2 4340   1.544   2.846   3.154
 1385HOH      O 4341   2.262   1.932   2.320
 1385HOH     H1 4342   2.356   1.947   2.321
 1385HOH     H2 4343   2.228   1.991   2.388
 1386HOH      O 4344   1.387   1.331   0.908
 1386HOH     H1 4345   1.411   1.242   0.883
 1386HOH     H2 4346   1.347   1.368   0.830
 1387HOH      O 4347   3.738   1.993   0.998
 1387HOH     H1 4348   3.717   2.039   1.079
 1387HOH     H2 4349   3.818   2.034   0.967
 1388HOH      O 4350   3.271   2.820   1.377
 1388HOH     H1 4351   3.333   2.870   1.431
 1388HOH     H2 4352   3.192   2.873   1.376
 1389HOH      O 4353   3.976   0.854   0.580
 1389HOH     H1 4354   3.983   0.845   0.485
 1389HOH     H2 4355   4.052   0.809   0.615
 1390HOH      O 4356   2.902   1.609   1.422
 1390HOH     H1 4357   2.914   1.520   1.456
 1390HOH     H2 4358   2.813   1.609   1.387
 1391HOH      O 4359   3.468   0.443   0.170
 1391HOH     H1 4360   3.429   0.528   0.153
 1391HOH     H2 4361   3.441   0.389   0.095
 1392HOH      O 4362   2.119   0.209   0.388
 1392HOH     H1 4363   2.107   0.187   0.295
 1392HOH     H2 4364   2.213   0.203   0.403
 1393HOH      O 4365   2.758   1.937   1.052
 1393HOH     H1 4366   2.733   1.845   1.055
 1393HOH     H2 4367   2.675   1.984   1.054
 1394HOH      O 4368   2.626   1.228   0.982
 1394HOH     H1 4369   2.707   1.256   1.026
 1394HOH     H2 4370   2.572   1.191   1.052
 1395HOH      O 4371   3.141   1.856   1.621
 1395HOH     H1 4372   3.167   1.766   1.597
 1395HOH     H2 4373   3.179   1.868   1.708
 1396HOH      O 4374   0.414   2.814   2.701
 1396HOH     H1 4375   0.327   2.853   2.692
 1396HOH     H2 4376   0.474   2.889   2.695
 1397HOH      O 4377   3.544   3.933   3.478
 1397HOH     H1 4378   3.630   3.938   3.436
 1397HOH     H2 4379   3.512   3.846   3.456
 1398HOH      O 4380   0.730   0.045   1.881
 1398HOH     H1 4381   0.813   0.000   1.897
 1398HOH     H2 4382   0.753   0.138   1.878
 1399HOH      O 4383   3.945   0.117   0.390
 1399HOH     H1 4384   3.856   0.149   0.378
 1399HOH     H2 4385   3.964   0.134   0.482
 1400HOH      O 4386   0.408   2.359   0.657
 1400HOH     H1 4387   0.347   2.309   0.711
 1400HOH     H2 4388   0.450   2.294   0.601
 1401HOH      O 4389   2.081   0.993   0.394
 1401HOH     H1 4390   2.003   1.010   0.340
 1401HOH     H2 4391   2.147   1.053   0.360
 1402HOH      O 4392   1.684   3.564   3.543
 1402HOH     H1 4393   1.695   3.613   3.461
 1402HOH     H2 4394   1.699   3.629   3.611
 1403HOH      O 4395   0.183   2.839   1.062
 1403HOH     H1 4396   0.223   2.768   1.111
 1403HOH     H2 4397   0.174   2.910   1.125
 1404HOH      O 4398   3.916   1.112   2.750
 1404HOH     H1 4399   4.010   1.116   2.732
 1404HOH     H2 4400   3.898   1.192   2.799
 1405HOH      O 4401   0.384   0.497   3.055
 1405HOH     H1 4402   0.304   0.452   3.029
 1405HOH     H2 4403   0.375   0.510   3.149
 1406HOH      O 4404   3.059   1.546   3.556
 1406HOH     H1 4405   3.001   1.481   3.516
 1406HOH     H2 4406   3.006   1.626   3.562
 1407HOH      O 4407   2.961   0.909   2.449
 1407HOH     H1 4408   2.901   0.917   2.523
 1407HOH     H2 4409   2.914   0.948   2.376
 1408HOH      O 4410   1.897  -0.006   3.348
 1408HOH     H1 4411   1.915   0.088   3.359
 1408HOH     H2 4412   1.861  -0.012   3.259
 1409HOH      O 4413   1.650   2.880   2.786
 1409HOH     H1 4414   1.734   2.837   2.801
 1409HOH     H2 4415   1.614   2.894   2.873
 1410HOH      O 4416   1.352   2.351   3.479
 1410HOH     H1 4417   1.306   2.294   3.417
 1410HOH     H2 4418   1.295   2.352   3.556
 1411HOH      O 4419   2.214   3.612   2.183
 1411HOH     H1 4420   2.249   3.672   2.117
 1411HOH     H2 4421   2.197   3.667   2.259
 1412HOH      O 4422   3.970   2.674   3.578
 1412HOH     H1 4423   3.984   2.671   3.673
 1412HOH     H2 4424   3.964   2.767   3.557
 1413HOH      O 4425   3.235   3.844   3.252
 1413HOH     H1 4426   3.286   3.838   3.333
 1413HOH     H2 4427   3.196   3.931   3.255
 1414HOH      O 4428   2.147   1.386   2.632
 1414HOH     H1 4429   2.087   1.383   2.706
 1414HOH     H2 4430   2.107   1.330   2.565
 1415HOH      O 4431   1.435   3.324   0.132
 1415HOH     H1 4432   1.355   3.281   0.161
 1415HOH     H2 4433   1.481   3.258   0.080
 1416HOH      O 4434   1.411   2.914   0.527
 1416HOH     H1 4435   1.437   2.901   0.618
 1416HOH     H2 4436   1.421   3.008   0.512
 1417HOH      O 4437   1.351   3.611   3.799
 1417HOH     H1 4438   1.443   3.634   3.785
 1417HOH     H2 4439   1.334   3.542   3.735
 1418HOH      O 4440   0.446   1.605   1.903
 1418HOH     H1 4441   0.490   1.667   1.845
 1418HOH     H2 4442   0.405   1.542   1.844
 1419HOH      O 4443   1.410   2.663   2.299
 1419HOH     H1 4444   1.426   2.569   2.307
 1419HOH     H2 4445   1.442   2.699   2.382
 1420HOH      O 4446   3.504   2.968   2.875
 1420HOH     H1 4447   3.425   2.979   2.927
 1420HOH     H2 4448   3.473   2.932   2.791
 1421HOH      O 4449   3.145   3.633   1.429
 1421HOH     H1 4450   3.115   3.714   1.468
 1421HOH     H2 4451   3.222   3.608   1.480
 1422HOH      O 4452   3.393   2.419   1.471
 1422HOH     H1 4453   3.441   2.339   1.493
 1422HOH     H2 4454   3.395   2.422   1.375
 1423HOH      O 4455   2.707   2.388   3.887
 1423HOH     H1 4456   2.771   2.369   3.956
 1423HOH     H2 4457   2.686   2.481   3.897
 1424HOH      O 4458   0.435   3.902   3.365
 1424HOH     H1 4459   0.451   3.843   3.439
 1424HOH     H2 4460   0.515   3.899   3.313
 1425HOH      O 4461   3.350   0.341   2.212
 1425HOH     H1 4462   3.437   0.328   2.174
 1425HOH     H2 4463   3.294   0.362   2.137
 1426HOH      O 4464   0.951   1.813   2.650
 1426HOH     H1 4465   0.924   1.904   2.639
 1426HOH     H2 4466   0.983   1.808   2.740
 1427HOH      O 4467   0.549   1.814   2.575
 1427HOH     H1 4468   0.476   1.753   2.584
 1427HOH     H2 4469   0.572   1.837   2.666
 1428HOH      O 4470   2.753   1.784   2.275
 1428HOH     H1 4471   2.729   1.691   2.281
 1428HOH     H2 4472   2.687   1.822   2.217
 1429HOH      O 4473   1.581   3.415   0.504
 1429HOH     H1 4474   1.529   3.488   0.467
 1429HOH     H2 4475   1.667   3.453   0.521
 1430HOH      O 4476   1.452   3.462   0.972
 1430HOH     H1 4477   1.503   3.510   1.037
 1430HOH     H2 4478   1.502   3.381   0.958
 1431HOH      O 4479   0.681   3.292   2.695
 1431HOH     H1 4480   0.666   3.341   2.615
 1431HOH     H2 4481   0.668   3.356   2.765
 1432HOH      O 4482   2.591   2.500   3.357
 1432HOH     H1 4483   2.646   2.576   3.375
 1432HOH     H2 4484   2.609   2.440   3.429
 1433HOH      O 4485   3.646   0.950   0.397
 1433HOH     H1 4486   3.634   0.888   0.468
 1433HOH     H2 4487   3.593   1.025   0.422
 1434HOH      O 4488   2.226   0.783   0.608
 1434HOH     H1 4489   2.147   0.821   0.570
 1434HOH     H2 4490   2.271   0.743   0.533
 1435HOH      O 4491   3.122   0.748   1.745
 1435HOH     H1 4492   3.083   0.765   1.659
 1435HOH     H2 4493   3.077   0.808   1.804
 1436HOH      O 4494   2.296   2.083   3.037
 1436HOH     H1 4495   2.318   2.127   3.118
 1436HOH     H2 4496   2.210   2.116   3.013
 1437HOH      O 4497   0.654   1.094   1.540
 1437HOH     H1 4498   0.580   1.108   1.481
 1437HOH     H2 4499   0.723   1.058   1.483
 1438HOH      O 4500   0.393   2.043   0.299
 1438HOH     H1 4501   0.401   2.137   0.287
 1438HOH     H2 4502   0.322   2.017   0.241
 1439HOH      O 4503   3.107   1.745   1.304
 1439HOH     H1 4504   3.036   1.732   1.367
 1439HOH     H2 4505   3.082   1.691   1.229
 1440HOH      O 4506   1.488   1.869   3.182
 1440HOH     H1 4507   1.558   1.901   3.125
 1440HOH     H2 4508   1.526   1.873   3.270
 1441HOH      O 4509   1.010   3.452   1.341
 1441HOH     H1 4510   1.073   3.382   1.332
 1441HOH     H2 4511   0.932   3.421   1.295
 1442HOH      O 4512   1.066   3.259   0.453
 1442HOH     H1 4513   1.078   3.329   0.388
 1442HOH     H2 4514   1.059   3.304   0.537
 1443HOH      O 4515   1.244   3.720   2.488
 1443HOH     H1 4516   1.164   3.758   2.524
 1443HOH     H2 4517   1.219   3.630   2.466
 1444HOH      O 4518   3.923   2.963   0.797
 1444HOH     H1 4519   3.917   2.936   0.888
 1444HOH     H2 4520   3.918   3.059   0.800
 1445HOH      O 4521   3.078   3.892   3.946
 1445HOH     H1 4522   2.987   3.907   3.921
 1445HOH     H2 4523   3.122   3.867   3.865
 1446HOH      O 4524   2.587   0.667   1.879
 1446HOH     H1 4525   2.547   0.729   1.818
 1446HOH     H2 4526   2.562   0.581   1.846
 1447HOH      O 4527   1.671   2.536   2.825
 1447HOH     H1 4528   1.746   2.492   2.866
 1447HOH     H2 4529   1.708   2.584   2.752
 1448HOH      O 4530   3.431   1.454   1.874
 1448HOH     H1 4531   3.512   1.494   1.841
 1448HOH     H2 4532   3.393   1.410   1.798
 1449HOH      O 4533   1.769   3.350   1.190
 1449HOH     H1 4534   1.721   3.337   1.108
 1449HOH     H2 4535   1.845   3.404   1.165
 1450HOH      O 4536   2.532   0.258   3.456
 1450HOH     H1 4537   2.541   0.336   3.401
 1450HOH     H2 4538   2.605   0.202   3.431
 1451HOH      O 4539   1.100   2.350   2.121
 1451HOH     H1 4540   1.090   2.429   2.067
 1451HOH     H2 4541   1.021   2.349   2.175
 1452HOH      O 4542   3.278   1.307   0.936
 1452HOH     H1 4543   3.263   1.401   0.923
 1452HOH     H2 4544   3.309   1.276   0.851
 1453HOH      O 4545   1.733   3.273   3.546
 1453HOH     H1 4546   1.728   3.368   3.534
 1453HOH     H2 4547   1.642   3.243   3.541
 1454HOH      O 4548   2.278   3.991   2.314
 1454HOH     H1 4549   2.224   3.913   2.301
 1454HOH     H2 4550   2.216   4.062   2.327
 1455HOH      O 4551   0.949   3.905   0.348
 1455HOH     H1 4552   0.894   3.887   0.424
 1455HOH     H2 4553   0.955   3.821   0.302
 1456HOH      O 4554   2.927   2.033   2.589
 1456HOH     H1 4555   2.930   2.018   2.494
 1456HOH     H2 4556   2.912   1.945   2.626
 1457HOH      O 4557   3.632   3.028   0.489
 1457HOH     H1 4558   3.616   2.950   0.543
 1457HOH     H2 4559   3.642   2.993   0.400
 1458HOH      O 4560   0.414   2.951   0.001
 1458HOH     H1 4561   0.466   2.875  -0.026
 1458HOH     H2 4562   0.471   3.000   0.060
 1459HOH      O 4563   1.421   3.183   0.494
 1459HOH     H1 4564   1.347   3.237   0.465
 1459HOH     H2 4565   1.493   3.245   0.505
 1460HOH      O 4566   2.651   2.635   3.905
 1460HOH     H1 4567   2.642   2.684   3.824
 1460HOH     H2 4568   2.572   2.657   3.955
 1461HOH      O 4569   3.041   3.225   2.282
 1461HOH     H1 4570   3.028   3.164   2.355
 1461HOH     H2 4571   2.965   3.212   2.225
 1462HOH      O 4572   0.933   2.282   1.389
 1462HOH     H1 4573   0.953   2.217   1.322
 1462HOH     H2 4574   0.869   2.340   1.348
 1463HOH      O 4575   0.062   2.547   1.226
 1463HOH     H1 4576   0.076   2.455   1.245
 1463HOH     H2 4577   0.146   2.578   1.194
 1464HOH      O 4578   3.852   2.491   3.427
 1464HOH     H1 4579   3.900   2.560   3.472
 1464HOH     H2 4580   3.846   2.521   3.336
 1465HOH      O 4581   3.648   0.595   3.147
 1465HOH     H1 4582   3.618   0.611   3.057
 1465HOH     H2 4583   3.715   0.527   3.138
 1466HOH      O 4584   1.373   0.822   0.028
 1466HOH     H1 4585   1.301   0.841  -0.031
 1466HOH     H2 4586   1.424   0.903   0.029
 1467HOH      O 4587   0.401   3.806   2.926
 1467HOH     H1 4588   0.405   3.881   2.866
 1467HOH     H2 4589   0.373   3.844   3.009
 1468HOH      O 4590   1.380   1.927   0.841
 1468HOH     H1 4591   1.340   1.845   0.813
 1468HOH     H2 4592   1.408   1.969   0.760
 1469HOH      O 4593   0.630   0.557   0.705
 1469HOH     H1 4594   0.710   0.604   0.679
 1469HOH     H2 4595   0.560   0.606   0.663
 1470HOH      O 4596   0.054   1.623   3.817
 1470HOH     H1 4597  -0.024   1.585   3.859
 1470HOH     H2 4598   0.059   1.577   3.733
 1471HOH      O 4599   0.110   2.698   2.399
 1471HOH     H1 4600   0.179   2.662   2.455
 1471HOH     H2 4601   0.103   2.637   2.326
 1472HOH      O 4602   3.666   2.386   0.864
 1472HOH     H1 4603   3.716   2.358   0.940
 1472HOH     H2 4604   3.732   2.415   0.800
 1473HOH      O 4605   3.449   2.088   1.858
 1473HOH     H1 4606   3.482   2.117   1.943
 1473HOH     H2 4607   3.388   2.157   1.831
 1474HOH      O 4608   3.823   3.699   3.251
 1474HOH     H1 4609   3.735   3.670   3.227
 1474HOH     H2 4610   3.873   3.694   3.169
 1475HOH      O 4611   2.622   2.390   2.323
 1475HOH     H1 4612   2.534   2.417   2.297
 1475HOH     H2 4613   2.637   2.435   2.407
 1476HOH      O 4614   3.386   1.176   1.158
 1476HOH     H1 4615   3.431   1.099   1.123
 1476HOH     H2 4616   3.348   1.218   1.081
 1477HOH      O 4617   3.033   2.745   0.356
 1477HOH     H1 4618   2.983   2.763   0.277
 1477HOH     H2 4619   2.968   2.718   0.421
 1478HOH      O 4620   4.024   2.299   0.914
 1478HOH     H1 4621   3.988   2.250   0.840
 1478HOH     H2 4622   3.973   2.380   0.917
 1479HOH      O 4623   1.626   0.422   1.674
 1479HOH     H1 4624   1.687   0.357   1.710
 1479HOH     H2 4625   1.540   0.380   1.678
 1480HOH      O 4626   1.043   3.387   0.703
 1480HOH     H1 4627   1.111   3.350   0.759
 1480HOH     H2 4628   1.071   3.477   0.686
 1481HOH      O 4629   0.597   1.861   2.114
 1481HOH     H1 4630   0.675   1.873   2.168
 1481HOH     H2 4631   0.525   1.863   2.176
 1482HOH      O 4632   2.914   3.734   1.046
 1482HOH     H1 4633   2.975   3.685   1.101
 1482HOH     H2 4634   2.832   3.685   1.053
 1483HOH      O 4635   1.666   3.413   3.826
 1483HOH     H1 4636   1.737   3.358   3.793
 1483HOH     H2 4637   1.587   3.361   3.811
 1484HOH      O 4638   3.192   0.759   2.392
 1484HOH     H1 4639   3.202   0.745   2.298
 1484HOH     H2 4640   3.114   0.815   2.400
 1485HOH      O 4641   3.581   0.898   2.088
 1485HOH     H1 4642   3.666   0.867   2.059
 1485HOH     H2 4643   3.591   0.911   2.182
 1486HOH      O 4644   3.216   3.227   1.353
 1486HOH     H1 4645   3.130   3.263   1.330
 1486HOH     H2 4646   3.213   3.214   1.448
 1487HOH      O 4647   3.412   1.941   1.085
 1487HOH     H1 4648   3.318   1.946   1.100
 1487HOH     H2 4649   3.426   1.983   1.000
 1488HOH      O 4650   2.715   2.751   1.744
 1488HOH     H1 4651   2.620   2.744   1.750
 1488HOH     H2 4652   2.741   2.798   1.824
 1489HOH      O 4653   2.314   0.127   3.074
 1489HOH     H1 4654   2.374   0.176   3.018
 1489HOH     H2 4655   2.369   0.090   3.142
 1490HOH      O 4656   0.021   0.898   0.320
 1490HOH     H1 4657   0.112   0.905   0.294
 1490HOH     H2 4658  -0.017   0.983   0.300
 1491HOH      O 4659   1.232   1.483   0.703
 1491HOH     H1 4660   1.211   1.401   0.659
 1491HOH     H2 4661   1.151   1.508   0.748
 1492HOH      O 4662   1.705   3.451   1.948
 1492HOH     H1 4663   1.754   3.420   2.024
 1492HOH     H2 4664   1.760   3.428   1.873
 1493HOH      O 4665   2.706   3.497   2.803
 1493HOH     H1 4666   2.673   3.530   2.886
 1493HOH     H2 4667   2.679   3.561   2.738
 1494HOH      O 4668   3.654   2.579   3.173
 1494HOH     H1 4669   3.723   2.643   3.158
 1494HOH     H2 4670   3.575   2.631   3.186
 1495HOH      O 4671   0.725   2.611   2.427
 1495HOH     H1 4672   0.681   2.579   2.348
 1495HOH     H2 4673   0.752   2.700   2.406
 1496HOH      O 4674   1.888   2.263   2.826
 1496HOH     H1 4675   1.953   2.312   2.776
 1496HOH     H2 4676   1.938   2.212   2.889
 1497HOH      O 4677   0.103  -0.007   1.912
 1497HOH     H1 4678   0.174  -0.017   1.975
 1497HOH     H2 4679   0.042   0.053   1.953
 1498HOH      O 4680   1.646   3.869   0.906
 1498HOH     H1 4681   1.599   3.920   0.840
 1498HOH     H2 4682   1.708   3.931   0.944
 1499HOH      O 4683   0.229   3.095   3.463
 1499HOH     H1 4684   0.150   3.128   3.420
 1499HOH     H2 4685   0.225   3.132   3.551
 1500HOH      O 4686   3.853   2.449   0.666
 1500HOH     H1 4687   3.864   2.538   0.633
 1500HOH     H2 4688   3.928   2.401   0.631
 1501HOH      O 4689   1.459   1.298   1.546
 1501HOH     H1 4690   1.392   1.299   1.478
 1501HOH     H2 4691   1.536   1.337   1.505
 1502HOH      O 4692   2.276   1.852   3.428
 1502HOH     H1 4693   2.286   1.918   3.496
 1502HOH     H2 4694   2.365   1.837   3.395
 1503HOH      O 4695   1.536   1.655   3.637
 1503HOH     H1 4696   1.448   1.657   3.675
 1503HOH     H2 4697   1.545   1.567   3.602
 1504HOH      O 4698   1.440   0.231   1.351
 1504HOH     H1 4699   1.527   0.260   1.378
 1504HOH     H2 4700   1.456   0.161   1.288
 1505HOH      O 4701   2.585   0.471   1.607
 1505HOH     H1 4702   2.507   0.524   1.625
 1505HOH     H2 4703   2.565   0.386   1.645
 1506HOH      O 4704   1.588   2.453   2.095
 1506HOH     H1 4705   1.515   2.486   2.043
 1506HOH     H2 4706   1.553   2.447   2.184
 1507HOH      O 4707   0.251   2.249   0.845
 1507HOH     H1 4708   0.214   2.163   0.862
 1507HOH     H2 4709   0.176   2.308   0.847
 1508HOH      O 4710   0.440   2.540   1.368
 1508HOH     H1 4711   0.481   2.454   1.368
 1508HOH     H2 4712   0.363   2.530   1.424
 1509HOH      O 4713   3.605   1.553   1.284
 1509HOH     H1 4714   3.612   1.551   1.188
 1509HOH     H2 4715   3.579   1.643   1.304
 1510HOH      O 4716   2.967   3.311   1.300
 1510HOH     H1 4717   2.918   3.394   1.300
 1510HOH     H2 4718   2.983   3.293   1.207
 1511HOH      O 4719   3.681   1.274   1.587
 1511HOH     H1 4720   3.673   1.339   1.657
 1511HOH     H2 4721   3.606   1.292   1.529
 1512HOH      O 4722   3.672   2.929   3.440
 1512HOH     H1 4723   3.605   2.865   3.464
 1512HOH     H2 4724   3.624   3.011   3.426
 1513HOH      O 4725   3.925   3.471   0.419
 1513HOH     H1 4726   3.843   3.485   0.466
 1513HOH     H2 4727   3.943   3.378   0.426
 1514HOH      O 4728   3.872   2.445   0.256
 1514HOH     H1 4729   3.848   2.364   0.300
 1514HOH     H2 4730   3.829   2.513   0.307
 1515HOH      O 4731   1.349   3.939   3.551
 1515HOH     H1 4732   1.270   3.890   3.525
 1515HOH     H2 4733   1.359   4.006   3.483
 1516HOH      O 4734   2.333   1.475   3.977
 1516HOH     H1 4735   2.240   1.474   3.998
 1516HOH     H2 4736   2.338   1.445   3.886
 1517HOH      O 4737   3.371   3.156   1.149
 1517HOH     H1 4738   3.332   3.139   1.063
 1517HOH     H2 4739   3.296   3.173   1.206
 1518HOH      O 4740   1.941   2.580   0.479
 1518HOH     H1 4741   1.983   2.619   0.556
 1518HOH     H2 4742   1.862   2.633   0.466
 1519HOH      O 4743   2.169   0.398   2.488
 1519HOH     H1 4744   2.202   0.360   2.570
 1519HOH     H2 4745   2.244   0.443   2.451
 1520HOH      O 4746   3.577   3.001   1.288
 1520HOH     H1 4747   3.565   3.020   1.381
 1520HOH     H2 4748   3.499   3.036   1.246
 1521HOH      O 4749   3.109   1.353   2.581
 1521HOH     H1 4750   3.142   1.271   2.544
 1521HOH     H2 4751   3.177   1.382   2.641
 1522HOH      O 4752   3.012   1.725   2.363
 1522HOH     H1 4753   2.919   1.721   2.339
 1522HOH     H2 4754   3.047   1.641   2.333
 1523HOH      O 4755   1.285   3.929   0.457
 1523HOH     H1 4756   1.378   3.921   0.435
 1523HOH     H2 4757   1.255   4.003   0.405
 1524HOH      O 4758   3.076   1.142   2.892
 1524HOH     H1 4759   3.084   1.082   2.818
 1524HOH     H2 4760   3.072   1.086   2.969
 1525HOH      O 4761   1.515   3.618   1.747
 1525HOH     H1 4762   1.459   3.552   1.786
 1525HOH     H2 4763   1.588   3.569   1.710
 1526HOH      O 4764   3.937   3.825   1.965
 1526HOH     H1 4765   3.975   3.909   1.937
 1526HOH     H2 4766   4.010   3.778   2.006
 1527HOH      O 4767   3.013   3.334   1.712
 1527HOH     H1 4768   2.982   3.251   1.747
 1527HOH     H2 4769   2.942   3.363   1.654
 1528HOH      O 4770   0.362   2.555   0.853
 1528HOH     H1 4771   0.267   2.567   0.849
 1528HOH     H2 4772   0.380   2.493   0.782
 1529HOH      O 4773   2.118   3.771   0.076
 1529HOH     H1 4774   2.045   3.815   0.119
 1529HOH     H2 4775   2.106   3.678   0.096
 1530HOH      O 4776   0.387   2.897   1.576
 1530HOH     H1 4777   0.397   2.991   1.561
 1530HOH     H2 4778   0.447   2.856   1.515
 1531HOH      O 4779   3.441   0.066   3.676
 1531HOH     H1 4780   3.466  -0.002   3.615
 1531HOH     H2 4781   3.515   0.127   3.675
 1532HOH      O 4782   2.415   0.191   0.888
 1532HOH     H1 4783   2.408   0.234   0.803
 1532HOH     H2 4784   2.484   0.239   0.934
 1533HOH      O 4785   4.021   2.627   3.017
 1533HOH     H1 4786   4.013   2.682   3.096
 1533HOH     H2 4787   3.994   2.684   2.945
 1534HOH      O 4788   0.915   2.970   4.052
 1534HOH     H1 4789   0.895   2.889   4.005
 1534HOH     H2 4790   0.869   3.038   4.003
 1535HOH      O 4791   1.176   3.838   0.069
 1535HOH     H1 4792   1.206   3.921   0.106
 1535HOH     H2 4793   1.130   3.795   0.141
 1536HOH      O 4794   3.788   3.652   0.917
 1536HOH     H1 4795   3.757   3.655   1.008
 1536HOH     H2 4796   3.759   3.567   0.884
 1537HOH      O 4797   0.075   2.371   3.842
 1537HOH     H1 4798   0.001   2.310   3.840
 1537HOH     H2 4799   0.118   2.353   3.926
 1538HOH      O 4800   0.468   3.398   1.233
 1538HOH     H1 4801   0.494   3.490   1.224
 1538HOH     H2 4802   0.378   3.395   1.202
 1539HOH      O 4803   2.363   3.989   1.321
 1539HOH     H1 4804   2.394   3.920   1.380
 1539HOH     H2 4805   2.300   4.039   1.373
 1540HOH      O 4806   2.296   2.618   1.398
 1540HOH     H1 4807   2.355   2.690   1.422
 1540HOH     H2 4808   2.219   2.661   1.361
 1541HOH      O 4809   1.512   2.796   2.043
 1541HOH     H1 4810   1.522   2.886   2.072
 1541HOH     H2 4811   1.461   2.754   2.112
 1542HOH      O 4812   1.786   1.955   1.499
 1542HOH     H1 4813   1.777   2.038   1.451
 1542HOH     H2 4814   1.871   1.921   1.472
 1543HOH      O 4815   0.216   3.073   1.215
 1543HOH     H1 4816   0.308   3.074   1.240
 1543HOH     H2 4817   0.190   3.165   1.217
 1544HOH      O 4818   2.480   0.868   0.511
 1544HOH     H1 4819   2.457   0.809   0.439
 1544HOH     H2 4820   2.405   0.863   0.571
 1545HOH      O 4821   2.542   3.794   1.058
 1545HOH     H1 4822   2.578   3.711   1.089
 1545HOH     H2 4823   2.456   3.801   1.099
 1546HOH      O 4824   0.515   1.546   1.038
 1546HOH     H1 4825   0.529   1.456   1.067
 1546HOH     H2 4826   0.445   1.579   1.094
 1547HOH      O 4827   2.630   1.258   0.688
 1547HOH     H1 4828   2.657   1.232   0.776
 1547HOH     H2 4829   2.643   1.353   0.685
 1548HOH      O 4830   1.390   1.128   0.482
 1548HOH     H1 4831   1.315   1.154   0.535
 1548HOH     H2 4832   1.374   1.167   0.396
 1549HOH      O 4833   0.657   2.106   3.767
 1549HOH     H1 4834   0.645   2.123   3.860
 1549HOH     H2 4835   0.659   2.011   3.760
 1550HOH      O 4836   2.227   3.344   0.917
 1550HOH     H1 4837   2.291   3.392   0.970
 1550HOH     H2 4838   2.214   3.261   0.964
 1551HOH      O 4839   3.934   1.906   3.198
 1551HOH     H1 4840   3.843   1.886   3.218
 1551HOH     H2 4841   3.966   1.953   3.275
 1552HOH      O 4842   0.037   0.764   2.024
 1552HOH     H1 4843   0.000   0.848   2.052
 1552HOH     H2 4844   0.037   0.711   2.104
 1553HOH      O 4845   2.440   3.381   3.635
 1553HOH     H1 4846   2.536   3.379   3.633
 1553HOH     H2 4847   2.419   3.448   3.699
 1554HOH      O 4848   0.255  -0.005   2.803
 1554HOH     H1 4849   0.290   0.084   2.795
 1554HOH     H2 4850   0.167   0.007   2.838
 1555HOH      O 4851   3.805   0.361   2.997
 1555HOH     H1 4852   3.822   0.285   2.941
 1555HOH     H2 4853   3.858   0.431   2.958
 1556HOH      O 4854   0.236   0.064   1.512
 1556HOH     H1 4855   0.305   0.087   1.573
 1556HOH     H2 4856   0.155   0.089   1.556
 1557HOH      O 4857   3.531   3.671   3.425
 1557HOH     H1 4858   3.542   3.620   3.345
 1557HOH     H2 4859   3.571   3.617   3.493
 1558HOH      O 4860   0.154   3.726   2.024
 1558HOH     H1 4861   0.210   3.797   2.055
 1558HOH     H2 4862   0.165   3.727   1.928
 1559HOH      O 4863   3.004   1.338   2.067
 1559HOH     H1 4864   2.959   1.321   1.984
 1559HOH     H2 4865   3.066   1.408   2.047
 1560HOH      O 4866   1.600   2.311   1.441
 1560HOH     H1 4867   1.667   2.377   1.458
 1560HOH     H2 4868   1.633   2.261   1.367
 1561HOH      O 4869   0.528   0.330   0.822
 1561HOH     H1 4870   0.560   0.409   0.778
 1561HOH     H2 4871   0.435   0.328   0.802
 1562HOH      O 4872   2.773   0.425   3.838
 1562HOH     H1 4873   2.813   0.503   3.799
 1562HOH     H2 4874   2.765   0.364   3.764
 1563HOH      O 4875   2.069   3.267   2.433
 1563HOH     H1 4876   2.045   3.178   2.457
 1563HOH     H2 4877   2.145   3.288   2.488
 1564HOH      O 4878   2.526   1.134   0.413
 1564HOH     H1 4879   2.541   1.049   0.453
 1564HOH     H2 4880   2.590   1.192   0.455
 1565HOH      O 4881   3.100   0.490   1.558
 1565HOH     H1 4882   3.105   0.441   1.641
 1565HOH     H2 4883   3.007   0.508   1.546
 1566HOH      O 4884   1.803   2.300   1.798
 1566HOH     H1 4885   1.710   2.304   1.775
 1566HOH     H2 4886   1.821   2.207   1.812
 1567HOH      O 4887   1.290   1.661   0.324
 1567HOH     H1 4888   1.215   1.613   0.358
 1567HOH     H2 4889   1.286   1.746   0.368
 1568HOH      O 4890   2.121   3.713   0.415
 1568HOH     H1 4891   2.126   3.625   0.378
 1568HOH     H2 4892   2.065   3.761   0.354
 1569HOH      O 4893   2.566   3.412   0.898
 1569HOH     H1 4894   2.498   3.461   0.945
 1569HOH     H2 4895   2.518   3.359   0.834
 1570HOH      O 4896   2.965   0.707   3.458
 1570HOH     H1 4897   2.919   0.791   3.468
 1570HOH     H2 4898   2.969   0.693   3.364
 1571HOH      O 4899   3.686   0.633   0.017
 1571HOH     H1 4900   3.722   0.621   0.104
 1571HOH     H2 4901   3.594   0.607   0.025
 1572HOH      O 4902   3.453   2.711   0.046
 1572HOH     H1 4903   3.517   2.667  -0.009
 1572HOH     H2 4904   3.369   2.674   0.020
 1573HOH      O 4905   1.158   3.489   0.285
 1573HOH     H1 4906   1.184   3.532   0.366
 1573HOH     H2 4907   1.096   3.549   0.244
 1574HOH      O 4908   0.611   2.374   3.992
 1574HOH     H1 4909   0.591   2.282   3.973
 1574HOH     H2 4910   0.572   2.423   3.919
 1575HOH      O 4911   2.139   0.822   3.550
 1575HOH     H1 4912   2.154   0.754   3.616
 1575HOH     H2 4913   2.070   0.877   3.587
 1576HOH      O 4914   3.974   2.957   3.549
 1576HOH     H1 4915   4.005   3.045   3.531
 1576HOH     H2 4916   3.898   2.946   3.491
 1577HOH      O 4917   2.047   3.295   1.588
 1577HOH     H1 4918   2.076   3.340   1.667
 1577HOH     H2 4919   2.063   3.357   1.517
 1578HOH      O 4920   2.936   3.513   0.055
 1578HOH     H1 4921   2.944   3.542  -0.036
 1578HOH     H2 4922   2.929   3.594   0.106
 1579HOH      O 4923   2.404   2.404   1.943
 1579HOH     H1 4924   2.343   2.333   1.964
 1579HOH     H2 4925   2.403   2.460   2.021
 1580HOH      O 4926   2.988   0.808   3.956
 1580HOH     H1 4927   2.995   0.847   3.869
 1580HOH     H2 4928   3.023   0.719   3.945
 1581HOH      O 4929   0.562   3.323   2.009
 1581HOH     H1 4930   0.537   3.412   1.983
 1581HOH     H2 4931   0.644   3.334   2.057
 1582HOH      O 4932   2.586   0.732   3.357
 1582HOH     H1 4933   2.506   0.783   3.347
 1582HOH     H2 4934   2.622   0.726   3.269
 1583HOH      O 4935   0.590   0.154   0.388
 1583HOH     H1 4936   0.614   0.133   0.298
 1583HOH     H2 4937   0.561   0.071   0.426
 1584HOH      O 4938   2.538   1.678   0.005
 1584HOH     H1 4939   2.624   1.646  -0.023
 1584HOH     H2 4940   2.489   1.599   0.029
 1585HOH      O 4941   0.800   3.015   1.123
 1585HOH     H1 4942   0.854   3.084   1.086
 1585HOH     H2 4943   0.857   2.970   1.185
 1586HOH      O 4944   1.516   4.052   3.125
 1586HOH     H1 4945   1.609   4.030   3.129
 1586HOH     H2 4946   1.478   3.985   3.067
 1587HOH      O 4947   3.813   3.487   0.159
 1587HOH     H1 4948   3.851   3.466   0.244
 1587HOH     H2 4949   3.732   3.436   0.156
 1588HOH      O 4950   1.188   3.666   0.479
 1588HOH     H1 4951   1.211   3.757   0.458
 1588HOH     H2 4952   1.140   3.672   0.561
 1589HOH      O 4953   0.489   1.851   1.805
 1589HOH     H1 4954   0.395   1.847   1.816
 1589HOH     H2 4955   0.523   1.874   1.891
 1590HOH      O 4956   2.746   3.289   1.088
 1590HOH     H1 4957   2.710   3.200   1.091
 1590HOH     H2 4958   2.778   3.299   0.999
 1591HOH      O 4959   3.495   1.453   2.410
 1591HOH     H1 4960   3.494   1.375   2.355
 1591HOH     H2 4961   3.523   1.421   2.496
 1592HOH      O 4962   1.842   3.080   2.304
 1592HOH     H1 4963   1.905   3.107   2.237
 1592HOH     H2 4964   1.852   3.145   2.374
 1593HOH      O 4965   1.604   3.938   2.421
 1593HOH     H1 4966   1.660   3.872   2.380
 1593HOH     H2 4967   1.564   3.983   2.347
 1594HOH      O 4968   3.714   0.471   1.040
 1594HOH     H1 4969   3.742   0.562   1.051
 1594HOH     H2 4970   3.794   0.423   1.017
 1595HOH      O 4971   2.525   2.700   1.034
 1595HOH     H1 4972   2.617   2.726   1.044
 1595HOH     H2 4973   2.508   2.709   0.941
 1596HOH      O 4974   3.422   2.363   3.705
 1596HOH     H1 4975   3.358   2.427   3.736
 1596HOH     H2 4976   3.424   2.375   3.610
 1597HOH      O 4977   1.211   0.600   0.098
 1597HOH     H1 4978   1.261   0.672   0.060
 1597HOH     H2 4979   1.230   0.604   0.192
 1598HOH      O 4980   1.746   0.446   3.581
 1598HOH     H1 4981   1.691   0.389   3.635
 1598HOH     H2 4982   1.813   0.478   3.641
 1599HOH      O 4983   1.218   2.132   0.964
 1599HOH     H1 4984   1.155   2.144   0.893
 1599HOH     H2 4985   1.260   2.049   0.945
 1600HOH      O 4986   3.920   2.117   0.727
 1600HOH     H1 4987   3.961   2.155   0.649
 1600HOH     H2 4988   3.847   2.065   0.694
 1601HOH      O 4989   2.704   2.344   1.934
 1601HOH     H1 4990   2.765   2.383   1.871
 1601HOH     H2 4991   2.617   2.363   1.898
 1602HOH      O 4992   0.252   0.821   3.377
 1602HOH     H1 4993   0.214   0.908   3.387
 1602HOH     H2 4994   0.320   0.832   3.310
 1603HOH      O 4995   3.850   3.403   1.871
 1603HOH     H1 4996   3.910   3.369   1.938
 1603HOH     H2 4997   3.902   3.403   1.791
 1604HOH      O 4998   1.855   0.295   2.751
 1604HOH     H1 4999   1.892   0.260   2.832
 1604HOH     H2 5000   1.914   0.366   2.727
 1605HOH      O 5001   3.869   3.217   3.621
 1605HOH     H1 5002   3.835   3.214   3.532
 1605HOH     H2 5003   3.794   3.198   3.677
 1606HOH      O 5004   2.909   3.731   3.595
 1606HOH     H1 5005   2.896   3.822   3.571
 1606HOH     H2 5006   2.833   3.709   3.649
 1607HOH      O 5007   3.885   3.536   2.655
 1607HOH     H1 5008   3.811   3.526   2.596
 1607HOH     H2 5009   3.958   3.496   2.609
 1608HOH      O 5010   2.390   0.411   1.938
 1608HOH     H1 5011   2.441   0.336   1.906
 1608HOH     H2 5012   2.354   0.382   2.022
 1609HOH      O 5013   3.767   0.400   1.855
 1609HOH     H1 5014   3.745   0.461   1.784
 1609HOH     H2 5015   3.731   0.440   1.934
 1610HOH      O 5016   2.449   1.710   0.997
 1610HOH     H1 5017   2.373   1.653   1.007
 1610HOH     H2 5018   2.420   1.778   0.936
 1611HOH      O 5019   1.167   0.261   0.869
 1611HOH     H1 5020   1.177   0.172   0.834
 1611HOH     H2 5021   1.208   0.257   0.955
 1612HOH      O 5022   3.071   0.602   1.065
 1612HOH     H1 5023   3.011   0.528   1.079
 1612HOH     H2 5024   3.155   0.561   1.044
 1613HOH      O 5025   0.325   2.840   3.004
 1613HOH     H1 5026   0.388   2.783   2.960
 1613HOH     H2 5027   0.248   2.838   2.948
 1614HOH      O 5028   1.339   1.917   2.819
 1614HOH     H1 5029   1.358   1.967   2.739
 1614HOH     H2 5030   1.424   1.906   2.861
 1615HOH      O 5031   0.327   0.780   0.319
 1615HOH     H1 5032   0.265   0.726   0.269
 1615HOH     H2 5033   0.408   0.775   0.269
 1616HOH      O 5034   0.903   1.976   0.175
 1616HOH     H1 5035   0.916   1.932   0.091
 1616HOH     H2 5036   0.991   2.002   0.203
 1617HOH      O 5037   3.107   2.596   2.921
 1617HOH     H1 5038   3.089   2.681   2.962
 1617HOH     H2 5039   3.202   2.595   2.910
 1618HOH      O 5040   2.122   3.845   0.635
 1618HOH     H1 5041   2.203   3.894   0.647
 1618HOH     H2 5042   2.135   3.796   0.554
 1619HOH      O 5043   1.004   0.509   2.547
 1619HOH     H1 5044   1.099   0.509   2.562
 1619HOH     H2 5045   0.995   0.500   2.452
 1620HOH      O 5046   0.362   2.787   2.283
 1620HOH     H1 5047   0.280   2.763   2.326
 1620HOH     H2 5048   0.348   2.878   2.256
 1621HOH      O 5049   1.559   3.005   2.531
 1621HOH     H1 5050   1.587   3.046   2.613
 1621HOH     H2 5051   1.464   3.002   2.537
 1622HOH      O 5052   0.328   1.023   0.457
 1622HOH     H1 5053   0.369   1.057   0.377
 1622HOH     H2 5054   0.316   0.929   0.439
 1623HOH      O 5055   1.818   2.657   2.622
 1623HOH     H1 5056   1.905   2.635   2.655
 1623HOH     H2 5057   1.833   2.729   2.560
 1624HOH      O 5058  -0.007   2.176   3.342
 1624HOH     H1 5059   0.087   2.159   3.345
 1624HOH     H2 5060  -0.015   2.257   3.292
 1625HOH      O 5061   2.458   1.406   1.915
 1625HOH     H1 5062   2.412   1.332   1.954
 1625HOH     H2 5063   2.513   1.440   1.985
 1626HOH      O 5064   0.362   3.401   3.447
 1626HOH     H1 5065   0.357   3.351   3.366
 1626HOH     H2 5066   0.296   3.360   3.504
 1627HOH      O 5067   1.199   2.251   3.235
 1627HOH     H1 5068   1.217   2.327   3.181
 1627HOH     H2 5069   1.231   2.176   3.185
 1628HOH      O 5070   1.436   3.655   3.032
 1628HOH     H1 5071   1.469   3.668   3.121
 1628HOH     H2 5072   1.497   3.704   2.977
 1629HOH      O 5073   0.253   2.005   2.251
 1629HOH     H1 5074   0.257   1.948   2.174
 1629HOH     H2 5075   0.174   1.977   2.297
 1630HOH      O 5076   0.356   2.954   0.321
 1630HOH     H1 5077   0.442   2.916   0.302
 1630HOH     H2 5078   0.295   2.880   0.312
 1631HOH      O 5079   3.387   1.880   0.434
 1631HOH     H1 5080   3.400   1.785   0.435
 1631HOH     H2 5081   3.357   1.902   0.522
 1632HOH      O 5082   2.719   3.061   0.837
 1632HOH     H1 5083   2.802   3.013   0.834
 1632HOH     H2 5084   2.688   3.060   0.746
 1633HOH      O 5085   3.584   3.246   3.156
 1633HOH     H1 5086   3.496   3.265   3.188
 1633HOH     H2 5087   3.591   3.293   3.073
 1634HOH      O 5088   0.444   0.906   3.212
 1634HOH     H1 5089   0.463   0.986   3.262
 1634HOH     H2 5090   0.528   0.860   3.207
 1635HOH      O 5091   1.680   3.023   1.816
 1635HOH     H1 5092   1.615   2.953   1.812
 1635HOH     H2 5093   1.697   3.034   1.910
 1636HOH      O 5094   0.647   2.837   0.367
 1636HOH     H1 5095   0.712   2.884   0.315
 1636HOH     H2 5096   0.649   2.879   0.453
 1637HOH      O 5097   3.798   2.824   3.182
 1637HOH     H1 5098   3.713   2.855   3.153
 1637HOH     H2 5099   3.800   2.842   3.276
 1638HOH      O 5100   1.671   0.728   1.138
 1638HOH     H1 5101   1.649   0.642   1.103
 1638HOH     H2 5102   1.693   0.711   1.230
 1639HOH      O 5103   3.547   2.953   2.169
 1639HOH     H1 5104   3.506   3.036   2.145
 1639HOH     H2 5105   3.588   2.970   2.253
 1640HOH      O 5106   1.305   0.436   0.420
 1640HOH     H1 5107   1.398   0.458   0.423
 1640HOH     H2 5108   1.279   0.427   0.512
 1641HOH      O 5109   0.316   1.658   1.196
 1641HOH     H1 5110   0.258   1.591   1.231
 1641HOH     H2 5111   0.261   1.708   1.135
 1642HOH      O 5112   3.876   0.988   2.341
 1642HOH     H1 5113   3.926   0.963   2.262
 1642HOH     H2 5114   3.890   1.082   2.349
 1643HOH      O 5115   3.940   2.777   0.168
 1643HOH     H1 5116   3.881   2.853   0.166
 1643HOH     H2 5117   3.885   2.706   0.201
 1644HOH      O 5118   1.986   1.373   2.843
 1644HOH     H1 5119   2.062   1.366   2.900
 1644HOH     H2 5120   1.937   1.448   2.877
 1645HOH      O 5121   2.037   0.585   1.264
 1645HOH     H1 5122   2.057   0.494   1.285
 1645HOH     H2 5123   2.043   0.590   1.169
 1646HOH      O 5124   1.121   2.795   2.045
 1646HOH     H1 5125   1.056   2.865   2.041
 1646HOH     H2 5126   1.168   2.802   1.961
 1647HOH      O 5127   0.186   0.942   2.743
 1647HOH     H1 5128   0.232   0.877   2.690
 1647HOH     H2 5129   0.239   0.950   2.823
 1648HOH      O 5130   1.864   1.744   0.427
 1648HOH     H1 5131   1.958   1.752   0.441
 1648HOH     H2 5132   1.825   1.775   0.508
 1649HOH      O 5133   2.347   0.594   1.410
 1649HOH     H1 5134   2.407   0.520   1.419
 1649HOH     H2 5135   2.279   0.577   1.476
 1650HOH      O 5136   0.903   0.703   3.376
 1650HOH     H1 5137   0.986   0.750   3.381
 1650HOH     H2 5138   0.927   0.611   3.386
 1651HOH      O 5139   0.888   0.134   4.015
 1651HOH     H1 5140   0.956   0.099   3.957
 1651HOH     H2 5141   0.839   0.195   3.959
 1652HOH      O 5142   2.671   3.588   3.745
 1652HOH     H1 5143   2.636   3.608   3.832
 1652HOH     H2 5144   2.689   3.494   3.747
 1653HOH      O 5145   1.049   1.046   0.311
 1653HOH     H1 5146   0.975   1.106   0.307
 1653HOH     H2 5147   1.126   1.101   0.298
 1654HOH      O 5148   1.104   1.425   3.925
 1654HOH     H1 5149   1.040   1.447   3.993
 1654HOH     H2 5150   1.186   1.412   3.973
 1655HOH      O 5151   2.697   3.321   3.702
 1655HOH     H1 5152   2.785   3.341   3.732
 1655HOH     H2 5153   2.690   3.226   3.708
 1656HOH      O 5154   0.503   3.654   2.172
 1656HOH     H1 5155   0.478   3.647   2.080
 1656HOH     H2 5156   0.565   3.726   2.175
 1657HOH      O 5157   1.211   1.490   1.819
 1657HOH     H1 5158   1.132   1.536   1.792
 1657HOH     H2 5159   1.277   1.512   1.753
 1658HOH      O 5160   2.222   2.780   3.807
 1658HOH     H1 5161   2.314   2.776   3.831
 1658HOH     H2 5162   2.208   2.704   3.751
 1659HOH      O 5163   2.034   3.833   3.518
 1659HOH     H1 5164   2.120   3.865   3.546
 1659HOH     H2 5165   1.989   3.912   3.486
 1660HOH      O 5166   0.675   0.859   2.067
 1660HOH     H1 5167   0.728   0.852   1.988
 1660HOH     H2 5168   0.678   0.952   2.090
 1661HOH      O 5169   1.030   0.249   1.950
 1661HOH     H1 5170   0.946   0.282   1.918
 1661HOH     H2 5171   1.013   0.224   2.040
 1662HOH      O 5172   0.490   1.145   3.940
 1662HOH     H1 5173   0.419   1.131   4.002
 1662HOH     H2 5174   0.543   1.067   3.946
 1663HOH      O 5175   3.853   3.897   1.268
 1663HOH     H1 5176   3.810   3.915   1.185
 1663HOH     H2 5177   3.839   3.976   1.321
 1664HOH      O 5178   2.127   1.647   2.506
 1664HOH     H1 5179   2.164   1.563   2.533
 1664HOH     H2 5180   2.163   1.710   2.568
 1665HOH      O 5181   3.315   0.809   3.188
 1665HOH     H1 5182   3.395   0.818   3.135
 1665HOH     H2 5183   3.343   0.829   3.277
 1666HOH      O 5184   0.039   3.541   2.194
 1666HOH     H1 5185   0.010   3.605   2.259
 1666HOH     H2 5186   0.093   3.590   2.133
 1667HOH      O 5187   1.257   1.875   0.465
 1667HOH     H1 5188   1.188   1.869   0.531
 1667HOH     H2 5189   1.242   1.959   0.421
 1668HOH      O 5190   0.932   0.195   3.078
 1668HOH     H1 5191   0.844   0.212   3.046
 1668HOH     H2 5192   0.976   0.280   3.073
 1669HOH      O 5193   0.235   3.187   0.104
 1669HOH     H1 5194   0.229   3.141   0.020
 1669HOH     H2 5195   0.149   3.228   0.114
 1670HOH      O 5196   3.398   2.921   0.800
 1670HOH     H1 5197   3.455   2.921   0.876
 1670HOH     H2 5198   3.413   3.005   0.758
 1671HOH      O 5199   0.418   3.719   0.634
 1671HOH     H1 5200   0.370   3.748   0.712
 1671HOH     H2 5201   0.418   3.624   0.640
 1672HOH      O 5202   0.603   0.246   3.548
 1672HOH     H1 5203   0.643   0.217   3.467
 1672HOH     H2 5204   0.534   0.182   3.566
 1673HOH      O 5205   3.680   0.518   3.416
 1673HOH     H1 5206   3.721   0.595   3.456
 1673HOH     H2 5207   3.643   0.551   3.334
 1674HOH      O 5208   1.306   0.580   0.938
 1674HOH     H1 5209   1.245   0.558   1.008
 1674HOH     H2 5210   1.392   0.551   0.970
 1675HOH      O 5211   3.903   1.956   0.358
 1675HOH     H1 5212   3.850   1.905   0.297
 1675HOH     H2 5213   3.929   1.893   0.425
 1676HOH      O 5214   3.252   2.517   3.354
 1676HOH     H1 5215   3.327   2.461   3.374
 1676HOH     H2 5216   3.197   2.514   3.433
 1677HOH      O 5217   2.002   2.446   1.889
 1677HOH     H1 5218   1.920   2.406   1.860
 1677HOH     H2 5219   1.996   2.446   1.985
 1678HOH      O 5220   1.159   3.959   0.960
 1678HOH     H1 5221   1.184   3.986   0.872
 1678HOH     H2 5222   1.239   3.921   0.997
 1679HOH      O 5223   2.074   0.438   3.117
 1679HOH     H1 5224   2.164   0.463   3.098
 1679HOH     H2 5225   2.081   0.351   3.155
 1680HOH      O 5226   3.292   0.404   0.878
 1680HOH     H1 5227   3.346   0.423   0.955
 1680HOH     H2 5228   3.348   0.423   0.804
 1681HOH      O 5229   3.691   4.012   2.326
 1681HOH     H1 5230   3.703   3.920   2.301
 1681HOH     H2 5231   3.620   4.010   2.390
 1682HOH      O 5232   3.469   1.454   3.832
 1682HOH     H1 5233   3.432   1.437   3.918
 1682HOH     H2 5234   3.422   1.532   3.801
 1683HOH      O 5235   0.628   2.565   2.717
 1683HOH     H1 5236   0.628   2.470   2.701
 1683HOH     H2 5237   0.621   2.603   2.629
 1684HOH      O 5238   3.874   3.610   3.529
 1684HOH     H1 5239   3.885   3.655   3.446
 1684HOH     H2 5240   3.850   3.679   3.591
 1685HOH      O 5241   3.181   1.203   1.353
 1685HOH     H1 5242   3.226   1.262   1.293
 1685HOH     H2 5243   3.180   1.119   1.308
 1686HOH      O 5244   1.157   3.783   3.775
 1686HOH     H1 5245   1.231   3.723   3.781
 1686HOH     H2 5246   1.093   3.749   3.837
 1687HOH      O 5247   2.191   0.049   1.501
 1687HOH     H1 5248   2.098   0.070   1.510
 1687HOH     H2 5249   2.211  -0.006   1.577
 1688HOH      O 5250   2.276   1.152   2.419
 1688HOH     H1 5251   2.185   1.183   2.423
 1688HOH     H2 5252   2.276   1.086   2.350
 1689HOH      O 5253   3.392   0.764   0.349
 1689HOH     H1 5254   3.301   0.757   0.377
 1689HOH     H2 5255   3.437   0.695   0.399
 1690HOH      O 5256   2.238   1.265   3.260
 1690HOH     H1 5257   2.299   1.334   3.287
 1690HOH     H2 5258   2.209   1.292   3.173
 1691HOH      O 5259   3.700   1.479   1.783
 1691HOH     H1 5260   3.752   1.524   1.717
 1691HOH     H2 5261   3.743   1.500   1.866
 1692HOH      O 5262   2.585   3.940   0.550
 1692HOH     H1 5263   2.505   3.931   0.601
 1692HOH     H2 5264   2.656   3.932   0.614
 1693HOH      O 5265   0.573   3.188   3.412
 1693HOH     H1 5266   0.651   3.189   3.358
 1693HOH     H2 5267   0.507   3.144   3.358
 1694HOH      O 5268   3.640   0.938   0.787
 1694HOH     H1 5269   3.634   0.853   0.743
 1694HOH     H2 5270   3.645   0.916   0.880
 1695HOH      O 5271   2.196   3.618   1.512
 1695HOH     H1 5272   2.253   3.546   1.537
 1695HOH     H2 5273   2.203   3.680   1.584
 1696HOH      O 5274   2.053   1.412   0.000
 1696HOH     H1 5275   2.071   1.318  -0.002
 1696HOH     H2 5276   1.957   1.418   0.004
 1697HOH      O 5277   0.419   3.736   3.954
 1697HOH     H1 5278   0.343   3.710   3.901
 1697HOH     H2 5279   0.388   3.731   4.044
 1698HOH      O 5280   1.263   4.020   1.294
 1698HOH     H1 5281   1.286   3.937   1.253
 1698HOH     H2 5282   1.313   4.021   1.376
 1699HOH      O 5283   3.894   3.360   2.900
 1699HOH     H1 5284   3.829   3.422   2.932
 1699HOH     H2 5285   3.947   3.411   2.838
 1700HOH      O 5286   1.830   0.599   2.054
 1700HOH     H1 5287   1.880   0.666   2.008
 1700HOH     H2 5288   1.739   0.614   2.027
 1701HOH      O 5289   3.667   3.021   3.909
 1701HOH     H1 5290   3.601   3.072   3.862
 1701HOH     H2 5291   3.656   2.932   3.877
 1702HOH      O 5292   0.091   3.492   2.499
 1702HOH     H1 5293   0.141   3.563   2.540
 1702HOH     H2 5294   0.148   3.461   2.428
 1703HOH      O 5295   0.859   0.920   0.539
 1703HOH     H1 5296   0.814   0.861   0.478
 1703HOH     H2 5297   0.935   0.869   0.569
 1704HOH      O 5298   3.042   1.718   3.288
 1704HOH     H1 5299   2.989   1.677   3.356
 1704HOH     H2 5300   3.110   1.652   3.268
 1705HOH      O 5301   3.386   2.582   2.213
 1705HOH     H1 5302   3.417   2.666   2.178
 1705HOH     H2 5303   3.465   2.532   2.230
 1706HOH      O 5304   1.326   0.857   0.926
 1706HOH     H1 5305   1.300   0.766   0.913
 1706HOH     H2 5306   1.422   0.855   0.931
 1707HOH      O 5307   2.374   0.191   0.417
 1707HOH     H1 5308   2.459   0.150   0.403
 1707HOH     H2 5309   2.381   0.232   0.503
 1708HOH      O 5310   3.961   0.767   2.453
 1708HOH     H1 5311   3.976   0.792   2.544
 1708HOH     H2 5312   3.928   0.847   2.411
 1709HOH      O 5313   0.929   3.843   2.349
 1709HOH     H1 5314   0.839   3.832   2.379
 1709HOH     H2 5315   0.930   3.930   2.309
 1710HOH      O 5316   1.780   3.031   0.946
 1710HOH     H1 5317   1.777   3.014   1.041
 1710HOH     H2 5318   1.824   2.954   0.910
 1711HOH      O 5319   0.686   0.210   2.968
 1711HOH     H1 5320   0.607   0.168   3.003
 1711HOH     H2 5321   0.656   0.295   2.937
 1712HOH      O 5322   2.050   0.730   0.308
 1712HOH     H1 5323   1.962   0.710   0.277
 1712HOH     H2 5324   2.055   0.825   0.307
 1713HOH      O 5325   2.125   3.435   0.391
 1713HOH     H1 5326   2.167   3.372   0.332
 1713HOH     H2 5327   2.160   3.413   0.478
 1714HOH      O 5328   2.543   3.699   3.535
 1714HOH     H1 5329   2.564   3.658   3.619
 1714HOH     H2 5330   2.593   3.649   3.471
 1715HOH      O 5331   0.312   0.276   2.760
 1715HOH     H1 5332   0.329   0.320   2.843
 1715HOH     H2 5333   0.219   0.292   2.743
 1716HOH      O 5334   2.129   1.534   0.230
 1716HOH     H1 5335   2.126   1.628   0.216
 1716HOH     H2 5336   2.115   1.496   0.143
 1717HOH      O 5337   0.972   2.521   3.798
 1717HOH     H1 5338   1.038   2.582   3.832
 1717HOH     H2 5339   0.951   2.555   3.711
 1718HOH      O 5340   0.060   1.907   1.594
 1718HOH     H1 5341   0.095   1.948   1.515
 1718HOH     H2 5342  -0.034   1.901   1.578
 1719HOH      O 5343   0.077   1.497   2.664
 1719HOH     H1 5344   0.089   1.536   2.750
 1719HOH     H2 5345  -0.016   1.510   2.644
 1720HOH      O 5346   1.947   1.567   2.085
 1720HOH     H1 5347   1.993   1.616   2.153
 1720HOH     H2 5348   2.015   1.516   2.042
 1721HOH      O 5349   1.206   0.788   3.475
 1721HOH     H1 5350   1.280   0.847   3.485
 1721HOH     H2 5351   1.235   0.707   3.518
 1722HOH      O 5352   0.106   0.050   2.538
 1722HOH     H1 5353   0.012   0.064   2.549
 1722HOH     H2 5354   0.125  -0.029   2.588
 1723HOH      O 5355   3.798   2.206   0.352
 1723HOH     H1 5356   3.705   2.199   0.372
 1723HOH     H2 5357   3.827   2.115   0.344
 1724HOH      O 5358   0.615   3.481   3.279
 1724HOH     H1 5359   0.564   3.497   3.200
 1724HOH     H2 5360   0.557   3.429   3.335
 1725HOH      O 5361   1.757   0.848   1.471
 1725HOH     H1 5362   1.744   0.906   1.546
 1725HOH     H2 5363   1.674   0.848   1.424
 1726HOH      O 5364   1.698   3.700   0.094
 1726HOH     H1 5365   1.615   3.748   0.102
 1726HOH     H2 5366   1.754   3.738   0.162
 1727HOH      O 5367   0.423   0.129   3.023
 1727HOH     H1 5368   0.356   0.196   3.009
 1727HOH     H2 5369   0.378   0.060   3.072
 1728HOH      O 5370   3.940   0.060   3.897
 1728HOH     H1 5371   3.919   0.116   3.971
 1728HOH     H2 5372   3.919   0.112   3.820
 1729HOH      O 5373   0.273   3.763   0.411
 1729HOH     H1 5374   0.328   3.755   0.489
 1729HOH     H2 5375   0.193   3.804   0.443
 1730HOH      O 5376   0.585   3.530   3.852
 1730HOH     H1 5377   0.601   3.510   3.760
 1730HOH     H2 5378   0.529   3.608   3.850
 1731HOH      O 5379   3.872   4.005   2.536
 1731HOH     H1 5380   3.842   3.999   2.446
 1731HOH     H2 5381   3.792   4.003   2.589
 1732HOH      O 5382   3.534   1.333   3.601
 1732HOH     H1 5383   3.544   1.370   3.689
 1732HOH     H2 5384   3.470   1.390   3.558
 1733HOH      O 5385   3.571   2.801   0.641
 1733HOH     H1 5386   3.547   2.712   0.617
 1733HOH     H2 5387   3.509   2.825   0.710
 1734HOH      O 5388   1.769   3.823   1.275
 1734HOH     H1 5389   1.859   3.857   1.277
 1734HOH     H2 5390   1.718   3.887   1.324
 1735HOH      O 5391   3.130   2.706   0.667
 1735HOH     H1 5392   3.082   2.761   0.605
 1735HOH     H2 5393   3.196   2.764   0.705
 1736HOH      O 5394   2.517   2.231   1.304
 1736HOH     H1 5395   2.449   2.262   1.363
 1736HOH     H2 5396   2.528   2.302   1.241
 1737HOH      O 5397   1.567   3.947   0.436
 1737HOH     H1 5398   1.642   4.007   0.430
 1737HOH     H2 5399   1.599   3.866   0.397
 1738HOH      O 5400   3.352   3.544   1.609
 1738HOH     H1 5401   3.315   3.494   1.682
 1738HOH     H2 5402   3.428   3.494   1.580
 1739HOH      O 5403   2.148   0.597   2.161
 1739HOH     H1 5404   2.106   0.670   2.207
 1739HOH     H2 5405   2.162   0.631   2.072
 1740HOH      O 5406   3.693   1.604   0.256
 1740HOH     H1 5407   3.670   1.637   0.169
 1740HOH     H2 5408   3.612   1.611   0.306
 1741HOH      O 5409   2.692   1.537   2.382
 1741HOH     H1 5410   2.731   1.475   2.443
 1741HOH     H2 5411   2.632   1.589   2.436
 1742HOH      O 5412   2.827   3.960   3.810
 1742HOH     H1 5413   2.733   3.967   3.821
 1742HOH     H2 5414   2.840   3.955   3.715
 1743HOH      O 5415   3.416   1.895   3.257
 1743HOH     H1 5416   3.337   1.870   3.209
 1743HOH     H2 5417   3.394   1.878   3.349
 1744HOH      O 5418   1.060   2.043   1.559
 1744HOH     H1 5419   1.017   2.091   1.489
 1744HOH     H2 5420   1.127   1.991   1.514
 1745HOH      O 5421   0.792   1.704   0.458
 1745HOH     H1 5422   0.706   1.721   0.420
 1745HOH     H2 5423   0.784   1.619   0.501
 1746HOH      O 5424   0.297   3.337   1.636
 1746HOH     H1 5425   0.259   3.363   1.721
 1746HOH     H2 5426   0.222   3.307   1.585
 1747HOH      O 5427   1.590   0.105   2.151
 1747HOH     H1 5428   1.650   0.034   2.131
 1747HOH     H2 5429   1.645   0.183   2.159
 1748HOH      O 5430   0.092   0.457   0.564
 1748HOH     H1 5431   0.167   0.417   0.520
 1748HOH     H2 5432   0.052   0.386   0.613
 1749HOH      O 5433   3.221   3.173   1.614
 1749HOH     H1 5434   3.196   3.251   1.665
 1749HOH     H2 5435   3.173   3.101   1.655
 1750HOH      O 5436   1.885   3.162   4.042
 1750HOH     H1 5437   1.946   3.092   4.016
 1750HOH     H2 5438   1.927   3.243   4.012
 1751HOH      O 5439   0.835   2.847   2.347
 1751HOH     H1 5440   0.916   2.895   2.366
 1751HOH     H2 5441   0.842   2.827   2.253
 1752HOH      O 5442   2.353   0.463   3.028
 1752HOH     H1 5443   2.391   0.465   3.116
 1752HOH     H2 5444   2.409   0.403   2.979
 1753HOH      O 5445   1.441   3.412   1.931
 1753HOH     H1 5446   1.458   3.340   1.871
 1753HOH     H2 5447   1.528   3.448   1.950
 1754HOH      O 5448   1.120   0.405   3.028
 1754HOH     H1 5449   1.097   0.494   3.004
 1754HOH     H2 5450   1.200   0.386   2.978
 1755HOH      O 5451   2.609   2.273   0.204
 1755HOH     H1 5452   2.620   2.310   0.291
 1755HOH     H2 5453   2.698   2.253   0.174
 1756HOH      O 5454   1.012   2.094   3.626
 1756HOH     H1 5455   1.002   2.137   3.711
 1756HOH     H2 5456   0.977   2.158   3.563
 1757HOH      O 5457   2.891   1.767   0.017
 1757HOH     H1 5458   2.845   1.690  -0.017
 1757HOH     H2 5459   2.984   1.741   0.017
 1758HOH      O 5460   2.155   0.381   1.612
 1758HOH     H1 5461   2.101   0.404   1.687
 1758HOH     H2 5462   2.232   0.337   1.650
 1759HOH      O 5463   4.022   2.971   0.550
 1759HOH     H1 5464   3.969   2.978   0.629
 1759HOH     H2 5465   4.024   2.878   0.530
 1760HOH      O 5466   0.234   2.059   3.307
 1760HOH     H1 5467   0.261   1.969   3.326
 1760HOH     H2 5468   0.314   2.111   3.316
 1761HOH      O 5469   3.650   2.402   0.075
 1761HOH     H1 5470   3.737   2.413   0.114
 1761HOH     H2 5471   3.634   2.485   0.029
 1762HOH      O 5472   3.526   0.307   3.072
 1762HOH     H1 5473   3.461   0.349   3.015
 1762HOH     H2 5474   3.606   0.303   3.019
 1763HOH      O 5475   2.812   1.167   1.582
 1763HOH     H1 5476   2.751   1.204   1.645
 1763HOH     H2 5477   2.819   1.075   1.607
 1764HOH      O 5478   2.169   1.837   1.653
 1764HOH     H1 5479   2.229   1.776   1.696
 1764HOH     H2 5480   2.090   1.834   1.707
 1765HOH      O 5481   1.038   0.580   0.472
 1765HOH     H1 5482   1.027   0.486   0.457
 1765HOH     H2 5483   1.131   0.597   0.455
 1766HOH      O 5484   0.484   2.083   3.131
 1766HOH     H1 5485   0.471   2.012   3.194
 1766HOH     H2 5486   0.533   2.149   3.179
 1767HOH      O 5487   2.136   2.155   1.734
 1767HOH     H1 5488   2.053   2.125   1.696
 1767HOH     H2 5489   2.132   2.251   1.727
 1768HOH      O 5490   1.986   0.511   0.718
 1768HOH     H1 5491   1.939   0.432   0.745
 1768HOH     H2 5492   1.998   0.501   0.624
 1769HOH      O 5493   3.072   0.733   0.833
 1769HOH     H1 5494   3.069   0.689   0.918
 1769HOH     H2 5495   3.081   0.661   0.770
 1770HOH      O 5496   0.038   3.514   1.699
 1770HOH     H1 5497  -0.019   3.527   1.623
 1770HOH     H2 5498   0.058   3.603   1.729
 1771HOH      O 5499   0.304   1.728   2.099
 1771HOH     H1 5500   0.336   1.681   2.175
 1771HOH     H2 5501   0.351   1.689   2.025
 1772HOH      O 5502   2.461   1.114   3.501
 1772HOH     H1 5503   2.427   1.038   3.454
 1772HOH     H2 5504   2.383   1.164   3.526
 1773HOH      O 5505   2.657   3.819   0.132
 1773HOH     H1 5506   2.707   3.898   0.112
 1773HOH     H2 5507   2.574   3.851   0.167
 1774HOH      O 5508   1.187   3.301   2.041
 1774HOH     H1 5509   1.267   3.302   1.989
 1774HOH     H2 5510   1.132   3.235   1.997
 1775HOH      O 5511   2.184   1.579   3.515
 1775HOH     H1 5512   2.203   1.664   3.476
 1775HOH     H2 5513   2.123   1.598   3.586
 1776HOH      O 5514   1.556   0.463   2.761
 1776HOH     H1 5515   1.556   0.521   2.685
 1776HOH     H2 5516   1.643   0.474   2.799
 1777HOH      O 5517   1.672   1.136   1.281
 1777HOH     H1 5518   1.658   1.044   1.302
 1777HOH     H2 5519   1.667   1.140   1.185
 1778HOH      O 5520   3.284   1.966   0.654
 1778HOH     H1 5521   3.217   1.999   0.715
 1778HOH     H2 5522   3.366   2.003   0.687
 1779HOH      O 5523   0.036   0.317   2.690
 1779HOH     H1 5524   0.029   0.298   2.596
 1779HOH     H2 5525  -0.026   0.389   2.704
 1780HOH      O 5526   1.021   3.539   2.238
 1780HOH     H1 5527   0.943   3.538   2.293
 1780HOH     H2 5528   1.041   3.632   2.227
 1781HOH      O 5529   1.523   1.978   1.221
 1781HOH     H1 5530   1.543   1.908   1.159
 1781HOH     H2 5531   1.586   2.047   1.200
 1782HOH      O 5532   1.158   1.914   3.345
 1782HOH     H1 5533   1.106   1.863   3.282
 1782HOH     H2 5534   1.178   1.995   3.299
 1783HOH      O 5535   1.053   3.890   2.584
 1783HOH     H1 5536   1.027   3.887   2.491
 1783HOH     H2 5537   0.987   3.837   2.629
 1784HOH      O 5538   0.039   0.655   3.999
 1784HOH     H1 5539   0.062   0.678   3.909
 1784HOH     H2 5540  -0.022   0.723   4.027
 1785HOH      O 5541   0.910   3.131   3.016
 1785HOH     H1 5542   0.893   3.167   2.928
 1785HOH     H2 5543   0.894   3.205   3.075
 1786HOH      O 5544   1.571   0.668   2.181
 1786HOH     H1 5545   1.494   0.724   2.175
 1786HOH     H2 5546   1.556   0.599   2.117
 1787HOH      O 5547   3.707   2.510   3.664
 1787HOH     H1 5548   3.634   2.450   3.654
 1787HOH     H2 5549   3.764   2.490   3.590
 1788HOH      O 5550   0.628   2.253   0.497
 1788HOH     H1 5551   0.621   2.171   0.448
 1788HOH     H2 5552   0.694   2.304   0.449
 1789HOH      O 5553   2.503   0.740   2.719
 1789HOH     H1 5554   2.532   0.656   2.756
 1789HOH     H2 5555   2.480   0.793   2.796
 1790HOH      O 5556   2.402   3.844   3.128
 1790HOH     H1 5557   2.428   3.929   3.162
 1790HOH     H2 5558   2.312   3.833   3.160
 1791HOH      O 5559   1.698   2.215   1.221
 1791HOH     H1 5560   1.660   2.254   1.142
 1791HOH     H2 5561   1.793   2.222   1.207
 1792HOH      O 5562   1.156   0.163   3.645
 1792HOH     H1 5563   1.075   0.147   3.597
 1792HOH     H2 5564   1.136   0.136   3.735
 1793HOH      O 5565   0.626   1.936   1.499
 1793HOH     H1 5566   0.559   1.893   1.446
 1793HOH     H2 5567   0.656   2.008   1.445
 1794HOH      O 5568   3.681   3.247   1.045
 1794HOH     H1 5569   3.644   3.267   1.131
 1794HOH     H2 5570   3.607   3.260   0.984
 1795HOH      O 5571   3.391   0.861   2.562
 1795HOH     H1 5572   3.442   0.791   2.523
 1795HOH     H2 5573   3.301   0.844   2.534
 1796HOH      O 5574   3.681   0.293   0.297
 1796HOH     H1 5575   3.639   0.335   0.222
 1796HOH     H2 5576   3.762   0.343   0.310
 1797HOH      O 5577   0.552   2.859   0.877
 1797HOH     H1 5578   0.561   2.915   0.953
 1797HOH     H2 5579   0.495   2.788   0.906
 1798HOH      O 5580   1.400   1.280   3.171
 1798HOH     H1 5581   1.308   1.253   3.183
 1798HOH     H2 5582   1.409   1.358   3.225
 1799HOH      O 5583   0.293   1.536   1.591
 1799HOH     H1 5584   0.298   1.624   1.554
 1799HOH     H2 5585   0.382   1.517   1.619
 1800HOH      O 5586   2.013   1.808   2.966
 1800HOH     H1 5587   2.033   1.866   3.039
 1800HOH     H2 5588   2.097   1.768   2.943
 1801HOH      O 5589   1.477   1.090   0.749
 1801HOH     H1 5590   1.428   1.012   0.778
 1801HOH     H2 5591   1.466   1.092   0.654
 1802HOH      O 5592   0.830   2.707   1.534
 1802HOH     H1 5593   0.903   2.655   1.567
 1802HOH     H2 5594   0.813   2.671   1.446
 1803HOH      O 5595   3.787   1.871   1.438
 1803HOH     H1 5596   3.702   1.885   1.397
 1803HOH     H2 5597   3.819   1.958   1.457
 1804HOH      O 5598   0.588   3.626   1.154
 1804HOH     H1 5599   0.604   3.718   1.132
 1804HOH     H2 5600   0.588   3.581   1.069
 1805HOH      O 5601   0.387   0.444   0.355
 1805HOH     H1 5602   0.466   0.394   0.337
 1805HOH     H2 5603   0.319   0.402   0.302
 1806HOH      O 5604   1.989   3.499   1.102
 1806HOH     H1 5605   2.018   3.445   1.029
 1806HOH     H2 5606   2.012   3.588   1.077
 1807HOH      O 5607   2.951   2.032   1.534
 1807HOH     H1 5608   2.866   1.992   1.515
 1807HOH     H2 5609   3.010   1.957   1.546
 1808HOH      O 5610   0.670  -0.031   2.504
 1808HOH     H1 5611   0.595   0.025   2.485
 1808HOH     H2 5612   0.709   0.007   2.582
 1809HOH      O 5613   0.121   0.232   3.337
 1809HOH     H1 5614   0.037   0.275   3.324
 1809HOH     H2 5615   0.164   0.284   3.405
 1810HOH      O 5616   1.213   2.574   0.092
 1810HOH     H1 5617   1.198   2.638   0.023
 1810HOH     H2 5618   1.178   2.615   0.171
 1811HOH      O 5619   2.021   1.849   1.412
 1811HOH     H1 5620   2.046   1.767   1.371
 1811HOH     H2 5621   2.084   1.861   1.483
 1812HOH      O 5622   1.714   1.135   3.570
 1812HOH     H1 5623   1.723   1.062   3.509
 1812HOH     H2 5624   1.749   1.211   3.523
 1813HOH      O 5625   0.948   3.597   1.568
 1813HOH     H1 5626   0.952   3.563   1.479
 1813HOH     H2 5627   0.862   3.637   1.576
 1814HOH      O 5628   3.069   0.329   3.549
 1814HOH     H1 5629   3.076   0.377   3.466
 1814HOH     H2 5630   2.996   0.371   3.594
 1815HOH      O 5631   2.088   0.146   2.871
 1815HOH     H1 5632   2.039   0.065   2.887
 1815HOH     H2 5633   2.168   0.136   2.923
 1816HOH      O 5634   1.101   3.092   2.800
 1816HOH     H1 5635   1.096   3.076   2.894
 1816HOH     H2 5636   1.173   3.154   2.790
 1817HOH      O 5637   0.241   0.575   0.115
 1817HOH     H1 5638   0.206   0.508   0.173
 1817HOH     H2 5639   0.163   0.612   0.072
 1818HOH      O 5640   3.302   1.937   3.494
 1818HOH     H1 5641   3.220   1.948   3.446
 1818HOH     H2 5642   3.292   1.993   3.571
 1819HOH      O 5643   0.703   2.085   1.298
 1819HOH     H1 5644   0.666   2.049   1.217
 1819HOH     H2 5645   0.796   2.097   1.278
 1820HOH      O 5646   3.283   3.885   2.978
 1820HOH     H1 5647   3.243   3.833   3.047
 1820HOH     H2 5648   3.377   3.869   2.987
 1821HOH      O 5649   0.310   3.958   2.105
 1821HOH     H1 5650   0.354   3.986   2.185
 1821HOH     H2 5651   0.376   3.966   2.037
 1822HOH      O 5652   0.614   2.726   0.112
 1822HOH     H1 5653   0.678   2.754   0.047
 1822HOH     H2 5654   0.655   2.745   0.196
 1823HOH      O 5655   2.363   0.610   1.148
 1823HOH     H1 5656   2.346   0.621   1.241
 1823HOH     H2 5657   2.276   0.596   1.109
 1824HOH      O 5658   2.434   2.054   0.130
 1824HOH     H1 5659   2.496   2.122   0.102
 1824HOH     H2 5660   2.365   2.102   0.176
 1825HOH      O 5661   3.588   2.422   0.356
 1825HOH     H1 5662   3.561   2.513   0.352
 1825HOH     H2 5663   3.616   2.401   0.266
 1826HOH      O 5664   3.080   1.629   2.900
 1826HOH     H1 5665   3.132   1.552   2.921
 1826HOH     H2 5666   3.134   1.703   2.929
 1827HOH      O 5667   3.518   3.923   1.377
 1827HOH     H1 5668   3.510   3.979   1.300
 1827HOH     H2 5669   3.466   3.966   1.444
 1828HOH      O 5670   3.574   3.133   1.835
 1828HOH     H1 5671   3.629   3.167   1.763
 1828HOH     H2 5672   3.547   3.046   1.805
 1829HOH      O 5673   0.292   3.763   0.867
 1829HOH     H1 5674   0.204   3.734   0.893
 1829HOH     H2 5675   0.321   3.818   0.940
 1830HOH      O 5676   0.835   0.956   0.120
 1830HOH     H1 5677   0.924   0.948   0.155
 1830HOH     H2 5678   0.811   0.867   0.096
 1831HOH      O 5679   2.251   1.839   3.931
 1831HOH     H1 5680   2.296   1.857   3.849
 1831HOH     H2 5681   2.164   1.810   3.905
 1832HOH      O 5682   1.148   1.844   3.750
 1832HOH     H1 5683   1.080   1.911   3.752
 1832HOH     H2 5684   1.227   1.892   3.724
 1833HOH      O 5685   2.220   0.230   2.274
 1833HOH     H1 5686   2.199   0.264   2.361
 1833HOH     H2 5687   2.314   0.247   2.264
 1834HOH      O 5688   0.597   2.578   0.578
 1834HOH     H1 5689   0.515   2.627   0.577
 1834HOH     H2 5690   0.572   2.489   0.605
 1835HOH      O 5691   3.462   2.813   3.781
 1835HOH     H1 5692   3.522   2.751   3.821
 1835HOH     H2 5693   3.457   2.785   3.689
 1836HOH      O 5694   2.849   0.282   3.209
 1836HOH     H1 5695   2.772   0.292   3.152
 1836HOH     H2 5696   2.816   0.234   3.285
 1837HOH      O 5697   2.228   0.341   2.792
 1837HOH     H1 5698   2.161   0.286   2.833
 1837HOH     H2 5699   2.304   0.332   2.849
 1838HOH      O 5700   1.532   2.185   3.181
 1838HOH     H1 5701   1.599   2.139   3.231
 1838HOH     H2 5702   1.578   2.257   3.139
 1839HOH      O 5703   1.004   3.870   1.427
 1839HOH     H1 5704   1.080   3.813   1.417
 1839HOH     H2 5705   0.929   3.811   1.422
 1840HOH      O 5706   0.574   3.853   0.223
 1840HOH     H1 5707   0.642   3.919   0.231
 1840HOH     H2 5708   0.497   3.901   0.193
 1841HOH      O 5709   3.491   0.540   3.719
 1841HOH     H1 5710   3.414   0.596   3.730
 1841HOH     H2 5711   3.459   0.466   3.668
 1842HOH      O 5712   2.776   2.438   2.833
 1842HOH     H1 5713   2.735   2.354   2.815
 1842HOH     H2 5714   2.786   2.440   2.928
 1843HOH      O 5715   2.292   1.824   0.789
 1843HOH     H1 5716   2.267   1.732   0.796
 1843HOH     H2 5717   2.313   1.837   0.697
 1844HOH      O 5718   4.036   0.321   1.929
 1844HOH     H1 5719   3.962   0.381   1.919
 1844HOH     H2 5720   4.020   0.277   2.013
 1845HOH      O 5721   0.461   2.304   0.220
 1845HOH     H1 5722   0.455   2.392   0.256
 1845HOH     H2 5723   0.547   2.301   0.178
 1846HOH      O 5724   3.483   1.199   0.168
 1846HOH     H1 5725   3.558   1.258   0.157
 1846HOH     H2 5726   3.492   1.136   0.096
 1847HOH      O 5727   2.275   2.617   0.438
 1847HOH     H1 5728   2.226   2.608   0.356
 1847HOH     H2 5729   2.261   2.534   0.483
 1848HOH      O 5730   0.286   1.223   1.122
 1848HOH     H1 5731   0.326   1.146   1.081
 1848HOH     H2 5732   0.344   1.244   1.195
 1849HOH      O 5733   0.093   0.101   3.628
 1849HOH     H1 5734   0.005   0.133   3.646
 1849HOH     H2 5735   0.090   0.073   3.536
 1850HOH      O 5736   0.377   1.871   1.350
 1850HOH     H1 5737   0.307   1.936   1.343
 1850HOH     H2 5738   0.338   1.790   1.318
 1851HOH      O 5739   1.596   1.260   0.261
 1851HOH     H1 5740   1.604   1.232   0.353
 1851HOH     H2 5741   1.551   1.344   0.265
 1852HOH      O 5742   1.149   1.588   2.793
 1852HOH     H1 5743   1.062   1.594   2.753
 1852HOH     H2 5744   1.207   1.631   2.730
 1853HOH      O 5745   1.053   1.392   3.641
 1853HOH     H1 5746   1.073   1.474   3.594
 1853HOH     H2 5747   1.076   1.410   3.732
 1854HOH      O 5748   0.684   0.602   2.272
 1854HOH     H1 5749   0.637   0.605   2.356
 1854HOH     H2 5750   0.618   0.627   2.207
 1855HOH      O 5751   3.345   0.039   1.564
 1855HOH     H1 5752   3.409   0.109   1.579
 1855HOH     H2 5753   3.273   0.083   1.520
 1856HOH      O 5754   0.352   3.197   2.558
 1856HOH     H1 5755   0.423   3.159   2.609
 1856HOH     H2 5756   0.394   3.262   2.503
 1857HOH      O 5757   0.998   2.687   0.611
 1857HOH     H1 5758   0.909   2.717   0.628
 1857HOH     H2 5759   1.053   2.762   0.632
 1858HOH      O 5760   3.191   2.776   2.297
 1858HOH     H1 5761   3.184   2.821   2.213
 1858HOH     H2 5762   3.245   2.699   2.278
 1859HOH      O 5763   2.802   1.232   3.996
 1859HOH     H1 5764   2.826   1.216   3.905
 1859HOH     H2 5765   2.877   1.199   4.046
 1860HOH      O 5766   3.558   3.626   3.164
 1860HOH     H1 5767   3.466   3.622   3.138
 1860HOH     H2 5768   3.589   3.710   3.130
 1861HOH      O 5769   2.030   2.352   3.269
 1861HOH     H1 5770   1.956   2.407   3.296
 1861HOH     H2 5771   2.097   2.414   3.240
 1862HOH      O 5772   1.399   1.018   3.008
 1862HOH     H1 5773   1.318   0.984   3.044
 1862HOH     H2 5774   1.460   1.019   3.082
 1863HOH      O 5775   3.275   2.369   0.064
 1863HOH     H1 5776   3.360   2.329   0.045
 1863HOH     H2 5777   3.271   2.371   0.160
 1864HOH      O 5778   4.028   2.848   2.862
 1864HOH     H1 5779   4.060   2.853   2.772
 1864HOH     H2 5780   3.949   2.903   2.863
 1865HOH      O 5781   1.611   2.039   0.250
 1865HOH     H1 5782   1.643   2.096   0.180
 1865HOH     H2 5783   1.582   1.960   0.205
 1866HOH      O 5784   0.911   3.324   1.720
 1866HOH     H1 5785   0.938   3.398   1.667
 1866HOH     H2 5786   0.866   3.265   1.659
 1867HOH      O 5787   1.895   0.364   2.408
 1867HOH     H1 5788   1.913   0.277   2.444
 1867HOH     H2 5789   1.979   0.410   2.413
 1868HOH      O 5790   4.023   3.751   3.802
 1868HOH     H1 5791   4.099   3.806   3.782
 1868HOH     H2 5792   3.951   3.788   3.752
 1869HOH      O 5793   3.312   2.283   1.726
 1869HOH     H1 5794   3.316   2.356   1.788
 1869HOH     H2 5795   3.243   2.307   1.664
 1870HOH      O 5796   1.398   3.398   2.979
 1870HOH     H1 5797   1.410   3.491   2.997
 1870HOH     H2 5798   1.486   3.360   2.989
 1871HOH      O 5799   1.098   3.649   0.738
 1871HOH     H1 5800   1.180   3.651   0.788
 1871HOH     H2 5801   1.043   3.715   0.781
 1872HOH      O 5802   2.216   2.542   2.979
 1872HOH     H1 5803   2.262   2.461   2.957
 1872HOH     H2 5804   2.197   2.582   2.894
 1873HOH      O 5805   1.661   3.755   2.884
 1873HOH     H1 5806   1.599   3.756   2.811
 1873HOH     H2 5807   1.736   3.804   2.852
 1874HOH      O 5808   3.877   3.196   0.450
 1874HOH     H1 5809   3.920   3.119   0.488
 1874HOH     H2 5810   3.790   3.198   0.490
 1875HOH      O 5811   0.690   0.160   3.809
 1875HOH     H1 5812   0.690   0.196   3.720
 1875HOH     H2 5813   0.623   0.092   3.807
 1876HOH      O 5814   2.180   2.656   1.956
 1876HOH     H1 5815   2.219   2.654   2.043
 1876HOH     H2 5816   2.166   2.565   1.933
 1877HOH      O 5817   1.310   3.106   1.888
 1877HOH     H1 5818   1.396   3.106   1.847
 1877HOH     H2 5819   1.271   3.022   1.862
 1878HOH      O 5820   3.130   2.127   0.056
 1878HOH     H1 5821   3.200   2.079   0.011
 1878HOH     H2 5822   3.163   2.216   0.062
 1879HOH      O 5823   1.533   1.395   3.597
 1879HOH     H1 5824   1.607   1.341   3.568
 1879HOH     H2 5825   1.460   1.367   3.543
 1880HOH      O 5826   3.191   0.797   2.120
 1880HOH     H1 5827   3.239   0.847   2.054
 1880HOH     H2 5828   3.117   0.854   2.143
 1881HOH      O 5829   2.575   1.172   2.891
 1881HOH     H1 5830   2.581   1.129   2.806
 1881HOH     H2 5831   2.653   1.228   2.895
 1882HOH      O 5832   3.445   1.116   2.587
 1882HOH     H1 5833   3.524   1.124   2.532
 1882HOH     H2 5834   3.431   1.022   2.595
 1883HOH      O 5835   0.337   2.762   3.686
 1883HOH     H1 5836   0.244   2.739   3.684
 1883HOH     H2 5837   0.369   2.725   3.769
 1884HOH      O 5838   2.461   0.681   3.621
 1884HOH     H1 5839   2.467   0.767   3.662
 1884HOH     H2 5840   2.502   0.692   3.535
 1885HOH      O 5841   3.364   1.839   2.169
 1885HOH     H1 5842   3.297   1.906   2.157
 1885HOH     H2 5843   3.318   1.766   2.211
 1886HOH      O 5844   2.046   2.173   3.712
 1886HOH     H1 5845   2.064   2.184   3.619
 1886HOH     H2 5846   1.954   2.148   3.716
 1887HOH      O 5847   2.285   3.693   1.279
 1887HOH     H1 5848   2.379   3.709   1.285
 1887HOH     H2 5849   2.257   3.677   1.369
 1888HOH      O 5850   3.035   1.988   3.434
 1888HOH     H1 5851   2.999   1.963   3.349
 1888HOH     H2 5852   3.041   2.084   3.430
 1889HOH      O 5853   1.935   4.047   3.956
 1889HOH     H1 5854   1.846   4.043   3.992
 1889HOH     H2 5855   1.950   3.958   3.924
 1890HOH      O 5856   1.707   2.451   0.767
 1890HOH     H1 5857   1.655   2.481   0.692
 1890HOH     H2 5858   1.649   2.463   0.842
 1891HOH      O 5859   2.117   1.958   0.994
 1891HOH     H1 5860   2.156   1.969   1.080
 1891HOH     H2 5861   2.190   1.935   0.937
 1892HOH      O 5862   1.130   2.737   3.362
 1892HOH     H1 5863   1.121   2.779   3.276
 1892HOH     H2 5864   1.223   2.716   3.369
 1893HOH      O 5865   0.920   2.890   1.760
 1893HOH     H1 5866   0.923   2.797   1.740
 1893HOH     H2 5867   0.838   2.921   1.720
 1894HOH      O 5868   2.108   3.892   3.173
 1894HOH     H1 5869   2.042   3.924   3.234
 1894HOH     H2 5870   2.071   3.907   3.087
 1895HOH      O 5871   3.489   2.389   3.415
 1895HOH     H1 5872   3.577   2.398   3.377
 1895HOH     H2 5873   3.458   2.304   3.382
 1896HOH      O 5874   2.425   2.732   0.098
 1896HOH     H1 5875   2.342   2.776   0.116
 1896HOH     H2 5876   2.406   2.639   0.111
 1897HOH      O 5877   1.288   2.807   1.838
 1897HOH     H1 5878   1.379   2.802   1.866
 1897HOH     H2 5879   1.290   2.784   1.745
 1898HOH      O 5880   3.481   0.539   0.480
 1898HOH     H1 5881   3.516   0.475   0.418
 1898HOH     H2 5882   3.420   0.488   0.534
 1899HOH      O 5883   0.034   1.560   0.825
 1899HOH     H1 5884  -0.034   1.499   0.854
 1899HOH     H2 5885   0.081   1.513   0.757
 1900HOH      O 5886   2.987   3.902   1.710
 1900HOH     H1 5887   3.009   3.916   1.802
 1900HOH     H2 5888   2.904   3.947   1.698
 1901HOH      O 5889   0.922   0.033   0.655
 1901HOH     H1 5890   0.880   0.086   0.723
 1901HOH     H2 5891   0.852  -0.022   0.622
 1902HOH      O 5892   3.932   0.706   1.792
 1902HOH     H1 5893   3.969   0.716   1.879
 1902HOH     H2 5894   4.008   0.691   1.735
 1903HOH      O 5895   0.564   3.963   1.501
 1903HOH     H1 5896   0.511   4.009   1.567
 1903HOH     H2 5897   0.631   4.027   1.476
 1904HOH      O 5898   1.617   0.082   1.170
 1904HOH     H1 5899   1.697   0.134   1.174
 1904HOH     H2 5900   1.603   0.053   1.260
 1905HOH      O 5901   3.808   1.032   1.953
 1905HOH     H1 5902   3.734   1.092   1.965
 1905HOH     H2 5903   3.833   1.043   1.862
 1906HOH      O 5904   1.150   1.406   3.250
 1906HOH     H1 5905   1.092   1.350   3.198
 1906HOH     H2 5906   1.091   1.456   3.307
 1907HOH      O 5907   3.752   3.407   2.211
 1907HOH     H1 5908   3.672   3.457   2.199
 1907HOH     H2 5909   3.729   3.318   2.186
 1908HOH      O 5910   0.417   1.664   3.237
 1908HOH     H1 5911   0.430   1.707   3.153
 1908HOH     H2 5912   0.424   1.734   3.302
 1909HOH      O 5913   1.748   2.781   3.815
 1909HOH     H1 5914   1.799   2.849   3.770
 1909HOH     H2 5915   1.771   2.792   3.907
 1910HOH      O 5916   2.631   1.918   0.722
 1910HOH     H1 5917   2.555   1.921   0.780
 1910HOH     H2 5918   2.688   1.988   0.753
 1911HOH      O 5919   1.832   1.398   2.257
 1911HOH     H1 5920   1.742   1.388   2.228
 1911HOH     H2 5921   1.867   1.469   2.204
 1912HOH      O 5922   1.419   0.269   2.022
 1912HOH     H1 5923   1.379   0.199   1.971
 1912HOH     H2 5924   1.481   0.224   2.079
 1913HOH      O 5925   2.786   2.434   3.102
 1913HOH     H1 5926   2.734   2.450   3.181
 1913HOH     H2 5927   2.876   2.455   3.128
 1914HOH      O 5928   2.896   2.568   1.021
 1914HOH     H1 5929   2.951   2.562   1.099
 1914HOH     H2 5930   2.846   2.649   1.033
 1915HOH      O 5931   2.611   1.262   1.733
 1915HOH     H1 5932   2.546   1.245   1.665
 1915HOH     H2 5933   2.575   1.334   1.785
 1916HOH      O 5934   3.133   1.992   1.166
 1916HOH     H1 5935   3.141   1.909   1.213
 1916HOH     H2 5936   3.053   2.031   1.199
 1917HOH      O 5937   3.798   1.798   2.685
 1917HOH     H1 5938   3.736   1.777   2.756
 1917HOH     H2 5939   3.815   1.714   2.643
 1918HOH      O 5940   1.049   3.114   1.038
 1918HOH     H1 5941   1.099   3.190   1.008
 1918HOH     H2 5942   1.110   3.067   1.095
 1919HOH      O 5943   0.474   0.479   1.210
 1919HOH     H1 5944   0.413   0.511   1.143
 1919HOH     H2 5945   0.473   0.384   1.200
 1920HOH      O 5946   2.752   2.165   2.198
 1920HOH     H1 5947   2.839   2.166   2.239
 1920HOH     H2 5948   2.709   2.243   2.232
 1921HOH      O 5949   2.280   1.831   2.626
 1921HOH     H1 5950   2.286   1.908   2.570
 1921HOH     H2 5951   2.292   1.865   2.715
 1922HOH      O 5952   3.349   0.844   1.513
 1922HOH     H1 5953   3.425   0.873   1.462
 1922HOH     H2 5954   3.384   0.822   1.599
 1923HOH      O 5955   3.182   1.123   2.445
 1923HOH     H1 5956   3.182   1.152   2.354
 1923HOH     H2 5957   3.274   1.130   2.472
 1924HOH      O 5958   3.441   1.616   0.379
 1924HOH     H1 5959   3.461   1.563   0.456
 1924HOH     H2 5960   3.375   1.566   0.332
 1925HOH      O 5961   2.993   0.600   3.734
 1925HOH     H1 5962   3.084   0.573   3.741
 1925HOH     H2 5963   2.988   0.645   3.650
 1926HOH      O 5964   2.953   2.650   3.837
 1926HOH     H1 5965   2.882   2.643   3.901
 1926HOH     H2 5966   2.909   2.643   3.752
 1927HOH      O 5967   0.712   3.636   0.075
 1927HOH     H1 5968   0.674   3.603  -0.006
 1927HOH     H2 5969   0.660   3.714   0.096
 1928HOH      O 5970   4.006   3.718   2.371
 1928HOH     H1 5971   3.969   3.647   2.423
 1928HOH     H2 5972   4.076   3.753   2.425
 1929HOH      O 5973   2.645   3.365   1.364
 1929HOH     H1 5974   2.571   3.307   1.346
 1929HOH     H2 5975   2.712   3.337   1.301
 1930HOH      O 5976   0.493   3.054   2.228
 1930HOH     H1 5977   0.551   3.009   2.166
 1930HOH     H2 5978   0.552   3.086   2.296
 1931HOH      O 5979   1.200   0.694   2.186
 1931HOH     H1 5980   1.246   0.610   2.193
 1931HOH     H2 5981   1.232   0.732   2.104
 1932HOH      O 5982   1.501   2.720   2.540
 1932HOH     H1 5983   1.450   2.676   2.607
 1932HOH     H2 5984   1.590   2.725   2.577
 1933HOH      O 5985   3.301   3.787   2.009
 1933HOH     H1 5986   3.220   3.786   1.958
 1933HOH     H2 5987   3.286   3.853   2.076
 1934HOH      O 5988   1.833   2.750   1.732
 1934HOH     H1 5989   1.743   2.773   1.711
 1934HOH     H2 5990   1.832   2.731   1.825
 1935HOH      O 5991   3.016   1.486   3.984
 1935HOH     H1 5992   3.081   1.422   3.955
 1935HOH     H2 5993   3.012   1.476   4.079
 1936HOH      O 5994   1.929   3.274   2.029
 1936HOH     H1 5995   1.980   3.342   2.073
 1936HOH     H2 5996   1.983   3.196   2.034
 1937HOH      O 5997   2.400   2.644   2.115
 1937HOH     H1 5998   2.464   2.709   2.086
 1937HOH     H2 5999   2.425   2.625   2.206
 1938HOH      O 6000   3.794   0.013   1.042
 1938HOH     H1 6001   3.704   0.035   1.019
 1938HOH     H2 6002   3.834  -0.012   0.959
 1939HOH      O 6003   3.514   1.872   2.383
 1939HOH     H1 6004   3.459   1.888   2.307
 1939HOH     H2 6005   3.552   1.958   2.404
 1940HOH      O 6006   0.753   1.136   1.812
 1940HOH     H1 6007   0.837   1.167   1.777
 1940HOH     H2 6008   0.687   1.175   1.755
 1941HOH      O 6009   2.938   1.351   1.186
 1941HOH     H1 6010   2.869   1.332   1.249
 1941HOH     H2 6011   2.984   1.268   1.174
 1942HOH      O 6012   2.754   3.388   1.609
 1942HOH     H1 6013   2.694   3.408   1.537
 1942HOH     H2 6014   2.773   3.473   1.649
 1943HOH      O 6015   1.426   0.744   1.706
 1943HOH     H1 6016   1.411   0.834   1.676
 1943HOH     H2 6017   1.460   0.698   1.629
 1944HOH      O 6018   2.816   3.696   0.323
 1944HOH     H1 6019   2.721   3.701   0.336
 1944HOH     H2 6020   2.846   3.786   0.336
 1945HOH      O 6021   2.239   3.287   1.917
 1945HOH     H1 6022   2.170   3.337   1.874
 1945HOH     H2 6023   2.252   3.331   2.001
 1946HOH      O 6024   2.129   3.772   2.374
 1946HOH     H1 6025   2.147   3.749   2.466
 1946HOH     H2 6026   2.046   3.818   2.376
 1947HOH      O 6027   0.146   1.993   0.897
 1947HOH     H1 6028   0.218   1.952   0.943
 1947HOH     H2 6029   0.067   1.950   0.932
 1948HOH      O 6030   0.651   0.545   1.411
 1948HOH     H1 6031   0.595   0.530   1.335
 1948HOH     H2 6032   0.602   0.607   1.465
 1949HOH      O 6033   0.140   3.619   3.415
 1949HOH     H1 6034   0.064   3.568   3.443
 1949HOH     H2 6035   0.208   3.554   3.398
 1950HOH      O 6036   3.264   0.298   0.588
 1950HOH     H1 6037   3.270   0.234   0.517
 1950HOH     H2 6038   3.242   0.245   0.665
 1951HOH      O 6039   3.166   2.996   0.041
 1951HOH     H1 6040   3.194   2.917  -0.006
 1951HOH     H2 6041   3.118   2.962   0.117
 1952HOH      O 6042   1.496   0.887   0.373
 1952HOH     H1 6043   1.463   0.972   0.402
 1952HOH     H2 6044   1.428   0.854   0.314
 1953HOH      O 6045   3.918   3.160   3.941
 1953HOH     H1 6046   3.976   3.097   3.898
 1953HOH     H2 6047   3.831   3.121   3.933
 1954HOH      O 6048   2.514   3.921   1.715
 1954HOH     H1 6049   2.491   3.830   1.700
 1954HOH     H2 6050   2.495   3.935   1.808
 1955HOH      O 6051   2.705   1.115   2.544
 1955HOH     H1 6052   2.626   1.155   2.580
 1955HOH     H2 6053   2.767   1.114   2.618
 1956HOH      O 6054   1.650   3.270   0.940
 1956HOH     H1 6055   1.584   3.216   0.898
 1956HOH     H2 6056   1.725   3.212   0.952
 1957HOH      O 6057   3.810   2.134   1.570
 1957HOH     H1 6058   3.809   2.100   1.659
 1957HOH     H2 6059   3.725   2.177   1.560
 1958HOH      O 6060   3.784   0.031   0.677
 1958HOH     H1 6061   3.752  -0.058   0.689
 1958HOH     H2 6062   3.706   0.081   0.652
 1959HOH      O 6063   1.066   2.530   1.917
 1959HOH     H1 6064   1.118   2.596   1.963
 1959HOH     H2 6065   1.073   2.555   1.825
 1960HOH      O 6066   1.963   3.161   2.812
 1960HOH     H1 6067   2.012   3.103   2.870
 1960HOH     H2 6068   1.982   3.129   2.724
 1961HOH      O 6069   2.116   2.477   2.382
 1961HOH     H1 6070   2.152   2.415   2.319
 1961HOH     H2 6071   2.036   2.509   2.341
 1962HOH      O 6072   0.890   0.411   3.665
 1962HOH     H1 6073   0.835   0.489   3.661
 1962HOH     H2 6074   0.896   0.392   3.759
 1963HOH      O 6075   3.348   0.969   1.960
 1963HOH     H1 6076   3.374   1.028   1.889
 1963HOH     H2 6077   3.431   0.939   1.997
 1964HOH      O 6078   0.281   3.359   3.829
 1964HOH     H1 6079   0.275   3.264   3.826
 1964HOH     H2 6080   0.368   3.376   3.866
 1965HOH      O 6081   1.898   1.117   0.212
 1965HOH     H1 6082   1.829   1.180   0.193
 1965HOH     H2 6083   1.853   1.038   0.240
 1966HOH      O 6084   1.699   3.656   1.074
 1966HOH     H1 6085   1.740   3.713   1.139
 1966HOH     H2 6086   1.674   3.715   1.003
 1967HOH      O 6087   1.383   3.472   3.542
 1967HOH     H1 6088   1.337   3.517   3.471
 1967HOH     H2 6089   1.474   3.499   3.533
 1968HOH      O 6090   1.446   0.538   1.440
 1968HOH     H1 6091   1.449   0.446   1.414
 1968HOH     H2 6092   1.362   0.569   1.407
 1969HOH      O 6093   2.006   2.216   0.860
 1969HOH     H1 6094   1.949   2.155   0.813
 1969HOH     H2 6095   2.075   2.160   0.897
 1970HOH      O 6096   0.843   2.692   2.095
 1970HOH     H1 6097   0.787   2.703   2.018
 1970HOH     H2 6098   0.931   2.715   2.064
 1971HOH      O 6099   1.291   1.173   0.227
 1971HOH     H1 6100   1.274   1.246   0.168
 1971HOH     H2 6101   1.342   1.111   0.175
 1972HOH      O 6102   3.130   1.445   3.241
 1972HOH     H1 6103   3.138   1.419   3.149
 1972HOH     H2 6104   3.041   1.418   3.266
 1973HOH      O 6105   0.874   2.764   0.213
 1973HOH     H1 6106   0.909   2.824   0.147
 1973HOH     H2 6107   0.951   2.718   0.246
 1974HOH      O 6108   1.230   1.938   0.045
 1974HOH     H1 6109   1.220   2.012  -0.014
 1974HOH     H2 6110   1.246   1.978   0.131
 1975HOH      O 6111   0.506   1.907   3.364
 1975HOH     H1 6112   0.559   1.983   3.388
 1975HOH     H2 6113   0.486   1.864   3.447
 1976HOH      O 6114   3.377   2.053   3.997
 1976HOH     H1 6115   3.378   1.963   4.031
 1976HOH     H2 6116   3.467   2.083   4.004
 1977HOH      O 6117   2.941   0.405   1.233
 1977HOH     H1 6118   3.018   0.432   1.283
 1977HOH     H2 6119   2.948   0.309   1.229
 1978HOH      O 6120   2.694   2.607   0.175
 1978HOH     H1 6121   2.689   2.544   0.247
 1978HOH     H2 6122   2.622   2.668   0.191
 1979HOH      O 6123   0.410   1.551   0.772
 1979HOH     H1 6124   0.401   1.536   0.866
 1979HOH     H2 6125   0.446   1.640   0.766
 1980HOH      O 6126   3.979   3.113   2.602
 1980HOH     H1 6127   3.962   3.203   2.575
 1980HOH     H2 6128   3.907   3.093   2.662
 1981HOH      O 6129   3.748   1.578   3.753
 1981HOH     H1 6130   3.769   1.504   3.812
 1981HOH     H2 6131   3.662   1.609   3.784
 1982HOH      O 6132   2.970   0.974   0.736
 1982HOH     H1 6133   2.878   0.968   0.710
 1982HOH     H2 6134   2.993   0.885   0.762
 1983HOH      O 6135   2.947   2.167   1.199
 1983HOH     H1 6136   2.885   2.125   1.259
 1983HOH     H2 6137   2.892   2.203   1.130
 1984HOH      O 6138   0.688   3.765   2.833
 1984HOH     H1 6139   0.732   3.731   2.911
 1984HOH     H2 6140   0.595   3.760   2.855
 1985HOH      O 6141   3.748   0.925   3.542
 1985HOH     H1 6142   3.795   1.003   3.513
 1985HOH     H2 6143   3.727   0.878   3.461
 1986HOH      O 6144   3.550   2.086   0.392
 1986HOH     H1 6145   3.521   1.996   0.382
 1986HOH     H2 6146   3.474   2.138   0.366
 1987HOH      O 6147   0.976   0.495   2.254
 1987HOH     H1 6148   0.881   0.504   2.252
 1987HOH     H2 6149   1.008   0.564   2.196
 1988HOH      O 6150   1.991   0.415   1.824
 1988HOH     H1 6151   1.947   0.500   1.830
 1988HOH     H2 6152   2.017   0.395   1.914
 1989HOH      O 6153   1.850   3.693   2.562
 1989HOH     H1 6154   1.850   3.706   2.657
 1989HOH     H2 6155   1.866   3.599   2.552
 1990HOH      O 6156   1.337   2.339   1.956
 1990HOH     H1 6157   1.267   2.316   2.017
 1990HOH     H2 6158   1.364   2.256   1.918
 1991HOH      O 6159   1.327   1.451   1.145
 1991HOH     H1 6160   1.402   1.499   1.181
 1991HOH     H2 6161   1.347   1.442   1.052
 1992HOH      O 6162   2.645   1.808   0.472
 1992HOH     H1 6163   2.683   1.859   0.543
 1992HOH     H2 6164   2.710   1.811   0.402
 1993HOH      O 6165   1.239   3.721   1.372
 1993HOH     H1 6166   1.289   3.639   1.365
 1993HOH     H2 6167   1.269   3.760   1.455
 1994HOH      O 6168   3.229   0.960   0.924
 1994HOH     H1 6169   3.176   0.881   0.910
 1994HOH     H2 6170   3.247   0.992   0.836
 1995HOH      O 6171   0.566   3.621   0.361
 1995HOH     H1 6172   0.588   3.696   0.306
 1995HOH     H2 6173   0.558   3.657   0.449
 1996HOH      O 6174   1.483   2.492   3.993
 1996HOH     H1 6175   1.402   2.443   4.004
 1996HOH     H2 6176   1.465   2.577   4.033
 1997HOH      O 6177   3.082   0.965   3.757
 1997HOH     H1 6178   3.152   0.953   3.822
 1997HOH     H2 6179   3.126   0.956   3.673
 1998HOH      O 6180   1.273   2.691   1.567
 1998HOH     H1 6181   1.366   2.691   1.547
 1998HOH     H2 6182   1.232   2.729   1.490
 1999HOH      O 6183   2.397   1.329   3.736
 1999HOH     H1 6184   2.487   1.301   3.757
 1999HOH     H2 6185   2.408   1.393   3.666
 2000HOH      O 6186   0.057   3.894   0.565
 2000HOH     H1 6187   0.010   3.890   0.482
 2000HOH     H2 6188  -0.011   3.881   0.632
 2001HOH      O 6189   2.716   1.097   3.378
 2001HOH     H1 6190   2.637   1.104   3.432
 2001HOH     H2 6191   2.684   1.103   3.288
 2002HOH      O 6192   2.789   3.961   1.141
 2002HOH     H1 6193   2.825   3.875   1.122
 2002HOH     H2 6194   2.716   3.970   1.080
 2003HOH      O 6195   1.100   0.468   3.454
 2003HOH     H1 6196   1.049   0.437   3.529
 2003HOH     H2 6197   1.189   0.478   3.488
 2004HOH      O 6198   3.769   0.149   2.824
 2004HOH     H1 6199   3.761   0.064   2.866
 2004HOH     H2 6200   3.699   0.151   2.759
 2005HOH      O 6201   0.043   3.069   3.063
 2005HOH     H1 6202   0.082   3.131   3.001
 2005HOH     H2 6203  -0.004   3.006   3.007
 2006HOH      O 6204   1.939   0.102   0.587
 2006HOH     H1 6205   2.011   0.146   0.541
 2006HOH     H2 6206   1.981   0.031   0.634
 2007HOH      O 6207   2.992   3.852   0.777
 2007HOH     H1 6208   2.897   3.859   0.774
 2007HOH     H2 6209   3.013   3.848   0.870
 2008HOH      O 6210   1.469   0.700   3.181
 2008HOH     H1 6211   1.463   0.644   3.104
 2008HOH     H2 6212   1.520   0.648   3.244
 2009HOH      O 6213   0.172   0.125   1.233
 2009HOH     H1 6214   0.089   0.171   1.225
 2009HOH     H2 6215   0.173   0.090   1.322
 2010HOH      O 6216   2.949   2.422   1.689
 2010HOH     H1 6217   3.010   2.431   1.617
 2010HOH     H2 6218   3.001   2.440   1.768
 2011HOH      O 6219   3.857   1.129   1.267
 2011HOH     H1 6220   3.949   1.102   1.266
 2011HOH     H2 6221   3.860   1.224   1.272
 2012HOH      O 6222   3.177   0.194   2.374
 2012HOH     H1 6223   3.226   0.177   2.455
 2012HOH     H2 6224   3.237   0.247   2.321
 2013HOH      O 6225   3.846   1.638   1.620
 2013HOH     H1 6226   3.826   1.697   1.548
 2013HOH     H2 6227   3.852   1.694   1.697
 2014HOH      O 6228   0.800   3.673   0.737
 2014HOH     H1 6229   0.753   3.603   0.782
 2014HOH     H2 6230   0.825   3.733   0.807
 2015HOH      O 6231   2.741   0.831   3.822
 2015HOH     H1 6232   2.824   0.806   3.862
 2015HOH     H2 6233   2.766   0.876   3.741
 2016HOH      O 6234   1.322   2.188   2.560
 2016HOH     H1 6235   1.386   2.117   2.553
 2016HOH     H2 6236   1.362   2.251   2.620
 2017HOH      O 6237   1.259   1.901   1.463
 2017HOH     H1 6238   1.334   1.841   1.459
 2017HOH     H2 6239   1.273   1.963   1.392
 2018HOH      O 6240   3.824   3.757   2.818
 2018HOH     H1 6241   3.757   3.819   2.788
 2018HOH     H2 6242   3.842   3.702   2.742
 2019HOH      O 6243   3.827   2.663   1.561
 2019HOH     H1 6244   3.771   2.588   1.583
 2019HOH     H2 6245   3.911   2.643   1.602
 2020HOH      O 6246   1.748   2.739   0.149
 2020HOH     H1 6247   1.753   2.786   0.232
 2020HOH     H2 6248   1.663   2.764   0.112
 2021HOH      O 6249   2.181   1.571   0.721
 2021HOH     H1 6250   2.107   1.537   0.771
 2021HOH     H2 6251   2.228   1.493   0.692
 2022HOH      O 6252   0.729   3.721   1.411
 2022HOH     H1 6253   0.666   3.698   1.343
 2022HOH     H2 6254   0.708   3.812   1.433
 2023HOH      O 6255   1.108   0.160   2.279
 2023HOH     H1 6256   1.182   0.145   2.338
 2023HOH     H2 6257   1.043   0.205   2.332
 2024HOH      O 6258   2.849   1.801   0.289
 2024HOH     H1 6259   2.846   1.797   0.194
 2024HOH     H2 6260   2.939   1.828   0.309
 2025HOH      O 6261   0.383   3.876   2.376
 2025HOH     H1 6262   0.474   3.887   2.351
 2025HOH     H2 6263   0.368   3.781   2.372
 2026HOH      O 6264   1.199   2.866   2.692
 2026HOH     H1 6265   1.247   2.916   2.626
 2026HOH     H2 6266   1.146   2.932   2.738
 2027HOH      O 6267   1.529   1.432   2.213
 2027HOH     H1 6268   1.481   1.416   2.131
 2027HOH     H2 6269   1.544   1.526   2.214
 2028HOH      O 6270   0.802   1.145   3.925
 2028HOH     H1 6271   0.791   1.130   3.832
 2028HOH     H2 6272   0.795   1.059   3.965
 2029HOH      O 6273   1.825   0.636   0.165
 2029HOH     H1 6274   1.874   0.563   0.126
 2029HOH     H2 6275   1.738   0.630   0.126
 2030HOH      O 6276   1.160   0.897   0.709
 2030HOH     H1 6277   1.210   0.894   0.791
 2030HOH     H2 6278   1.216   0.852   0.646
 2031HOH      O 6279   3.450   0.658   2.027
 2031HOH     H1 6280   3.388   0.631   2.095
 2031HOH     H2 6281   3.493   0.736   2.064
 2032HOH      O 6282   3.415   0.494   1.093
 2032HOH     H1 6283   3.385   0.580   1.064
 2032HOH     H2 6284   3.510   0.504   1.102
 2033HOH      O 6285   1.810   0.529   3.823
 2033HOH     H1 6286   1.771   0.530   3.910
 2033HOH     H2 6287   1.839   0.619   3.809
 2034HOH      O 6288   3.725   0.664   1.342
 2034HOH     H1 6289   3.789   0.596   1.322
 2034HOH     H2 6290   3.707   0.705   1.258
 2035HOH      O 6291   0.239   1.674   0.234
 2035HOH     H1 6292   0.284   1.608   0.287
 2035HOH     H2 6293   0.177   1.623   0.182
 2036HOH      O 6294   2.694   0.825   0.654
 2036HOH     H1 6295   2.722   0.739   0.623
 2036HOH     H2 6296   2.623   0.850   0.594
 2037HOH      O 6297   3.857   1.133   3.421
 2037HOH     H1 6298   3.853   1.203   3.486
 2037HOH     H2 6299   3.915   1.167   3.353
 2038HOH      O 6300   1.246   2.924   1.147
 2038HOH     H1 6301   1.237   2.994   1.212
 2038HOH     H2 6302   1.325   2.876   1.174
 2039HOH      O 6303   1.754   1.547   1.826
 2039HOH     H1 6304   1.665   1.572   1.850
 2039HOH     H2 6305   1.806   1.561   1.905
 2040HOH      O 6306   0.731   1.101   3.090
 2040HOH     H1 6307   0.706   1.041   3.021
 2040HOH     H2 6308   0.752   1.045   3.165
 2041HOH      O 6309   1.048   0.248   2.707
 2041HOH     H1 6310   1.127   0.299   2.725
 2041HOH     H2 6311   1.005   0.294   2.636
 2042HOH      O 6312   1.775   2.641   2.060
 2042HOH     H1 6313   1.700   2.583   2.067
 2042HOH     H2 6314   1.738   2.729   2.073
 2043HOH      O 6315   1.651   0.196   0.926
 2043HOH     H1 6316   1.615   0.170   1.011
 2043HOH     H2 6317   1.574   0.222   0.874
 2044HOH      O 6318   0.104   2.866   1.592
 2044HOH     H1 6319   0.091   2.848   1.499
 2044HOH     H2 6320   0.198   2.883   1.600
 2045HOH      O 6321   3.114   2.111   0.809
 2045HOH     H1 6322   3.156   2.128   0.893
 2045HOH     H2 6323   3.067   2.028   0.821
 2046HOH      O 6324   1.012   0.852   3.006
 2046HOH     H1 6325   1.008   0.757   2.992
 2046HOH     H2 6326   1.072   0.863   3.080
 2047HOH      O 6327   1.304   3.543   2.130
 2047HOH     H1 6328   1.366   3.523   2.060
 2047HOH     H2 6329   1.226   3.492   2.108
 2048HOH      O 6330   2.105   1.557   3.782
 2048HOH     H1 6331   2.024   1.509   3.796
 2048HOH     H2 6332   2.090   1.642   3.823
 2049HOH      O 6333   2.092   0.847   1.252
 2049HOH     H1 6334   2.024   0.891   1.201
 2049HOH     H2 6335   2.060   0.758   1.263
 2050HOH      O 6336   2.101   0.514   3.778
 2050HOH     H1 6337   2.112   0.468   3.695
 2050HOH     H2 6338   2.011   0.492   3.805
 2051HOH      O 6339   2.522   0.235   2.298
 2051HOH     H1 6340   2.593   0.248   2.362
 2051HOH     H2 6341   2.527   0.142   2.276
 2052HOH      O 6342   2.596   2.342   3.640
 2052HOH     H1 6343   2.616   2.372   3.729
 2052HOH     H2 6344   2.633   2.253   3.636
 2053HOH      O 6345   0.857   1.463   0.576
 2053HOH     H1 6346   0.902   1.459   0.660
 2053HOH     H2 6347   0.818   1.376   0.566
 2054HOH      O 6348   3.762   3.768   2.248
 2054HOH     H1 6349   3.740   3.733   2.161
 2054HOH     H2 6350   3.856   3.779   2.245
 2055HOH      O 6351   0.163   1.072   3.399
 2055HOH     H1 6352   0.250   1.112   3.391
 2055HOH     H2 6353   0.109   1.118   3.335
 2056HOH      O 6354   2.010   1.847   1.924
 2056HOH     H1 6355   2.002   1.760   1.964
 2056HOH     H2 6356   2.098   1.877   1.949
 2057HOH      O 6357   0.627   0.490   2.911
 2057HOH     H1 6358   0.548   0.509   2.961
 2057HOH     H2 6359   0.637   0.564   2.852
 2058HOH      O 6360   3.857   0.200   3.684
 2058HOH     H1 6361   3.889   0.284   3.651
 2058HOH     H2 6362   3.764   0.200   3.663
 2059HOH      O 6363   3.222   1.160   2.137
 2059HOH     H1 6364   3.269   1.097   2.083
 2059HOH     H2 6365   3.163   1.204   2.076
 2060HOH      O 6366   0.570   2.120  -0.003
 2060HOH     H1 6367   0.492   2.067  -0.016
 2060HOH     H2 6368   0.609   2.087   0.078
 2061HOH      O 6369   2.153   2.990   3.146
 2061HOH     H1 6370   2.065   3.004   3.182
 2061HOH     H2 6371   2.207   3.053   3.193
 2062HOH      O 6372   1.846   1.918   3.392
 2062HOH     H1 6373   1.878   1.999   3.432
 2062HOH     H2 6374   1.753   1.915   3.414
 2063HOH      O 6375   2.784   2.805   1.010
 2063HOH     H1 6376   2.857   2.841   1.061
 2063HOH     H2 6377   2.790   2.850   0.925
 2064HOH      O 6378   0.826   0.890   1.470
 2064HOH     H1 6379   0.908   0.929   1.501
 2064HOH     H2 6380   0.852   0.839   1.393
 2065HOH      O 6381   1.401   0.276   1.681
 2065HOH     H1 6382   1.316   0.265   1.639
 2065HOH     H2 6383   1.399   0.215   1.756
 2066HOH      O 6384   3.273   3.625   3.539
 2066HOH     H1 6385   3.324   3.582   3.607
 2066HOH     H2 6386   3.330   3.624   3.461
 2067HOH      O 6387   3.398   1.809   1.762
 2067HOH     H1 6388   3.428   1.896   1.737
 2067HOH     H2 6389   3.456   1.782   1.833
 2068HOH      O 6390   1.460   0.265   0.759
 2068HOH     H1 6391   1.517   0.338   0.735
 2068HOH     H2 6392   1.373   0.304   0.770
 2069HOH      O 6393   0.971   1.644   2.441
 2069HOH     H1 6394   0.923   1.568   2.475
 2069HOH     H2 6395   0.966   1.709   2.512
 2070HOH      O 6396   3.085   0.375   3.283
 2070HOH     H1 6397   2.994   0.356   3.262
 2070HOH     H2 6398   3.118   0.424   3.208
 2071HOH      O 6399   2.960   3.045   1.743
 2071HOH     H1 6400   2.951   2.964   1.693
 2071HOH     H2 6401   2.870   3.077   1.752
 2072HOH      O 6402   3.468   2.524   0.626
 2072HOH     H1 6403   3.552   2.479   0.635
 2072HOH     H2 6404   3.404   2.465   0.666
 2073HOH      O 6405   3.376   0.389   2.687
 2073HOH     H1 6406   3.434   0.318   2.712
 2073HOH     H2 6407   3.338   0.419   2.770
 2074HOH      O 6408   2.404   0.323   1.387
 2074HOH     H1 6409   2.392   0.287   1.475
 2074HOH     H2 6410   2.316   0.327   1.350
 2075HOH      O 6411   1.497   1.837   0.100
 2075HOH     H1 6412   1.410   1.801   0.117
 2075HOH     H2 6413   1.487   1.888   0.019
 2076HOH      O 6414   2.927   0.811   3.138
 2076HOH     H1 6415   2.975   0.796   3.057
 2076HOH     H2 6416   2.969   0.887   3.178
 2077HOH      O 6417   1.663   1.385   1.409
 2077HOH     H1 6418   1.657   1.465   1.356
 2077HOH     H2 6419   1.661   1.314   1.344
 2078HOH      O 6420   0.254   2.293  -0.003
 2078HOH     H1 6421   0.314   2.232  -0.045
 2078HOH     H2 6422   0.305   2.330   0.070
 2079HOH      O 6423   3.732   0.488   2.550
 2079HOH     H1 6424   3.665   0.426   2.578
 2079HOH     H2 6425   3.797   0.435   2.504
 2080HOH      O 6426   1.899   2.238   1.501
 2080HOH     H1 6427   1.862   2.232   1.589
 2080HOH     H2 6428   1.886   2.329   1.476
 2081HOH      O 6429   0.771   3.753   1.758
 2081HOH     H1 6430   0.773   3.820   1.825
 2081HOH     H2 6431   0.790   3.671   1.804
 2082HOH      O 6432   1.575   0.496   1.026
 2082HOH     H1 6433   1.566   0.463   0.937
 2082HOH     H2 6434   1.627   0.430   1.071
 2083HOH      O 6435   2.489   2.441   1.114
 2083HOH     H1 6436   2.494   2.529   1.075
 2083HOH     H2 6437   2.398   2.434   1.144
 2084HOH      O 6438   3.687   0.537   2.058
 2084HOH     H1 6439   3.600   0.572   2.039
 2084HOH     H2 6440   3.675   0.479   2.133
 2085HOH      O 6441   1.727   1.087   1.589
 2085HOH     H1 6442   1.664   1.119   1.654
 2085HOH     H2 6443   1.701   1.130   1.508
 2086HOH      O 6444   3.341   2.281   0.357
 2086HOH     H1 6445   3.264   2.287   0.414
 2086HOH     H2 6446   3.401   2.347   0.389
 2087HOH      O 6447   1.963   3.371   3.882
 2087HOH     H1 6448   2.007   3.449   3.847
 2087HOH     H2 6449   1.964   3.309   3.809
 2088HOH      O 6450   3.487   1.932   2.886
 2088HOH     H1 6451   3.448   1.998   2.829
 2088HOH     H2 6452   3.550   1.981   2.939
 2089HOH      O 6453   2.264   3.053   0.012
 2089HOH     H1 6454   2.181   3.028  -0.028
 2089HOH     H2 6455   2.281   2.985   0.077
 2090HOH      O 6456   0.698   0.859   2.949
 2090HOH     H1 6457   0.672   0.796   3.016
 2090HOH     H2 6458   0.792   0.844   2.937
 2091HOH      O 6459   2.292   1.904   1.994
 2091HOH     H1 6460   2.379   1.918   1.958
 2091HOH     H2 6461   2.307   1.864   2.079
 2092HOH      O 6462   2.052   2.239   0.383
 2092HOH     H1 6463   2.003   2.159   0.400
 2092HOH     H2 6464   1.985   2.304   0.363
 2093HOH      O 6465   1.766   3.431   1.683
 2093HOH     H1 6466   1.792   3.443   1.592
 2093HOH     H2 6467   1.703   3.360   1.682
 2094HOH      O 6468   1.751   0.882   0.245
 2094HOH     H1 6469   1.772   0.789   0.253
 2094HOH     H2 6470   1.665   0.891   0.287
 2095HOH      O 6471  -0.004   2.372   3.151
 2095HOH     H1 6472  -0.021   2.447   3.095
 2095HOH     H2 6473   0.041   2.309   3.095
 2096HOH      O 6474   3.808   3.028   2.847
 2096HOH     H1 6475   3.817   3.111   2.894
 2096HOH     H2 6476   3.715   3.021   2.827
 2097HOH      O 6477   3.550   3.385   0.135
 2097HOH     H1 6478   3.543   3.461   0.193
 2097HOH     H2 6479   3.473   3.332   0.156
 2098HOH      O 6480   0.996   2.950   1.312
 2098HOH     H1 6481   1.038   2.866   1.329
 2098HOH     H2 6482   1.017   3.004   1.388
 2099HOH      O 6483   1.889   1.455   1.597
 2099HOH     H1 6484   1.814   1.442   1.539
 2099HOH     H2 6485   1.854   1.504   1.672
 2100HOH      O 6486   1.954   3.518   0.123
 2100HOH     H1 6487   1.884   3.479   0.175
 2100HOH     H2 6488   1.933   3.493   0.033
 2101HOH      O 6489   2.391   1.489   2.689
 2101HOH     H1 6490   2.402   1.527   2.775
 2101HOH     H2 6491   2.306   1.446   2.692
 2102HOH      O 6492   2.812   0.366   1.528
 2102HOH     H1 6493   2.730   0.411   1.550
 2102HOH     H2 6494   2.801   0.337   1.438
 2103HOH      O 6495   1.846   3.954   2.157
 2103HOH     H1 6496   1.919   3.958   2.096
 2103HOH     H2 6497   1.883   3.915   2.236
 2104HOH      O 6498   1.329   1.609   2.594
 2104HOH     H1 6499   1.384   1.541   2.556
 2104HOH     H2 6500   1.318   1.673   2.524
 2105HOH      O 6501   2.748   0.790   0.165
 2105HOH     H1 6502   2.709   0.855   0.106
 2105HOH     H2 6503   2.792   0.843   0.232
 2106HOH      O 6504   3.386   3.971   0.794
 2106HOH     H1 6505   3.318   3.996   0.731
 2106HOH     H2 6506   3.383   3.875   0.795
 2107HOH      O 6507   0.441   3.107   1.873
 2107HOH     H1 6508   0.481   3.175   1.928
 2107HOH     H2 6509   0.373   3.152   1.823
 2108HOH      O 6510   2.631   0.226   1.282
 2108HOH     H1 6511   2.670   0.165   1.346
 2108HOH     H2 6512   2.538   0.227   1.304
 2109HOH      O 6513   1.658   1.124   0.957
 2109HOH     H1 6514   1.735   1.173   0.929
 2109HOH     H2 6515   1.615   1.097   0.876
 2110HOH      O 6516   3.901   0.461   0.327
 2110HOH     H1 6517   3.979   0.468   0.382
 2110HOH     H2 6518   3.875   0.551   0.309
 2111HOH      O 6519   1.465   2.798   1.234
 2111HOH     H1 6520   1.542   2.804   1.177
 2111HOH     H2 6521   1.441   2.705   1.232
   4.02727   4.02727   4.02727   0.00000   0.00000   0.00000   0.00000   0.00000   0.00000
