Generated with MDTraj, t= 1818.0
 6521
    1MOL     O1    1   3.594   2.258   3.332
    1MOL     O2    2   3.751   2.133   3.301
    1MOL     N1    3   3.634   2.147   3.328
    1MOL     C1    4   3.531   2.048   3.281
    1MOL     C2    5   3.566   1.953   3.186
    1MOL     C3    6   3.398   2.058   3.329
    1MOL     C4    7   3.471   1.863   3.142
    1MOL     C5    8   3.302   1.973   3.286
    1MOL     C6    9   3.342   1.871   3.196
    1MOL     C7   10   3.507   1.761   3.029
    1MOL     O3   11   3.597   1.788   2.951
    1MOL     O4   12   3.449   1.652   3.025
    1MOL     H1   13   3.668   1.939   3.153
    1MOL     H2   14   3.385   2.138   3.402
    1MOL     H3   15   3.200   1.992   3.317
    1MOL     H4   16   3.264   1.804   3.161
    2OCB     C1   17   3.433   3.332   3.458
    2OCB     C2   18   3.392   3.261   3.190
    2OCB     C3   19   3.330   3.388   3.386
    2OCB     C4   20   3.514   3.230   3.399
    2OCB     C5   21   3.494   3.194   3.264
    2OCB     C6   22   3.317   3.356   3.249
    2OCB     O1   23   3.367   3.210   3.065
    2OCB     C7   24   3.197   3.420   3.177
    2OCB     C8   25   3.264   3.114   3.050
    2OCB     O2   26   3.152   3.195   3.010
    2OCB     C9   27   3.060   3.223   3.112
    2OCB    C10   28   3.072   3.335   3.194
    2OCB    C11   29   2.973   3.355   3.290
    2OCB    C12   30   2.951   3.132   3.126
    2OCB    C13   31   2.864   3.268   3.304
    2OCB    C14   32   2.854   3.152   3.223
    2OCB     O3   33   2.756   3.055   3.233
    2OCB    C15   34   2.758   3.290   3.406
    2OCB    C16   35   2.793   3.208   3.530
    2OCB    C17   36   2.744   3.082   3.551
    2OCB    C18   37   2.756   2.964   3.345
    2OCB     O4   38   2.677   3.020   3.453
    2OCB     O5   39   3.601   3.144   3.470
    2OCB    C19   40   3.455   3.369   3.608
    2OCB    C20   41   3.365   3.272   3.692
    2OCB     O6   42   3.535   3.098   3.676
    2OCB    C21   43   3.412   3.145   3.723
    2OCB    C22   44   2.776   3.009   3.662
    2OCB    C23   45   2.867   3.058   3.755
    2OCB    C24   46   3.338   3.050   3.791
    2OCB    C25   47   3.212   3.081   3.839
    2OCB     O7   48   2.909   2.967   3.850
    2OCB     O8   49   3.139   2.985   3.905
    2OCB    C26   50   3.041   2.904   3.835
    2OCB    C27   51   3.233   3.293   3.730
    2OCB    C28   52   3.159   3.206   3.810
    2OCB    C29   53   2.871   3.264   3.635
    2OCB    C30   54   3.008   3.238   3.853
    2OCB    C31   55   2.910   3.191   3.745
    2OCB    C32   56   3.536   3.039   3.540
    2OCB    C33   57   2.728   3.445   3.430
    2OCB    C34   58   2.607   3.460   3.521
    2OCB    C35   59   2.569   3.607   3.526
    2OCB     O9   60   2.524   3.651   3.424
    2OCB    C36   61   3.177   3.572   3.205
    2OCB    C37   62   3.086   3.640   3.096
    2OCB    C38   63   3.059   3.782   3.141
    2OCB    O10   64   3.112   3.878   3.083
    2OCB    C39   65   3.449   3.518   3.659
    2OCB    C40   66   3.561   3.600   3.586
    2OCB    C41   67   3.503   3.726   3.529
    2OCB    O11   68   3.475   3.819   3.599
    2OCB    C42   69   2.980   3.386   3.876
    2OCB    C43   70   2.847   3.402   3.955
    2OCB    C44   71   2.858   3.346   4.098
    2OCB    O12   72   2.931   3.390   4.183
    2OCB    C45   73   3.301   3.006   2.943
    2OCB    C46   74   3.358   2.771   2.808
    2OCB    C47   75   3.201   2.942   2.870
    2OCB    C48   76   3.430   2.948   2.942
    2OCB    C49   77   3.458   2.835   2.871
    2OCB    C50   78   3.226   2.814   2.815
    2OCB    C51   79   3.616   2.910   3.530
    2OCB    C52   80   3.743   2.652   3.513
    2OCB    C53   81   3.631   2.833   3.645
    2OCB    C54   82   3.676   2.868   3.414
    2OCB    C55   83   3.735   2.739   3.405
    2OCB    C56   84   3.690   2.701   3.637
    2OCB    C57   85   3.038   2.750   3.867
    2OCB    C58   86   3.054   2.479   3.919
    2OCB    C59   87   2.921   2.673   3.862
    2OCB    C60   88   3.162   2.696   3.901
    2OCB    C61   89   3.167   2.561   3.931
    2OCB    C62   90   2.934   2.536   3.875
    2OCB    C63   91   2.712   2.825   3.317
    2OCB    C64   92   2.655   2.556   3.246
    2OCB    C65   93   2.648   2.736   3.409
    2OCB    C66   94   2.748   2.771   3.193
    2OCB    C67   95   2.725   2.637   3.158
    2OCB    C68   96   2.621   2.603   3.371
    2OCB    O13   97   3.779   2.696   3.284
    2OCB    O14   98   3.289   2.515   3.978
    2OCB    O15   99   2.824   2.449   3.864
    2OCB    O16  100   3.588   2.793   2.860
    2OCB    O17  101   3.121   2.748   2.752
    2OCB    O18  102   2.560   2.518   3.462
    2OCB    O19  103   2.769   2.582   3.040
    2OCB    C69  104   3.409   2.585   3.966
    2OCB    C70  105   3.662   2.697   3.959
    2OCB    C71  106   3.494   2.565   3.855
    2OCB    C72  107   3.458   2.652   4.078
    2OCB    C73  108   3.587   2.708   4.080
    2OCB    C74  109   3.619   2.624   3.858
    2OCB    O20  110   3.703   2.614   3.746
    2OCB    C75  111   3.685   2.806   2.953
    2OCB    C76  112   3.880   2.849   3.140
    2OCB    C77  113   3.789   2.899   2.923
    2OCB    C78  114   3.677   2.734   3.071
    2OCB    C79  115   3.775   2.759   3.164
    2OCB    C80  116   3.887   2.913   3.019
    2OCB    C81  117   2.710   2.488   3.801
    2OCB    C82  118   2.467   2.567   3.676
    2OCB    C83  119   2.597   2.532   3.872
    2OCB    C84  120   2.701   2.494   3.660
    2OCB    C85  121   2.580   2.525   3.598
    2OCB    C86  122   2.475   2.569   3.814
    2OCB    C87  123   2.356   2.601   3.903
    2OCB    O21  124   2.348   2.569   4.018
    2OCB    C88  125   2.663   2.889   2.664
    2OCB    O22  126   2.702   2.972   2.582
    2OCB    C89  127   3.987   3.025   2.995
    2OCB    O23  128   4.011   3.074   2.882
    2OCB    O24  129   2.571   3.676   3.627
    2OCB    O25  130   2.802   3.237   4.121
    2OCB    O26  131   3.494   3.737   3.406
    2OCB    C90  132   3.632   2.798   4.196
    2OCB    O27  133   3.736   2.855   4.182
    2OCB    O28  134   2.540   2.861   2.673
    2OCB    O29  135   2.260   2.650   3.851
    2OCB    O30  136   3.571   2.793   4.298
    2OCB    O31  137   4.055   3.052   3.086
    2OCB    O32  138   2.993   3.802   3.242
    2OCB    C91  139   2.988   2.742   2.788
    2OCB    C92  140   2.721   2.731   2.851
    2OCB    C93  141   2.954   2.669   2.904
    2OCB    C94  142   2.896   2.814   2.717
    2OCB    C95  143   2.760   2.808   2.748
    2OCB    C96  144   2.817   2.665   2.936
    2OCB    C97  145   3.058   2.592   2.990
    2OCB    C98  146   3.570   2.634   3.108
    2OCB    C99  147   3.450   2.468   3.742
    2OCB      C  148   2.816   2.448   3.578
    2OCB     H1  149   3.273   3.464   3.439
    2OCB     H2  150   3.542   3.105   3.224
    2OCB     H3  151   3.222   3.412   3.071
    2OCB     H4  152   3.236   3.071   3.147
    2OCB     H5  153   2.982   3.442   3.355
    2OCB     H6  154   2.937   3.046   3.062
    2OCB     H7  155   2.665   3.252   3.362
    2OCB     H8  156   2.859   2.942   3.377
    2OCB     H9  157   3.558   3.341   3.633
    2OCB    H10  158   2.762   2.902   3.664
    2OCB    H11  159   3.380   2.951   3.809
    2OCB    H12  160   3.066   2.904   3.728
    2OCB    H13  161   3.195   3.394   3.715
    2OCB    H14  162   2.919   3.360   3.616
    2OCB    H15  163   2.990   3.189   3.949
    2OCB    H16  164   3.431   3.015   3.518
    2OCB    H17  165   2.813   3.500   3.472
    2OCB    H18  166   2.699   3.501   3.342
    2OCB    H19  167   2.521   3.407   3.479
    2OCB    H20  168   2.621   3.413   3.619
    2OCB    H21  169   3.272   3.625   3.206
    2OCB    H22  170   3.142   3.583   3.308
    2OCB    H23  171   3.137   3.639   3.000
    2OCB    H24  172   2.999   3.580   3.068
    2OCB    H25  173   3.352   3.563   3.637
    2OCB    H26  174   3.459   3.528   3.767
    2OCB    H27  175   3.649   3.618   3.649
    2OCB    H28  176   3.603   3.544   3.503
    2OCB    H29  177   3.056   3.423   3.945
    2OCB    H30  178   2.971   3.451   3.789
    2OCB    H31  179   2.821   3.508   3.959
    2OCB    H32  180   2.765   3.360   3.897
    2OCB    H33  181   3.376   2.682   2.747
    2OCB    H34  182   3.096   2.971   2.876
    2OCB    H35  183   3.510   2.982   3.007
    2OCB    H36  184   3.783   2.551   3.500
    2OCB    H37  185   3.604   2.872   3.743
    2OCB    H38  186   3.670   2.932   3.327
    2OCB    H39  187   3.069   2.371   3.925
    2OCB    H40  188   2.826   2.720   3.838
    2OCB    H41  189   3.257   2.749   3.896
    2OCB    H42  190   2.636   2.454   3.214
    2OCB    H43  191   2.626   2.758   3.513
    2OCB    H44  192   2.800   2.840   3.127
    2OCB    H45  193   3.762   2.739   3.950
    2OCB    H46  194   3.392   2.676   4.161
    2OCB    H47  195   3.955   2.859   3.218
    2OCB    H48  196   3.781   2.956   2.832
    2OCB    H49  197   2.375   2.598   3.626
    2OCB    H50  198   2.603   2.535   3.981
    2OCB    H51  199   2.616   2.710   2.874
    2OCB    H52  200   2.931   2.868   2.629
    2OCB    H53  201   3.115   2.656   3.058
    2OCB    H54  202   3.007   2.528   3.062
    2OCB    H55  203   3.128   2.531   2.932
    2OCB    H56  204   3.557   2.561   3.028
    2OCB    H57  205   3.582   2.589   3.207
    2OCB    H58  206   3.478   2.690   3.128
    2OCB    H59  207   3.377   2.519   3.678
    2OCB    H60  208   3.541   2.433   3.691
    2OCB    H61  209   3.405   2.377   3.780
    2OCB    H62  210   2.871   2.531   3.535
    2OCB    H63  211   2.886   2.389   3.639
    2OCB    H64  212   2.778   2.384   3.498
    3Na+    Na+  213   2.001   1.513   2.975
    4Na+    Na+  214   0.456   1.409   2.802
    5Na+    Na+  215   0.421   3.044   2.062
    6Na+    Na+  216   3.114   0.137   2.741
    7Na+    Na+  217   0.369   3.345   3.236
    8Na+    Na+  218   3.017   1.911   3.688
    9Na+    Na+  219   3.420   3.952   3.414
   10Na+    Na+  220   2.934   3.182   0.259
   11Na+    Na+  221   2.235   3.030   0.060
   12HOH      O  222   1.321   1.383   0.938
   12HOH     H1  223   1.313   1.294   0.904
   12HOH     H2  224   1.250   1.389   1.003
   13HOH      O  225   3.696   0.187   0.404
   13HOH     H1  226   3.621   0.167   0.461
   13HOH     H2  227   3.731   0.268   0.441
   14HOH      O  228   3.877   2.511   1.991
   14HOH     H1  229   3.841   2.439   2.042
   14HOH     H2  230   3.964   2.481   1.965
   15HOH      O  231   2.115   0.560   0.133
   15HOH     H1  232   2.045   0.500   0.158
   15HOH     H2  233   2.195   0.509   0.143
   16HOH      O  234   1.682   3.892   2.762
   16HOH     H1  235   1.695   3.965   2.702
   16HOH     H2  236   1.705   3.928   2.848
   17HOH      O  237   1.478   3.032   3.523
   17HOH     H1  238   1.536   2.965   3.487
   17HOH     H2  239   1.535   3.106   3.543
   18HOH      O  240   2.314   1.529   0.562
   18HOH     H1  241   2.379   1.514   0.632
   18HOH     H2  242   2.310   1.624   0.553
   19HOH      O  243   2.492   1.675   1.859
   19HOH     H1  244   2.412   1.653   1.811
   19HOH     H2  245   2.463   1.736   1.927
   20HOH      O  246   2.800   2.882   1.070
   20HOH     H1  247   2.893   2.894   1.090
   20HOH     H2  248   2.795   2.796   1.029
   21HOH      O  249   2.141   2.579   1.754
   21HOH     H1  250   2.118   2.503   1.701
   21HOH     H2  251   2.211   2.623   1.705
   22HOH      O  252   3.888   3.269   0.423
   22HOH     H1  253   3.841   3.248   0.342
   22HOH     H2  254   3.922   3.357   0.407
   23HOH      O  255   2.726   0.646   2.093
   23HOH     H1  256   2.658   0.647   2.025
   23HOH     H2  257   2.687   0.692   2.167
   24HOH      O  258   0.416   3.160   1.824
   24HOH     H1  259   0.337   3.201   1.788
   24HOH     H2  260   0.423   3.077   1.777
   25HOH      O  261   1.716   2.397   2.797
   25HOH     H1  262   1.759   2.432   2.720
   25HOH     H2  263   1.647   2.460   2.817
   26HOH      O  264   1.027   0.186   0.402
   26HOH     H1  265   1.043   0.105   0.451
   26HOH     H2  266   1.113   0.224   0.389
   27HOH      O  267   3.764   3.160   0.207
   27HOH     H1  268   3.781   3.206   0.125
   27HOH     H2  269   3.808   3.075   0.197
   28HOH      O  270   0.368   1.154   0.632
   28HOH     H1  271   0.377   1.207   0.553
   28HOH     H2  272   0.289   1.102   0.618
   29HOH      O  273   2.921   1.172   3.955
   29HOH     H1  274   2.877   1.114   3.893
   29HOH     H2  275   2.990   1.214   3.903
   30HOH      O  276   1.002   2.897   2.744
   30HOH     H1  277   0.916   2.924   2.713
   30HOH     H2  278   1.049   2.980   2.759
   31HOH      O  279   1.115   0.495   2.838
   31HOH     H1  280   1.209   0.482   2.826
   31HOH     H2  281   1.109   0.557   2.911
   32HOH      O  282   3.105   0.191   3.355
   32HOH     H1  283   3.024   0.156   3.319
   32HOH     H2  284   3.168   0.185   3.283
   33HOH      O  285   2.652   0.176   1.564
   33HOH     H1  286   2.687   0.241   1.624
   33HOH     H2  287   2.693   0.196   1.480
   34HOH      O  288   2.907   3.927   0.657
   34HOH     H1  289   2.887   3.992   0.589
   34HOH     H2  290   2.937   3.850   0.608
   35HOH      O  291   2.055   1.228   3.968
   35HOH     H1  292   1.985   1.270   4.016
   35HOH     H2  293   2.063   1.141   4.008
   36HOH      O  294   0.566   0.546   2.460
   36HOH     H1  295   0.612   0.482   2.406
   36HOH     H2  296   0.612   0.545   2.544
   37HOH      O  297   0.184   1.554   1.133
   37HOH     H1  298   0.172   1.636   1.182
   37HOH     H2  299   0.199   1.488   1.199
   38HOH      O  300   3.565   1.408   3.007
   38HOH     H1  301   3.595   1.413   2.917
   38HOH     H2  302   3.548   1.499   3.031
   39HOH      O  303   2.239   2.366   1.469
   39HOH     H1  304   2.330   2.392   1.480
   39HOH     H2  305   2.203   2.430   1.407
   40HOH      O  306   1.684   3.094   0.441
   40HOH     H1  307   1.592   3.106   0.418
   40HOH     H2  308   1.683   3.032   0.514
   41HOH      O  309   1.287   0.168   2.105
   41HOH     H1  310   1.305   0.190   2.013
   41HOH     H2  311   1.192   0.178   2.114
   42HOH      O  312   0.519   3.425   2.816
   42HOH     H1  313   0.425   3.416   2.828
   42HOH     H2  314   0.528   3.478   2.736
   43HOH      O  315   0.936   2.877   1.646
   43HOH     H1  316   0.953   2.864   1.739
   43HOH     H2  317   0.883   2.801   1.621
   44HOH      O  318   0.301   0.318   3.212
   44HOH     H1  319   0.355   0.257   3.161
   44HOH     H2  320   0.348   0.328   3.295
   45HOH      O  321   2.358   0.148   2.573
   45HOH     H1  322   2.341   0.101   2.655
   45HOH     H2  323   2.366   0.240   2.600
   46HOH      O  324   4.016   1.913   2.479
   46HOH     H1  325   3.936   1.964   2.494
   46HOH     H2  326   4.087   1.974   2.498
   47HOH      O  327   3.640   3.311   0.777
   47HOH     H1  328   3.561   3.263   0.802
   47HOH     H2  329   3.672   3.266   0.699
   48HOH      O  330   1.307   1.160   3.870
   48HOH     H1  331   1.221   1.202   3.873
   48HOH     H2  332   1.330   1.146   3.962
   49HOH      O  333   2.970   1.847   3.466
   49HOH     H1  334   2.988   1.758   3.437
   49HOH     H2  335   2.921   1.886   3.393
   50HOH      O  336   3.540   0.139   2.494
   50HOH     H1  337   3.603   0.209   2.514
   50HOH     H2  338   3.548   0.079   2.568
   51HOH      O  339   2.273   2.041   3.589
   51HOH     H1  340   2.304   2.041   3.679
   51HOH     H2  341   2.296   2.128   3.555
   52HOH      O  342   0.454   3.148   0.868
   52HOH     H1  343   0.366   3.109   0.872
   52HOH     H2  344   0.441   3.232   0.824
   53HOH      O  345   1.672   2.856   3.459
   53HOH     H1  346   1.642   2.789   3.520
   53HOH     H2  347   1.768   2.856   3.468
   54HOH      O  348   0.996   0.378   0.204
   54HOH     H1  349   1.005   0.297   0.253
   54HOH     H2  350   0.960   0.351   0.119
   55HOH      O  351   2.495   1.263   2.439
   55HOH     H1  352   2.474   1.320   2.513
   55HOH     H2  353   2.496   1.321   2.363
   56HOH      O  354   3.094   2.670   0.252
   56HOH     H1  355   3.030   2.707   0.191
   56HOH     H2  356   3.148   2.744   0.278
   57HOH      O  357   0.279   3.516   3.878
   57HOH     H1  358   0.293   3.422   3.893
   57HOH     H2  359   0.186   3.529   3.895
   58HOH      O  360   0.559   2.562   3.381
   58HOH     H1  361   0.510   2.481   3.396
   58HOH     H2  362   0.493   2.624   3.349
   59HOH      O  363   3.394   1.940   3.924
   59HOH     H1  364   3.467   1.885   3.895
   59HOH     H2  365   3.436   2.011   3.973
   60HOH      O  366   0.647   2.845   1.803
   60HOH     H1  367   0.558   2.869   1.831
   60HOH     H2  368   0.642   2.843   1.708
   61HOH      O  369   3.385   2.439   1.422
   61HOH     H1  370   3.429   2.398   1.347
   61HOH     H2  371   3.455   2.486   1.467
   62HOH      O  372   3.259   2.218   0.002
   62HOH     H1  373   3.203   2.200   0.078
   62HOH     H2  374   3.263   2.313  -0.003
   63HOH      O  375   0.041   1.609   1.693
   63HOH     H1  376   0.088   1.575   1.769
   63HOH     H2  377  -0.012   1.535   1.662
   64HOH      O  378   2.282   1.053   2.829
   64HOH     H1  379   2.376   1.064   2.815
   64HOH     H2  380   2.248   1.143   2.834
   65HOH      O  381   0.174   1.856   2.210
   65HOH     H1  382   0.086   1.889   2.223
   65HOH     H2  383   0.231   1.930   2.233
   66HOH      O  384   3.917   2.010   2.976
   66HOH     H1  385   3.838   2.033   2.928
   66HOH     H2  386   3.965   2.093   2.985
   67HOH      O  387   3.317   1.513   3.184
   67HOH     H1  388   3.371   1.569   3.128
   67HOH     H2  389   3.278   1.450   3.123
   68HOH      O  390   0.074   0.496   1.387
   68HOH     H1  391   0.040   0.511   1.299
   68HOH     H2  392   0.121   0.412   1.380
   69HOH      O  393   2.424   2.026   1.678
   69HOH     H1  394   2.336   1.992   1.689
   69HOH     H2  395   2.423   2.068   1.592
   70HOH      O  396   1.325   2.437   2.281
   70HOH     H1  397   1.334   2.431   2.376
   70HOH     H2  398   1.415   2.432   2.249
   71HOH      O  399   2.817   3.742   3.864
   71HOH     H1  400   2.879   3.783   3.805
   71HOH     H2  401   2.731   3.758   3.825
   72HOH      O  402   3.287   0.487   0.771
   72HOH     H1  403   3.215   0.429   0.791
   72HOH     H2  404   3.360   0.429   0.749
   73HOH      O  405   1.319   3.502   2.666
   73HOH     H1  406   1.383   3.495   2.737
   73HOH     H2  407   1.345   3.582   2.619
   74HOH      O  408   1.871   3.983   1.095
   74HOH     H1  409   1.932   3.921   1.055
   74HOH     H2  410   1.784   3.946   1.077
   75HOH      O  411   2.353   0.531   3.425
   75HOH     H1  412   2.296   0.498   3.495
   75HOH     H2  413   2.421   0.464   3.417
   76HOH      O  414   3.314   0.121   2.163
   76HOH     H1  415   3.346   0.210   2.153
   76HOH     H2  416   3.305   0.088   2.074
   77HOH      O  417   1.189   3.154   2.772
   77HOH     H1  418   1.136   3.208   2.714
   77HOH     H2  419   1.278   3.160   2.736
   78HOH      O  420   2.649   1.560   0.716
   78HOH     H1  421   2.642   1.527   0.806
   78HOH     H2  422   2.581   1.627   0.710
   79HOH      O  423   2.502   2.459   1.491
   79HOH     H1  424   2.528   2.517   1.419
   79HOH     H2  425   2.585   2.424   1.524
   80HOH      O  426   2.095   3.860   2.200
   80HOH     H1  427   2.182   3.889   2.173
   80HOH     H2  428   2.069   3.798   2.132
   81HOH      O  429   3.006   2.227   1.179
   81HOH     H1  430   3.060   2.233   1.259
   81HOH     H2  431   2.937   2.292   1.192
   82HOH      O  432   2.581   1.528   0.226
   82HOH     H1  433   2.617   1.614   0.203
   82HOH     H2  434   2.634   1.466   0.176
   83HOH      O  435   1.946   0.749   3.753
   83HOH     H1  436   1.919   0.698   3.677
   83HOH     H2  437   1.976   0.832   3.717
   84HOH      O  438   0.210   3.241   1.666
   84HOH     H1  439   0.151   3.251   1.741
   84HOH     H2  440   0.152   3.216   1.593
   85HOH      O  441   3.673   0.637   2.321
   85HOH     H1  442   3.634   0.621   2.235
   85HOH     H2  443   3.692   0.731   2.321
   86HOH      O  444   2.670   1.854   0.199
   86HOH     H1  445   2.749   1.888   0.241
   86HOH     H2  446   2.695   1.839   0.108
   87HOH      O  447   1.376   0.916  -0.025
   87HOH     H1  448   1.381   0.863   0.055
   87HOH     H2  449   1.434   0.990  -0.009
   88HOH      O  450   3.579   1.238   3.541
   88HOH     H1  451   3.571   1.269   3.451
   88HOH     H2  452   3.556   1.145   3.537
   89HOH      O  453   1.167   0.980   1.313
   89HOH     H1  454   1.127   0.960   1.398
   89HOH     H2  455   1.168   1.075   1.308
   90HOH      O  456   1.540   1.316   3.795
   90HOH     H1  457   1.467   1.255   3.801
   90HOH     H2  458   1.579   1.298   3.709
   91HOH      O  459   0.620   1.901   1.520
   91HOH     H1  460   0.665   1.817   1.529
   91HOH     H2  461   0.559   1.888   1.447
   92HOH      O  462   1.229   1.080   3.617
   92HOH     H1  463   1.258   1.079   3.709
   92HOH     H2  464   1.133   1.078   3.623
   93HOH      O  465   2.631   0.411   2.809
   93HOH     H1  466   2.599   0.501   2.821
   93HOH     H2  467   2.623   0.395   2.716
   94HOH      O  468   0.117   2.077   1.689
   94HOH     H1  469   0.170   2.122   1.754
   94HOH     H2  470   0.106   1.988   1.725
   95HOH      O  471   1.573   0.984   1.574
   95HOH     H1  472   1.506   0.971   1.641
   95HOH     H2  473   1.638   1.041   1.615
   96HOH      O  474   0.970   3.727   1.319
   96HOH     H1  475   1.002   3.643   1.351
   96HOH     H2  476   0.878   3.729   1.346
   97HOH      O  477   1.240   2.956   2.135
   97HOH     H1  478   1.195   3.008   2.202
   97HOH     H2  479   1.175   2.891   2.108
   98HOH      O  480   1.560   3.837   3.080
   98HOH     H1  481   1.633   3.776   3.094
   98HOH     H2  482   1.595   3.923   3.103
   99HOH      O  483   0.495   1.432   1.058
   99HOH     H1  484   0.441   1.373   1.110
   99HOH     H2  485   0.548   1.374   1.003
  100HOH      O  486   3.515   1.543   0.389
  100HOH     H1  487   3.472   1.561   0.472
  100HOH     H2  488   3.502   1.449   0.375
  101HOH      O  489   1.614   3.332   0.667
  101HOH     H1  490   1.705   3.358   0.683
  101HOH     H2  491   1.621   3.259   0.606
  102HOH      O  492   3.031   1.096   1.806
  102HOH     H1  493   3.084   1.053   1.739
  102HOH     H2  494   3.047   1.189   1.794
  103HOH      O  495   2.217   0.002   3.963
  103HOH     H1  496   2.193   0.094   3.965
  103HOH     H2  497   2.311   0.001   3.981
  104HOH      O  498   2.763   0.566   0.176
  104HOH     H1  499   2.842   0.525   0.210
  104HOH     H2  500   2.790   0.655   0.153
  105HOH      O  501   1.207   2.377   0.863
  105HOH     H1  502   1.289   2.402   0.906
  105HOH     H2  503   1.144   2.371   0.934
  106HOH      O  504   2.332   1.468   2.909
  106HOH     H1  505   2.274   1.544   2.914
  106HOH     H2  506   2.312   1.418   2.989
  107HOH      O  507   3.159   2.665   2.102
  107HOH     H1  508   3.152   2.742   2.159
  107HOH     H2  509   3.093   2.680   2.034
  108HOH      O  510   2.063   1.654   3.806
  108HOH     H1  511   2.082   1.726   3.747
  108HOH     H2  512   2.034   1.583   3.749
  109HOH      O  513   3.761   2.566   0.778
  109HOH     H1  514   3.673   2.585   0.808
  109HOH     H2  515   3.756   2.569   0.682
  110HOH      O  516   3.486   3.388   1.743
  110HOH     H1  517   3.418   3.354   1.685
  110HOH     H2  518   3.438   3.418   1.821
  111HOH      O  519   2.959   3.945   1.737
  111HOH     H1  520   3.027   3.919   1.674
  111HOH     H2  521   2.882   3.893   1.713
  112HOH      O  522   2.785   0.699   0.585
  112HOH     H1  523   2.794   0.634   0.516
  112HOH     H2  524   2.870   0.744   0.587
  113HOH      O  525   1.259   2.718   1.487
  113HOH     H1  526   1.231   2.806   1.460
  113HOH     H2  527   1.232   2.711   1.578
  114HOH      O  528   0.112   1.863   1.876
  114HOH     H1  529   0.090   1.780   1.835
  114HOH     H2  530   0.180   1.841   1.941
  115HOH      O  531   2.010   0.695   1.094
  115HOH     H1  532   2.093   0.660   1.125
  115HOH     H2  533   2.026   0.720   1.003
  116HOH      O  534   1.555   1.590   3.798
  116HOH     H1  535   1.539   1.495   3.796
  116HOH     H2  536   1.468   1.628   3.798
  117HOH      O  537   2.505   0.475   1.265
  117HOH     H1  538   2.441   0.465   1.336
  117HOH     H2  539   2.580   0.423   1.293
  118HOH      O  540   2.485   1.027   3.428
  118HOH     H1  541   2.476   1.077   3.509
  118HOH     H2  542   2.426   0.953   3.439
  119HOH      O  543   1.163   0.050   3.057
  119HOH     H1  544   1.219   0.007   2.993
  119HOH     H2  545   1.214   0.125   3.087
  120HOH      O  546   1.256   2.693   3.077
  120HOH     H1  547   1.322   2.651   3.133
  120HOH     H2  548   1.215   2.758   3.133
  121HOH      O  549   2.359   2.277   2.177
  121HOH     H1  550   2.292   2.250   2.115
  121HOH     H2  551   2.317   2.345   2.230
  122HOH      O  552   3.928   1.753   2.052
  122HOH     H1  553   3.966   1.744   2.140
  122HOH     H2  554   3.990   1.809   2.005
  123HOH      O  555   3.380   3.707   0.944
  123HOH     H1  556   3.431   3.664   0.875
  123HOH     H2  557   3.304   3.744   0.899
  124HOH      O  558   2.491   3.642   0.013
  124HOH     H1  559   2.404   3.628   0.051
  124HOH     H2  560   2.519   3.555  -0.015
  125HOH      O  561   1.512   2.907   2.061
  125HOH     H1  562   1.538   2.870   2.145
  125HOH     H2  563   1.434   2.959   2.080
  126HOH      O  564   2.556   0.886   0.661
  126HOH     H1  565   2.638   0.846   0.633
  126HOH     H2  566   2.582   0.972   0.695
  127HOH      O  567   1.954   1.019   1.518
  127HOH     H1  568   2.029   1.078   1.517
  127HOH     H2  569   1.950   0.984   1.429
  128HOH      O  570   1.463   0.776   0.615
  128HOH     H1  571   1.527   0.734   0.673
  128HOH     H2  572   1.452   0.715   0.543
  129HOH      O  573   2.184   3.323   0.821
  129HOH     H1  574   2.171   3.314   0.727
  129HOH     H2  575   2.221   3.239   0.848
  130HOH      O  576   2.821   3.965   0.911
  130HOH     H1  577   2.873   3.969   0.830
  130HOH     H2  578   2.881   3.931   0.977
  131HOH      O  579   3.438   0.674   3.616
  131HOH     H1  580   3.359   0.673   3.670
  131HOH     H2  581   3.408   0.646   3.530
  132HOH      O  582   0.818   0.220   3.264
  132HOH     H1  583   0.872   0.141   3.264
  132HOH     H2  584   0.873   0.286   3.307
  133HOH      O  585   0.442   1.775   1.287
  133HOH     H1  586   0.490   1.801   1.209
  133HOH     H2  587   0.425   1.681   1.274
  134HOH      O  588   0.638   0.743   1.020
  134HOH     H1  589   0.699   0.814   1.040
  134HOH     H2  590   0.553   0.777   1.046
  135HOH      O  591   0.459   3.424   1.646
  135HOH     H1  592   0.453   3.448   1.739
  135HOH     H2  593   0.382   3.369   1.630
  136HOH      O  594   3.506   2.936   1.224
  136HOH     H1  595   3.597   2.906   1.227
  136HOH     H2  596   3.511   3.029   1.246
  137HOH      O  597   0.580   1.280   3.488
  137HOH     H1  598   0.530   1.341   3.542
  137HOH     H2  599   0.665   1.322   3.477
  138HOH      O  600   0.703   0.313   4.043
  138HOH     H1  601   0.747   0.238   4.003
  138HOH     H2  602   0.636   0.338   3.980
  139HOH      O  603   0.245   0.553   2.947
  139HOH     H1  604   0.199   0.635   2.932
  139HOH     H2  605   0.286   0.564   3.033
  140HOH      O  606   0.235   3.224   3.992
  140HOH     H1  607   0.160   3.172   3.964
  140HOH     H2  608   0.283   3.167   4.052
  141HOH      O  609   1.734   3.829   3.439
  141HOH     H1  610   1.718   3.747   3.392
  141HOH     H2  611   1.657   3.841   3.495
  142HOH      O  612   1.561   0.407   3.112
  142HOH     H1  613   1.640   0.365   3.148
  142HOH     H2  614   1.550   0.486   3.165
  143HOH      O  615   2.257   2.869   3.103
  143HOH     H1  616   2.276   2.836   3.015
  143HOH     H2  617   2.324   2.935   3.119
  144HOH      O  618   1.804   1.331   3.902
  144HOH     H1  619   1.820   1.239   3.926
  144HOH     H2  620   1.719   1.329   3.858
  145HOH      O  621   2.406   1.883   2.067
  145HOH     H1  622   2.334   1.943   2.045
  145HOH     H2  623   2.446   1.921   2.145
  146HOH      O  624   0.554   2.211   3.722
  146HOH     H1  625   0.619   2.248   3.661
  146HOH     H2  626   0.607   2.178   3.795
  147HOH      O  627   1.290   0.760   2.055
  147HOH     H1  628   1.320   0.740   2.144
  147HOH     H2  629   1.207   0.805   2.067
  148HOH      O  630   3.952   1.841   3.228
  148HOH     H1  631   3.934   1.763   3.176
  148HOH     H2  632   3.953   1.912   3.164
  149HOH      O  633   1.073   0.893   2.085
  149HOH     H1  634   1.074   0.969   2.026
  149HOH     H2  635   0.985   0.858   2.077
  150HOH      O  636   3.060   2.130   0.202
  150HOH     H1  637   3.107   2.051   0.228
  150HOH     H2  638   2.999   2.147   0.274
  151HOH      O  639   3.746   0.959   0.988
  151HOH     H1  640   3.674   1.020   0.978
  151HOH     H2  641   3.814   1.009   1.034
  152HOH      O  642   0.594   2.598   1.369
  152HOH     H1  643   0.606   2.505   1.353
  152HOH     H2  644   0.667   2.641   1.324
  153HOH      O  645   1.589   3.102   3.104
  153HOH     H1  646   1.513   3.069   3.057
  153HOH     H2  647   1.553   3.156   3.174
  154HOH      O  648   3.819   1.253   0.414
  154HOH     H1  649   3.909   1.222   0.401
  154HOH     H2  650   3.798   1.229   0.504
  155HOH      O  651   3.892   1.001   3.373
  155HOH     H1  652   3.938   0.926   3.409
  155HOH     H2  653   3.897   1.067   3.443
  156HOH      O  654   3.100   1.908   0.810
  156HOH     H1  655   3.145   1.940   0.888
  156HOH     H2  656   3.093   1.985   0.753
  157HOH      O  657   0.830   2.818   0.971
  157HOH     H1  658   0.898   2.845   1.031
  157HOH     H2  659   0.871   2.752   0.915
  158HOH      O  660   1.994   1.787   1.539
  158HOH     H1  661   1.900   1.803   1.529
  158HOH     H2  662   2.004   1.693   1.523
  159HOH      O  663   2.496   2.611   1.995
  159HOH     H1  664   2.559   2.608   2.067
  159HOH     H2  665   2.525   2.683   1.940
  160HOH      O  666   2.100   3.496   1.014
  160HOH     H1  667   2.139   3.415   0.982
  160HOH     H2  668   2.172   3.544   1.055
  161HOH      O  669   1.449   2.956   1.259
  161HOH     H1  670   1.499   3.029   1.295
  161HOH     H2  671   1.510   2.912   1.200
  162HOH      O  672   2.587   2.070   1.899
  162HOH     H1  673   2.545   2.064   1.813
  162HOH     H2  674   2.548   1.998   1.949
  163HOH      O  675   2.298   1.632   4.012
  163HOH     H1  676   2.319   1.544   4.045
  163HOH     H2  677   2.255   1.617   3.928
  164HOH      O  678   2.073   0.277   0.205
  164HOH     H1  679   2.066   0.261   0.110
  164HOH     H2  680   2.167   0.270   0.223
  165HOH      O  681   2.300   1.152   0.552
  165HOH     H1  682   2.237   1.222   0.538
  165HOH     H2  683   2.345   1.142   0.468
  166HOH      O  684   3.060   1.888   1.526
  166HOH     H1  685   3.007   1.811   1.546
  166HOH     H2  686   3.000   1.962   1.537
  167HOH      O  687   1.572   2.966   0.185
  167HOH     H1  688   1.627   2.954   0.108
  167HOH     H2  689   1.633   2.963   0.259
  168HOH      O  690   3.176   2.676   2.483
  168HOH     H1  691   3.186   2.728   2.564
  168HOH     H2  692   3.187   2.585   2.511
  169HOH      O  693   0.502   3.170   3.135
  169HOH     H1  694   0.539   3.180   3.047
  169HOH     H2  695   0.578   3.153   3.190
  170HOH      O  696   3.559   0.669   0.167
  170HOH     H1  697   3.473   0.666   0.124
  170HOH     H2  698   3.546   0.725   0.243
  171HOH      O  699   0.283   0.670   0.718
  171HOH     H1  700   0.371   0.697   0.746
  171HOH     H2  701   0.275   0.703   0.629
  172HOH      O  702   2.299   1.452   3.644
  172HOH     H1  703   2.336   1.532   3.681
  172HOH     H2  704   2.295   1.469   3.550
  173HOH      O  705   3.735   0.048   1.421
  173HOH     H1  706   3.708  -0.034   1.380
  173HOH     H2  707   3.653   0.090   1.447
  174HOH      O  708   2.946   2.367   1.869
  174HOH     H1  709   3.011   2.427   1.832
  174HOH     H2  710   2.892   2.343   1.794
  175HOH      O  711   1.525   1.125   0.035
  175HOH     H1  712   1.618   1.106   0.021
  175HOH     H2  713   1.521   1.221   0.040
  176HOH      O  714   0.137   2.487   2.178
  176HOH     H1  715   0.167   2.506   2.267
  176HOH     H2  716   0.120   2.393   2.177
  177HOH      O  717   1.065   1.763   2.129
  177HOH     H1  718   1.013   1.714   2.192
  177HOH     H2  719   1.002   1.823   2.088
  178HOH      O  720   1.231   2.976   3.231
  178HOH     H1  721   1.260   2.958   3.321
  178HOH     H2  722   1.157   3.035   3.241
  179HOH      O  723   1.381   1.446   1.414
  179HOH     H1  724   1.471   1.429   1.386
  179HOH     H2  725   1.376   1.409   1.502
  180HOH      O  726   0.310   0.603   2.617
  180HOH     H1  727   0.315   0.610   2.712
  180HOH     H2  728   0.377   0.664   2.585
  181HOH      O  729   2.306   1.371   0.040
  181HOH     H1  730   2.305   1.382   0.135
  181HOH     H2  731   2.224   1.325   0.020
  182HOH      O  732   1.389   2.719   0.836
  182HOH     H1  733   1.375   2.671   0.755
  182HOH     H2  734   1.409   2.808   0.807
  183HOH      O  735   3.680   1.876   1.105
  183HOH     H1  736   3.732   1.956   1.108
  183HOH     H2  737   3.706   1.832   1.024
  184HOH      O  738   0.615   0.460   1.868
  184HOH     H1  739   0.616   0.482   1.961
  184HOH     H2  740   0.643   0.540   1.824
  185HOH      O  741   1.430   3.718   1.568
  185HOH     H1  742   1.499   3.730   1.633
  185HOH     H2  743   1.358   3.676   1.616
  186HOH      O  744   3.808   2.997   2.026
  186HOH     H1  745   3.800   2.907   2.056
  186HOH     H2  746   3.900   3.007   2.003
  187HOH      O  747   0.574   0.322   3.462
  187HOH     H1  748   0.486   0.358   3.457
  187HOH     H2  749   0.561   0.228   3.474
  188HOH      O  750   0.170   0.295   2.238
  188HOH     H1  751   0.209   0.294   2.326
  188HOH     H2  752   0.244   0.312   2.180
  189HOH      O  753   2.771   1.372   3.268
  189HOH     H1  754   2.731   1.301   3.318
  189HOH     H2  755   2.865   1.359   3.279
  190HOH      O  756   2.183   0.825   0.176
  190HOH     H1  757   2.257   0.841   0.117
  190HOH     H2  758   2.180   0.730   0.185
  191HOH      O  759   0.886   2.461   0.120
  191HOH     H1  760   0.964   2.406   0.118
  191HOH     H2  761   0.843   2.446   0.036
  192HOH      O  762   1.045   2.013   3.670
  192HOH     H1  763   1.094   2.087   3.634
  192HOH     H2  764   1.059   2.018   3.764
  193HOH      O  765   2.191   2.886   3.761
  193HOH     H1  766   2.211   2.798   3.793
  193HOH     H2  767   2.235   2.891   3.676
  194HOH      O  768   1.532   3.578   0.760
  194HOH     H1  769   1.439   3.576   0.782
  194HOH     H2  770   1.550   3.491   0.724
  195HOH      O  771   3.152   1.296   3.509
  195HOH     H1  772   3.213   1.369   3.519
  195HOH     H2  773   3.202   1.220   3.538
  196HOH      O  774   1.392   1.842   2.360
  196HOH     H1  775   1.440   1.808   2.436
  196HOH     H2  776   1.310   1.794   2.359
  197HOH      O  777   2.394   3.750   0.800
  197HOH     H1  778   2.432   3.684   0.742
  197HOH     H2  779   2.345   3.700   0.865
  198HOH      O  780   1.805   1.900   3.577
  198HOH     H1  781   1.893   1.863   3.586
  198HOH     H2  782   1.809   1.983   3.624
  199HOH      O  783   2.473   0.639   0.253
  199HOH     H1  784   2.515   0.631   0.168
  199HOH     H2  785   2.483   0.731   0.277
  200HOH      O  786   2.550   3.945   0.916
  200HOH     H1  787   2.640   3.945   0.884
  200HOH     H2  788   2.499   3.909   0.843
  201HOH      O  789   2.400   3.805   0.327
  201HOH     H1  790   2.478   3.859   0.342
  201HOH     H2  791   2.350   3.813   0.408
  202HOH      O  792   1.499   3.752   3.781
  202HOH     H1  793   1.423   3.701   3.808
  202HOH     H2  794   1.480   3.777   3.690
  203HOH      O  795   1.063   0.184   0.806
  203HOH     H1  796   1.101   0.225   0.883
  203HOH     H2  797   1.030   0.100   0.838
  204HOH      O  798   3.004   1.045   3.305
  204HOH     H1  799   3.008   0.952   3.283
  204HOH     H2  800   2.924   1.077   3.263
  205HOH      O  801   3.564   3.200   2.627
  205HOH     H1  802   3.613   3.133   2.580
  205HOH     H2  803   3.484   3.156   2.655
  206HOH      O  804   1.673   1.582   1.217
  206HOH     H1  805   1.674   1.552   1.126
  206HOH     H2  806   1.657   1.503   1.268
  207HOH      O  807   1.396   0.732   2.316
  207HOH     H1  808   1.440   0.648   2.304
  207HOH     H2  809   1.338   0.718   2.391
  208HOH      O  810   2.704   0.786   1.400
  208HOH     H1  811   2.697   0.702   1.444
  208HOH     H2  812   2.762   0.838   1.455
  209HOH      O  813   1.526   0.521   0.930
  209HOH     H1  814   1.438   0.484   0.922
  209HOH     H2  815   1.562   0.480   1.008
  210HOH      O  816   1.960   2.069   2.778
  210HOH     H1  817   2.039   2.101   2.821
  210HOH     H2  818   1.904   2.041   2.850
  211HOH      O  819   0.030   2.128   0.302
  211HOH     H1  820   0.114   2.169   0.282
  211HOH     H2  821  -0.023   2.142   0.223
  212HOH      O  822   3.245   3.359   1.609
  212HOH     H1  823   3.200   3.275   1.616
  212HOH     H2  824   3.226   3.389   1.520
  213HOH      O  825   1.184   3.327   3.337
  213HOH     H1  826   1.207   3.419   3.326
  213HOH     H2  827   1.133   3.306   3.258
  214HOH      O  828   1.931   1.562   2.627
  214HOH     H1  829   1.854   1.606   2.593
  214HOH     H2  830   1.994   1.565   2.554
  215HOH      O  831   3.672   0.127   2.969
  215HOH     H1  832   3.764   0.107   2.980
  215HOH     H2  833   3.650   0.184   3.043
  216HOH      O  834   2.343   2.583   2.857
  216HOH     H1  835   2.408   2.542   2.800
  216HOH     H2  836   2.357   2.677   2.846
  217HOH      O  837   0.141   1.035   0.568
  217HOH     H1  838   0.093   0.954   0.551
  217HOH     H2  839   0.095   1.101   0.518
  218HOH      O  840   2.067   3.884   0.109
  218HOH     H1  841   2.061   3.941   0.186
  218HOH     H2  842   2.103   3.940   0.040
  219HOH      O  843   0.834   3.332   3.408
  219HOH     H1  844   0.874   3.323   3.322
  219HOH     H2  845   0.869   3.414   3.443
  220HOH      O  846   3.773   0.313   3.800
  220HOH     H1  847   3.758   0.322   3.894
  220HOH     H2  848   3.685   0.310   3.763
  221HOH      O  849   3.956   2.299   2.440
  221HOH     H1  850   3.921   2.388   2.448
  221HOH     H2  851   4.019   2.292   2.512
  222HOH      O  852   2.440   3.870   1.479
  222HOH     H1  853   2.428   3.965   1.479
  222HOH     H2  854   2.495   3.853   1.556
  223HOH      O  855   1.810   3.678   2.584
  223HOH     H1  856   1.878   3.741   2.561
  223HOH     H2  857   1.857   3.610   2.634
  224HOH      O  858   3.585   0.598   3.920
  224HOH     H1  859   3.517   0.648   3.965
  224HOH     H2  860   3.631   0.551   3.989
  225HOH      O  861   2.021   3.089   0.181
  225HOH     H1  862   1.974   3.062   0.102
  225HOH     H2  863   2.016   3.185   0.180
  226HOH      O  864   2.240  -0.002   3.099
  226HOH     H1  865   2.328   0.034   3.086
  226HOH     H2  866   2.186   0.073   3.124
  227HOH      O  867   0.805   0.828   3.028
  227HOH     H1  868   0.752   0.750   3.016
  227HOH     H2  869   0.781   0.860   3.115
  228HOH      O  870   0.512   0.127   2.293
  228HOH     H1  871   0.448   0.184   2.251
  228HOH     H2  872   0.498   0.140   2.387
  229HOH      O  873   1.367   0.138   1.841
  229HOH     H1  874   1.317   0.075   1.790
  229HOH     H2  875   1.385   0.210   1.780
  230HOH      O  876   2.277   3.828   0.563
  230HOH     H1  877   2.197   3.818   0.615
  230HOH     H2  878   2.348   3.804   0.623
  231HOH      O  879   3.206   0.764   1.162
  231HOH     H1  880   3.155   0.737   1.085
  231HOH     H2  881   3.295   0.777   1.129
  232HOH      O  882   1.056   3.988   1.293
  232HOH     H1  883   1.012   3.908   1.321
  232HOH     H2  884   1.126   4.001   1.357
  233HOH      O  885   3.922   3.486   3.238
  233HOH     H1  886   3.904   3.394   3.223
  233HOH     H2  887   3.961   3.517   3.156
  234HOH      O  888   2.392   3.437   1.867
  234HOH     H1  889   2.414   3.515   1.917
  234HOH     H2  890   2.330   3.389   1.922
  235HOH      O  891   3.899   2.986   0.871
  235HOH     H1  892   3.840   3.022   0.805
  235HOH     H2  893   3.875   3.032   0.952
  236HOH      O  894   2.637   3.467   2.285
  236HOH     H1  895   2.678   3.498   2.366
  236HOH     H2  896   2.550   3.506   2.286
  237HOH      O  897   1.907   0.714   0.416
  237HOH     H1  898   1.978   0.743   0.359
  237HOH     H2  899   1.937   0.630   0.451
  238HOH      O  900   3.972   2.989   3.483
  238HOH     H1  901   3.991   2.902   3.521
  238HOH     H2  902   3.920   3.033   3.550
  239HOH      O  903   1.563   2.940   1.576
  239HOH     H1  904   1.508   2.939   1.497
  239HOH     H2  905   1.501   2.949   1.648
  240HOH      O  906   0.894   3.808   0.258
  240HOH     H1  907   0.948   3.732   0.237
  240HOH     H2  908   0.946   3.856   0.323
  241HOH      O  909   2.882   3.912   2.918
  241HOH     H1  910   2.917   3.843   2.861
  241HOH     H2  911   2.946   3.918   2.989
  242HOH      O  912   3.179   0.388   1.153
  242HOH     H1  913   3.091   0.401   1.188
  242HOH     H2  914   3.166   0.376   1.059
  243HOH      O  915   2.969   3.974   2.045
  243HOH     H1  916   2.966   3.887   2.085
  243HOH     H2  917   2.939   3.960   1.956
  244HOH      O  918   2.093   0.546   3.879
  244HOH     H1  919   2.091   0.568   3.972
  244HOH     H2  920   2.037   0.611   3.837
  245HOH      O  921   3.694   1.562   3.393
  245HOH     H1  922   3.767   1.501   3.385
  245HOH     H2  923   3.618   1.513   3.360
  246HOH      O  924   2.857   3.385   0.641
  246HOH     H1  925   2.935   3.370   0.588
  246HOH     H2  926   2.785   3.352   0.587
  247HOH      O  927   0.075   1.923   2.785
  247HOH     H1  928  -0.003   1.935   2.838
  247HOH     H2  929   0.144   1.902   2.849
  248HOH      O  930   2.894   0.513   1.248
  248HOH     H1  931   2.836   0.549   1.181
  248HOH     H2  932   2.862   0.552   1.330
  249HOH      O  933   3.804   0.728   1.720
  249HOH     H1  934   3.851   0.673   1.657
  249HOH     H2  935   3.850   0.713   1.803
  250HOH      O  936   2.416   0.819   1.884
  250HOH     H1  937   2.507   0.793   1.867
  250HOH     H2  938   2.423   0.897   1.939
  251HOH      O  939   1.818   3.783   0.475
  251HOH     H1  940   1.854   3.870   0.462
  251HOH     H2  941   1.796   3.780   0.569
  252HOH      O  942   2.007   1.409   3.684
  252HOH     H1  943   2.001   1.340   3.751
  252HOH     H2  944   2.096   1.442   3.693
  253HOH      O  945   1.035   2.397   1.069
  253HOH     H1  946   1.096   2.434   1.133
  253HOH     H2  947   0.974   2.346   1.121
  254HOH      O  948   3.968   0.801   0.500
  254HOH     H1  949   4.004   0.746   0.431
  254HOH     H2  950   3.951   0.741   0.572
  255HOH      O  951   1.451   0.951   0.393
  255HOH     H1  952   1.491   0.877   0.346
  255HOH     H2  953   1.421   0.914   0.476
  256HOH      O  954   0.653   1.145   3.168
  256HOH     H1  955   0.704   1.115   3.093
  256HOH     H2  956   0.718   1.170   3.233
  257HOH      O  957   2.787   3.378   1.583
  257HOH     H1  958   2.763   3.343   1.497
  257HOH     H2  959   2.707   3.420   1.615
  258HOH      O  960   0.166   1.550   1.920
  258HOH     H1  961   0.134   1.546   2.010
  258HOH     H2  962   0.234   1.483   1.916
  259HOH      O  963   2.914   0.916   0.995
  259HOH     H1  964   2.858   0.871   1.057
  259HOH     H2  965   2.972   0.848   0.960
  260HOH      O  966   3.007   3.946   2.541
  260HOH     H1  967   3.089   3.898   2.537
  260HOH     H2  968   3.011   4.008   2.468
  261HOH      O  969   1.916   3.942   2.932
  261HOH     H1  970   1.934   4.029   2.898
  261HOH     H2  971   1.948   3.883   2.864
  262HOH      O  972   1.183   3.979   2.385
  262HOH     H1  973   1.222   3.915   2.326
  262HOH     H2  974   1.240   4.056   2.378
  263HOH      O  975   1.951   1.839   0.569
  263HOH     H1  976   1.906   1.922   0.550
  263HOH     H2  977   2.004   1.858   0.646
  264HOH      O  978   1.083   3.193   0.899
  264HOH     H1  979   1.041   3.236   0.974
  264HOH     H2  980   1.160   3.151   0.935
  265HOH      O  981   2.099   2.763   0.411
  265HOH     H1  982   2.052   2.750   0.329
  265HOH     H2  983   2.162   2.691   0.415
  266HOH      O  984   3.053   0.067   2.295
  266HOH     H1  985   3.013   0.031   2.217
  266HOH     H2  986   3.142   0.092   2.267
  267HOH      O  987   0.248   3.444   2.764
  267HOH     H1  988   0.183   3.513   2.776
  267HOH     H2  989   0.254   3.433   2.669
  268HOH      O  990   0.733   3.781   3.590
  268HOH     H1  991   0.655   3.766   3.538
  268HOH     H2  992   0.700   3.805   3.677
  269HOH      O  993   3.490   1.272   0.378
  269HOH     H1  994   3.480   1.222   0.460
  269HOH     H2  995   3.458   1.212   0.310
  270HOH      O  996   3.046   3.764   0.994
  270HOH     H1  997   3.115   3.771   1.060
  270HOH     H2  998   3.093   3.756   0.911
  271HOH      O  999   3.328   1.564   3.484
  271HOH     H1 1000   3.342   1.554   3.389
  271HOH     H2 1001   3.351   1.655   3.502
  272HOH      O 1002   0.629   2.442   3.954
  272HOH     H1 1003   0.580   2.362   3.936
  272HOH     H2 1004   0.650   2.477   3.868
  273HOH      O 1005   3.575   1.602   0.922
  273HOH     H1 1006   3.661   1.644   0.915
  273HOH     H2 1007   3.521   1.648   0.858
  274HOH      O 1008   2.598   1.911   1.032
  274HOH     H1 1009   2.586   1.837   1.092
  274HOH     H2 1010   2.663   1.966   1.077
  275HOH      O 1011   3.457   2.067   1.190
  275HOH     H1 1012   3.395   2.014   1.241
  275HOH     H2 1013   3.532   2.009   1.176
  276HOH      O 1014   3.707   2.576   1.311
  276HOH     H1 1015   3.781   2.635   1.299
  276HOH     H2 1016   3.729   2.498   1.260
  277HOH      O 1017   1.448   1.909   1.434
  277HOH     H1 1018   1.467   1.958   1.513
  277HOH     H2 1019   1.493   1.957   1.364
  278HOH      O 1020   1.144   3.173   2.255
  278HOH     H1 1021   1.137   3.220   2.171
  278HOH     H2 1022   1.221   3.211   2.297
  279HOH      O 1023   0.294   1.800   3.291
  279HOH     H1 1024   0.377   1.759   3.316
  279HOH     H2 1025   0.302   1.814   3.197
  280HOH      O 1026   2.315   0.459   1.448
  280HOH     H1 1027   2.367   0.471   1.528
  280HOH     H2 1028   2.262   0.381   1.466
  281HOH      O 1029   3.669   1.032   3.854
  281HOH     H1 1030   3.704   0.954   3.897
  281HOH     H2 1031   3.732   1.101   3.872
  282HOH      O 1032   3.477   1.661   2.403
  282HOH     H1 1033   3.538   1.730   2.377
  282HOH     H2 1034   3.507   1.635   2.490
  283HOH      O 1035   1.114   1.180   0.303
  283HOH     H1 1036   1.085   1.201   0.214
  283HOH     H2 1037   1.208   1.195   0.301
  284HOH      O 1038   3.194   1.295   3.039
  284HOH     H1 1039   3.130   1.346   2.990
  284HOH     H2 1040   3.230   1.233   2.975
  285HOH      O 1041   2.398   1.958   3.831
  285HOH     H1 1042   2.476   1.983   3.879
  285HOH     H2 1043   2.326   2.005   3.873
  286HOH      O 1044   2.838   2.977   1.949
  286HOH     H1 1045   2.871   3.030   1.877
  286HOH     H2 1046   2.882   3.012   2.027
  287HOH      O 1047   0.053   2.811   3.898
  287HOH     H1 1048   0.065   2.905   3.884
  287HOH     H2 1049   0.024   2.803   3.989
  288HOH      O 1050   0.802   3.591   0.806
  288HOH     H1 1051   0.801   3.645   0.885
  288HOH     H2 1052   0.766   3.506   0.834
  289HOH      O 1053   1.082   1.247   3.319
  289HOH     H1 1054   1.033   1.186   3.374
  289HOH     H2 1055   1.152   1.280   3.376
  290HOH      O 1056   3.492   0.151   1.484
  290HOH     H1 1057   3.413   0.116   1.526
  290HOH     H2 1058   3.494   0.243   1.512
  291HOH      O 1059   2.826   2.278   2.298
  291HOH     H1 1060   2.758   2.299   2.363
  291HOH     H2 1061   2.778   2.271   2.216
  292HOH      O 1062   3.511   0.151   0.599
  292HOH     H1 1063   3.415   0.150   0.606
  292HOH     H2 1064   3.537   0.233   0.643
  293HOH      O 1065   3.693   1.160   1.521
  293HOH     H1 1066   3.624   1.170   1.586
  293HOH     H2 1067   3.688   1.068   1.494
  294HOH      O 1068   3.717   0.279   3.194
  294HOH     H1 1069   3.718   0.323   3.280
  294HOH     H2 1070   3.802   0.237   3.187
  295HOH      O 1071   2.427   1.749   0.660
  295HOH     H1 1072   2.412   1.808   0.733
  295HOH     H2 1073   2.368   1.779   0.591
  296HOH      O 1074   2.398   2.915   1.900
  296HOH     H1 1075   2.479   2.943   1.943
  296HOH     H2 1076   2.334   2.909   1.971
  297HOH      O 1077   0.185   0.341   0.375
  297HOH     H1 1078   0.197   0.381   0.462
  297HOH     H2 1079   0.217   0.252   0.386
  298HOH      O 1080   0.576   3.381   3.336
  298HOH     H1 1081   0.625   3.463   3.327
  298HOH     H2 1082   0.641   3.317   3.366
  299HOH      O 1083   0.699   0.543   3.789
  299HOH     H1 1084   0.711   0.455   3.753
  299HOH     H2 1085   0.756   0.546   3.865
  300HOH      O 1086   0.449   2.942   2.270
  300HOH     H1 1087   0.491   2.996   2.337
  300HOH     H2 1088   0.375   2.901   2.316
  301HOH      O 1089   3.326   0.133   3.524
  301HOH     H1 1090   3.377   0.213   3.519
  301HOH     H2 1091   3.246   0.152   3.475
  302HOH      O 1092   2.494   1.013   1.440
  302HOH     H1 1093   2.537   0.927   1.446
  302HOH     H2 1094   2.475   1.036   1.531
  303HOH      O 1095   0.005   3.740   0.956
  303HOH     H1 1096  -0.037   3.749   0.871
  303HOH     H2 1097   0.091   3.702   0.937
  304HOH      O 1098   1.023   0.593   0.956
  304HOH     H1 1099   1.118   0.590   0.964
  304HOH     H2 1100   1.004   0.551   0.872
  305HOH      O 1101   0.602   3.326   0.485
  305HOH     H1 1102   0.595   3.414   0.523
  305HOH     H2 1103   0.531   3.323   0.420
  306HOH      O 1104   3.969   3.527   0.316
  306HOH     H1 1105   4.023   3.554   0.391
  306HOH     H2 1106   3.930   3.609   0.285
  307HOH      O 1107   3.689   0.644   3.230
  307HOH     H1 1108   3.781   0.625   3.247
  307HOH     H2 1109   3.680   0.737   3.248
  308HOH      O 1110   0.737   0.401   2.349
  308HOH     H1 1111   0.786   0.346   2.410
  308HOH     H2 1112   0.804   0.452   2.303
  309HOH      O 1113   3.463   2.121   0.467
  309HOH     H1 1114   3.369   2.129   0.487
  309HOH     H2 1115   3.497   2.062   0.534
  310HOH      O 1116   0.419   3.771   0.985
  310HOH     H1 1117   0.483   3.768   0.914
  310HOH     H2 1118   0.398   3.864   0.994
  311HOH      O 1119   0.628   1.882   3.379
  311HOH     H1 1120   0.594   1.951   3.321
  311HOH     H2 1121   0.668   1.930   3.451
  312HOH      O 1122   0.736   2.779   3.909
  312HOH     H1 1123   0.768   2.857   3.864
  312HOH     H2 1124   0.780   2.706   3.866
  313HOH      O 1125   0.305   1.506   0.252
  313HOH     H1 1126   0.215   1.534   0.237
  313HOH     H2 1127   0.302   1.459   0.336
  314HOH      O 1128   1.505   1.948   0.036
  314HOH     H1 1129   1.554   1.878  -0.007
  314HOH     H2 1130   1.458   1.905   0.107
  315HOH      O 1131   3.640   2.455   0.238
  315HOH     H1 1132   3.604   2.368   0.220
  315HOH     H2 1133   3.598   2.512   0.175
  316HOH      O 1134   1.944   2.931   3.483
  316HOH     H1 1135   2.038   2.922   3.466
  316HOH     H2 1136   1.911   2.984   3.411
  317HOH      O 1137   1.354   2.408   2.835
  317HOH     H1 1138   1.327   2.346   2.903
  317HOH     H2 1139   1.290   2.480   2.842
  318HOH      O 1140   1.758   0.565   2.766
  318HOH     H1 1141   1.685   0.565   2.704
  318HOH     H2 1142   1.741   0.490   2.823
  319HOH      O 1143   0.622   3.861   3.111
  319HOH     H1 1144   0.619   3.802   3.036
  319HOH     H2 1145   0.617   3.804   3.188
  320HOH      O 1146   1.763   2.432   1.200
  320HOH     H1 1147   1.834   2.405   1.142
  320HOH     H2 1148   1.796   2.512   1.243
  321HOH      O 1149   0.456   1.922   1.037
  321HOH     H1 1150   0.377   1.956   1.080
  321HOH     H2 1151   0.434   1.832   1.014
  322HOH      O 1152   1.935   1.871   3.969
  322HOH     H1 1153   1.848   1.870   3.930
  322HOH     H2 1154   1.984   1.805   3.920
  323HOH      O 1155   2.699   3.627   2.996
  323HOH     H1 1156   2.737   3.680   2.925
  323HOH     H2 1157   2.751   3.546   2.996
  324HOH      O 1158   2.019   0.895   3.993
  324HOH     H1 1159   2.050   0.848   3.915
  324HOH     H2 1160   2.079   0.869   4.062
  325HOH      O 1161   0.487   0.687   0.292
  325HOH     H1 1162   0.546   0.620   0.259
  325HOH     H2 1163   0.454   0.731   0.214
  326HOH      O 1164   1.355   2.171   1.201
  326HOH     H1 1165   1.284   2.150   1.261
  326HOH     H2 1166   1.386   2.257   1.229
  327HOH      O 1167   0.124   1.112   1.112
  327HOH     H1 1168   0.115   1.039   1.051
  327HOH     H2 1169   0.044   1.108   1.165
  328HOH      O 1170   2.350   0.859   2.563
  328HOH     H1 1171   2.417   0.896   2.506
  328HOH     H2 1172   2.284   0.928   2.570
  329HOH      O 1173   3.735   3.841   2.520
  329HOH     H1 1174   3.823   3.876   2.533
  329HOH     H2 1175   3.679   3.897   2.574
  330HOH      O 1176   0.417   3.031   0.073
  330HOH     H1 1177   0.487   3.005   0.132
  330HOH     H2 1178   0.403   2.955   0.017
  331HOH      O 1179   0.686   3.739   2.429
  331HOH     H1 1180   0.680   3.834   2.435
  331HOH     H2 1181   0.662   3.719   2.339
  332HOH      O 1182   3.022   3.097   2.117
  332HOH     H1 1183   2.983   3.152   2.185
  332HOH     H2 1184   3.077   3.157   2.067
  333HOH      O 1185   3.955   1.706   3.914
  333HOH     H1 1186   3.948   1.758   3.834
  333HOH     H2 1187   4.005   1.629   3.888
  334HOH      O 1188   3.465   1.478   1.136
  334HOH     H1 1189   3.495   1.542   1.072
  334HOH     H2 1190   3.539   1.466   1.195
  335HOH      O 1191   2.210   3.607   3.472
  335HOH     H1 1192   2.295   3.590   3.432
  335HOH     H2 1193   2.205   3.543   3.543
  336HOH      O 1194   1.954   3.178   1.225
  336HOH     H1 1195   1.962   3.242   1.154
  336HOH     H2 1196   1.934   3.230   1.302
  337HOH      O 1197   2.359   0.896   3.145
  337HOH     H1 1198   2.302   0.855   3.079
  337HOH     H2 1199   2.328   0.987   3.150
  338HOH      O 1200   3.850   1.336   3.128
  338HOH     H1 1201   3.767   1.376   3.101
  338HOH     H2 1202   3.832   1.300   3.215
  339HOH      O 1203   1.017   0.228   3.922
  339HOH     H1 1204   0.949   0.161   3.917
  339HOH     H2 1205   1.098   0.179   3.936
  340HOH      O 1206   2.148   3.297   2.313
  340HOH     H1 1207   2.214   3.270   2.378
  340HOH     H2 1208   2.080   3.229   2.319
  341HOH      O 1209   1.021   1.999   3.980
  341HOH     H1 1210   1.115   1.978   3.976
  341HOH     H2 1211   1.011   2.049   4.061
  342HOH      O 1212   0.421   3.524   1.938
  342HOH     H1 1213   0.457   3.603   1.978
  342HOH     H2 1214   0.326   3.529   1.954
  343HOH      O 1215   2.707   3.814   2.124
  343HOH     H1 1216   2.737   3.888   2.070
  343HOH     H2 1217   2.702   3.849   2.212
  344HOH      O 1218   3.955   0.638   3.311
  344HOH     H1 1219   4.009   0.560   3.323
  344HOH     H2 1220   3.946   0.675   3.399
  345HOH      O 1221   2.743   1.066   3.767
  345HOH     H1 1222   2.824   1.089   3.721
  345HOH     H2 1223   2.704   0.996   3.715
  346HOH      O 1224   3.182   0.475   3.063
  346HOH     H1 1225   3.133   0.454   2.983
  346HOH     H2 1226   3.242   0.545   3.037
  347HOH      O 1227   2.792   0.348   3.015
  347HOH     H1 1228   2.729   0.372   2.946
  347HOH     H2 1229   2.765   0.401   3.091
  348HOH      O 1230   2.305   0.400   2.728
  348HOH     H1 1231   2.278   0.457   2.655
  348HOH     H2 1232   2.390   0.434   2.754
  349HOH      O 1233   1.787   2.900   1.211
  349HOH     H1 1234   1.854   2.968   1.203
  349HOH     H2 1235   1.812   2.850   1.288
  350HOH      O 1236   3.229   3.897   1.185
  350HOH     H1 1237   3.271   3.981   1.202
  350HOH     H2 1238   3.202   3.866   1.272
  351HOH      O 1239   0.062   2.064   0.580
  351HOH     H1 1240   0.008   2.133   0.618
  351HOH     H2 1241   0.069   2.087   0.487
  352HOH      O 1242   1.612   0.131   3.589
  352HOH     H1 1243   1.532   0.113   3.540
  352HOH     H2 1244   1.614   0.065   3.658
  353HOH      O 1245   0.022   2.663   1.501
  353HOH     H1 1246   0.116   2.674   1.487
  353HOH     H2 1247  -0.018   2.698   1.422
  354HOH      O 1248   3.670   1.076   2.084
  354HOH     H1 1249   3.640   1.004   2.029
  354HOH     H2 1250   3.608   1.147   2.068
  355HOH      O 1251   1.270   0.989   2.711
  355HOH     H1 1252   1.232   0.907   2.678
  355HOH     H2 1253   1.215   1.058   2.674
  356HOH      O 1254   1.387   0.189   2.455
  356HOH     H1 1255   1.348   0.264   2.412
  356HOH     H2 1256   1.385   0.211   2.548
  357HOH      O 1257   2.734   1.857   1.380
  357HOH     H1 1258   2.710   1.854   1.473
  357HOH     H2 1259   2.778   1.941   1.370
  358HOH      O 1260   0.782   2.123   3.057
  358HOH     H1 1261   0.688   2.141   3.067
  358HOH     H2 1262   0.816   2.123   3.146
  359HOH      O 1263   3.302   1.117   2.855
  359HOH     H1 1264   3.311   1.118   2.760
  359HOH     H2 1265   3.376   1.064   2.885
  360HOH      O 1266   1.330   3.334   0.101
  360HOH     H1 1267   1.319   3.239   0.103
  360HOH     H2 1268   1.307   3.362   0.190
  361HOH      O 1269   1.792   2.143   3.698
  361HOH     H1 1270   1.700   2.158   3.676
  361HOH     H2 1271   1.810   2.203   3.770
  362HOH      O 1272   0.638   4.004   2.676
  362HOH     H1 1273   0.714   3.964   2.719
  362HOH     H2 1274   0.666   4.094   2.660
  363HOH      O 1275   0.681   2.058   0.933
  363HOH     H1 1276   0.607   2.009   0.969
  363HOH     H2 1277   0.652   2.086   0.847
  364HOH      O 1278   1.242   3.548   2.233
  364HOH     H1 1279   1.263   3.529   2.141
  364HOH     H2 1280   1.288   3.480   2.282
  365HOH      O 1281   1.956   3.246   2.898
  365HOH     H1 1282   1.982   3.241   2.990
  365HOH     H2 1283   1.912   3.162   2.882
  366HOH      O 1284   3.525   2.187   3.991
  366HOH     H1 1285   3.543   2.165   4.083
  366HOH     H2 1286   3.436   2.220   3.992
  367HOH      O 1287   1.237   3.832   0.793
  367HOH     H1 1288   1.170   3.890   0.828
  367HOH     H2 1289   1.318   3.882   0.799
  368HOH      O 1290   2.230   1.820   2.455
  368HOH     H1 1291   2.302   1.858   2.506
  368HOH     H2 1292   2.165   1.795   2.521
  369HOH      O 1293   3.044   2.108   2.285
  369HOH     H1 1294   2.964   2.159   2.300
  369HOH     H2 1295   3.017   2.038   2.225
  370HOH      O 1296   3.235   3.410   1.129
  370HOH     H1 1297   3.314   3.454   1.097
  370HOH     H2 1298   3.209   3.352   1.058
  371HOH      O 1299   0.254   2.701   0.834
  371HOH     H1 1300   0.283   2.670   0.920
  371HOH     H2 1301   0.159   2.685   0.834
  372HOH      O 1302   0.546   0.027   0.667
  372HOH     H1 1303   0.629   0.072   0.656
  372HOH     H2 1304   0.480   0.097   0.665
  373HOH      O 1305   0.714   3.418   2.155
  373HOH     H1 1306   0.775   3.487   2.131
  373HOH     H2 1307   0.682   3.384   2.071
  374HOH      O 1308   3.671   1.167   2.873
  374HOH     H1 1309   3.627   1.227   2.933
  374HOH     H2 1310   3.634   1.081   2.893
  375HOH      O 1311   1.521   2.032   1.913
  375HOH     H1 1312   1.606   2.063   1.881
  375HOH     H2 1313   1.536   1.941   1.938
  376HOH      O 1314   3.252   0.749   2.839
  376HOH     H1 1315   3.220   0.816   2.899
  376HOH     H2 1316   3.312   0.795   2.780
  377HOH      O 1317   1.972   3.630   1.690
  377HOH     H1 1318   2.041   3.673   1.640
  377HOH     H2 1319   2.007   3.543   1.708
  378HOH      O 1320   3.097   3.800   1.506
  378HOH     H1 1321   3.179   3.774   1.548
  378HOH     H2 1322   3.048   3.719   1.496
  379HOH      O 1323   0.212   2.906   2.103
  379HOH     H1 1324   0.218   2.889   2.197
  379HOH     H2 1325   0.128   2.867   2.077
  380HOH      O 1326   3.617   1.328   1.339
  380HOH     H1 1327   3.526   1.299   1.334
  380HOH     H2 1328   3.656   1.272   1.406
  381HOH      O 1329   0.519   2.918   3.305
  381HOH     H1 1330   0.553   2.892   3.219
  381HOH     H2 1331   0.589   2.896   3.366
  382HOH      O 1332   3.129   0.495   1.501
  382HOH     H1 1333   3.206   0.502   1.445
  382HOH     H2 1334   3.103   0.403   1.495
  383HOH      O 1335   2.848   1.155   0.914
  383HOH     H1 1336   2.913   1.208   0.960
  383HOH     H2 1337   2.867   1.065   0.938
  384HOH      O 1338   2.685   2.804   1.779
  384HOH     H1 1339   2.674   2.872   1.845
  384HOH     H2 1340   2.727   2.849   1.706
  385HOH      O 1341   2.486   3.998   3.973
  385HOH     H1 1342   2.493   3.961   3.885
  385HOH     H2 1343   2.567   3.972   4.017
  386HOH      O 1344   1.733   0.909   2.891
  386HOH     H1 1345   1.663   0.965   2.858
  386HOH     H2 1346   1.691   0.825   2.906
  387HOH      O 1347   1.442   0.636   0.353
  387HOH     H1 1348   1.376   0.658   0.287
  387HOH     H2 1349   1.522   0.678   0.322
  388HOH      O 1350   3.936   3.620   2.304
  388HOH     H1 1351   3.927   3.675   2.226
  388HOH     H2 1352   3.847   3.596   2.327
  389HOH      O 1353   1.786   2.350   3.890
  389HOH     H1 1354   1.836   2.356   3.972
  389HOH     H2 1355   1.718   2.285   3.908
  390HOH      O 1356   1.193   2.974   3.509
  390HOH     H1 1357   1.175   3.065   3.531
  390HOH     H2 1358   1.282   2.958   3.542
  391HOH      O 1359   1.513   3.492   3.287
  391HOH     H1 1360   1.594   3.537   3.264
  391HOH     H2 1361   1.542   3.411   3.328
  392HOH      O 1362   1.886   1.403   1.759
  392HOH     H1 1363   1.798   1.396   1.797
  392HOH     H2 1364   1.942   1.422   1.834
  393HOH      O 1365   2.262   1.630   1.697
  393HOH     H1 1366   2.263   1.681   1.615
  393HOH     H2 1367   2.177   1.648   1.736
  394HOH      O 1368   1.484   3.768   0.555
  394HOH     H1 1369   1.544   3.843   0.555
  394HOH     H2 1370   1.518   3.710   0.622
  395HOH      O 1371   2.255   3.797   1.852
  395HOH     H1 1372   2.257   3.729   1.918
  395HOH     H2 1373   2.339   3.843   1.862
  396HOH      O 1374   1.186   3.377   0.332
  396HOH     H1 1375   1.095   3.348   0.325
  396HOH     H2 1376   1.211   3.357   0.422
  397HOH      O 1377   0.964   2.597   1.827
  397HOH     H1 1378   0.940   2.647   1.905
  397HOH     H2 1379   0.884   2.596   1.775
  398HOH      O 1380   1.969   0.161   2.429
  398HOH     H1 1381   1.880   0.187   2.404
  398HOH     H2 1382   2.020   0.172   2.350
  399HOH      O 1383   1.312   0.506   3.832
  399HOH     H1 1384   1.393   0.545   3.864
  399HOH     H2 1385   1.267   0.477   3.911
  400HOH      O 1386   0.177   1.379   0.931
  400HOH     H1 1387   0.174   1.435   1.009
  400HOH     H2 1388   0.154   1.292   0.964
  401HOH      O 1389   1.013   3.413   1.746
  401HOH     H1 1390   0.988   3.473   1.677
  401HOH     H2 1391   0.936   3.358   1.760
  402HOH      O 1392   3.394   3.802   1.919
  402HOH     H1 1393   3.344   3.775   1.995
  402HOH     H2 1394   3.485   3.783   1.942
  403HOH      O 1395   2.097   3.819   1.297
  403HOH     H1 1396   2.186   3.821   1.263
  403HOH     H2 1397   2.108   3.793   1.389
  404HOH      O 1398   3.866   0.165   2.363
  404HOH     H1 1399   3.813   0.245   2.366
  404HOH     H2 1400   3.826   0.113   2.293
  405HOH      O 1401   2.332   0.407   0.261
  405HOH     H1 1402   2.373   0.492   0.245
  405HOH     H2 1403   2.329   0.400   0.356
  406HOH      O 1404   0.251   0.708   0.457
  406HOH     H1 1405   0.322   0.694   0.394
  406HOH     H2 1406   0.172   0.677   0.412
  407HOH      O 1407   2.552   3.721   1.698
  407HOH     H1 1408   2.512   3.729   1.785
  407HOH     H2 1409   2.631   3.775   1.704
  408HOH      O 1410   1.791   1.555   2.026
  408HOH     H1 1411   1.715   1.515   2.069
  408HOH     H2 1412   1.767   1.558   1.933
  409HOH      O 1413   0.789   0.263   0.452
  409HOH     H1 1414   0.881   0.246   0.473
  409HOH     H2 1415   0.784   0.358   0.439
  410HOH      O 1416   1.602   2.397   0.848
  410HOH     H1 1417   1.663   2.327   0.873
  410HOH     H2 1418   1.566   2.429   0.931
  411HOH      O 1419   1.550   3.160  -0.002
  411HOH     H1 1420   1.486   3.231   0.003
  411HOH     H2 1421   1.559   3.131   0.089
  412HOH      O 1422   2.541   1.302   1.177
  412HOH     H1 1423   2.598   1.256   1.238
  412HOH     H2 1424   2.554   1.257   1.093
  413HOH      O 1425   2.019   1.612   3.431
  413HOH     H1 1426   1.998   1.666   3.354
  413HOH     H2 1427   2.106   1.577   3.412
  414HOH      O 1428   2.621   3.046   0.479
  414HOH     H1 1429   2.613   3.088   0.564
  414HOH     H2 1430   2.578   2.961   0.490
  415HOH      O 1431   0.811   2.413   2.350
  415HOH     H1 1432   0.875   2.393   2.282
  415HOH     H2 1433   0.847   2.371   2.429
  416HOH      O 1434   2.936   2.192   2.563
  416HOH     H1 1435   2.933   2.287   2.571
  416HOH     H2 1436   2.988   2.176   2.484
  417HOH      O 1437   2.663   2.984   0.095
  417HOH     H1 1438   2.595   2.999   0.030
  417HOH     H2 1439   2.713   3.066   0.098
  418HOH      O 1440   2.875   0.441   0.454
  418HOH     H1 1441   2.968   0.446   0.430
  418HOH     H2 1442   2.868   0.359   0.503
  419HOH      O 1443   2.571   0.343   0.120
  419HOH     H1 1444   2.641   0.288   0.086
  419HOH     H2 1445   2.611   0.429   0.130
  420HOH      O 1446   1.216   2.674   2.526
  420HOH     H1 1447   1.302   2.636   2.508
  420HOH     H2 1448   1.197   2.650   2.617
  421HOH      O 1449   1.400   1.945   3.649
  421HOH     H1 1450   1.358   1.935   3.564
  421HOH     H2 1451   1.452   2.025   3.642
  422HOH      O 1452   2.605   2.335   2.441
  422HOH     H1 1453   2.534   2.287   2.483
  422HOH     H2 1454   2.561   2.403   2.390
  423HOH      O 1455   3.588   2.222   2.611
  423HOH     H1 1456   3.638   2.291   2.656
  423HOH     H2 1457   3.509   2.212   2.664
  424HOH      O 1458   3.384   1.091   2.278
  424HOH     H1 1459   3.290   1.077   2.286
  424HOH     H2 1460   3.393   1.177   2.237
  425HOH      O 1461   2.425   3.651   2.035
  425HOH     H1 1462   2.399   3.657   2.127
  425HOH     H2 1463   2.505   3.703   2.030
  426HOH      O 1464   0.200   2.540   2.455
  426HOH     H1 1465   0.147   2.543   2.535
  426HOH     H2 1466   0.284   2.578   2.481
  427HOH      O 1467   3.429   2.385   2.810
  427HOH     H1 1468   3.395   2.386   2.900
  427HOH     H2 1469   3.504   2.445   2.812
  428HOH      O 1470   2.132   1.663   3.099
  428HOH     H1 1471   2.099   1.745   3.061
  428HOH     H2 1472   2.216   1.686   3.137
  429HOH      O 1473   0.780   2.761   0.447
  429HOH     H1 1474   0.745   2.816   0.517
  429HOH     H2 1475   0.705   2.707   0.419
  430HOH      O 1476   0.571   0.943   2.519
  430HOH     H1 1477   0.555   0.892   2.598
  430HOH     H2 1478   0.525   0.894   2.450
  431HOH      O 1479   4.019   3.559   3.997
  431HOH     H1 1480   4.005   3.654   3.988
  431HOH     H2 1481   3.982   3.538   4.082
  432HOH      O 1482   0.839   3.087   3.505
  432HOH     H1 1483   0.932   3.081   3.524
  432HOH     H2 1484   0.825   3.177   3.477
  433HOH      O 1485   3.275   2.749   1.471
  433HOH     H1 1486   3.305   2.669   1.428
  433HOH     H2 1487   3.317   2.747   1.557
  434HOH      O 1488   0.755   0.432   0.876
  434HOH     H1 1489   0.710   0.511   0.847
  434HOH     H2 1490   0.821   0.464   0.938
  435HOH      O 1491   2.206   1.606   0.910
  435HOH     H1 1492   2.283   1.604   0.854
  435HOH     H2 1493   2.239   1.583   0.997
  436HOH      O 1494   1.417   2.766   0.360
  436HOH     H1 1495   1.448   2.818   0.434
  436HOH     H2 1496   1.463   2.802   0.285
  437HOH      O 1497   1.771   2.438   3.387
  437HOH     H1 1498   1.816   2.356   3.406
  437HOH     H2 1499   1.841   2.503   3.380
  438HOH      O 1500   2.714   2.157   0.214
  438HOH     H1 1501   2.758   2.238   0.187
  438HOH     H2 1502   2.633   2.187   0.255
  439HOH      O 1503   1.800   0.853   0.631
  439HOH     H1 1504   1.817   0.809   0.547
  439HOH     H2 1505   1.767   0.784   0.688
  440HOH      O 1506   2.139   3.851   3.779
  440HOH     H1 1507   2.176   3.907   3.848
  440HOH     H2 1508   2.117   3.912   3.708
  441HOH      O 1509   2.908   3.161   2.607
  441HOH     H1 1510   2.983   3.158   2.547
  441HOH     H2 1511   2.847   3.096   2.572
  442HOH      O 1512   0.569   2.824   3.045
  442HOH     H1 1513   0.491   2.875   3.022
  442HOH     H2 1514   0.642   2.876   3.012
  443HOH      O 1515   3.214   2.395   2.603
  443HOH     H1 1516   3.278   2.401   2.674
  443HOH     H2 1517   3.230   2.309   2.565
  444HOH      O 1518   2.628   0.534   3.667
  444HOH     H1 1519   2.679   0.461   3.632
  444HOH     H2 1520   2.537   0.503   3.664
  445HOH      O 1521   1.470   0.177   2.753
  445HOH     H1 1522   1.544   0.131   2.713
  445HOH     H2 1523   1.432   0.113   2.813
  446HOH      O 1524   0.788   2.616   1.619
  446HOH     H1 1525   0.708   2.601   1.569
  446HOH     H2 1526   0.851   2.554   1.582
  447HOH      O 1527   0.590   0.748   3.576
  447HOH     H1 1528   0.636   0.664   3.576
  447HOH     H2 1529   0.500   0.725   3.553
  448HOH      O 1530   2.293   2.018   0.235
  448HOH     H1 1531   2.344   1.939   0.222
  448HOH     H2 1532   2.211   2.001   0.189
  449HOH      O 1533   2.762   1.613   1.185
  449HOH     H1 1534   2.763   1.638   1.092
  449HOH     H2 1535   2.777   1.694   1.232
  450HOH      O 1536   1.065   3.834   0.568
  450HOH     H1 1537   1.124   3.893   0.522
  450HOH     H2 1538   1.113   3.810   0.648
  451HOH      O 1539   3.202   3.525   0.279
  451HOH     H1 1540   3.134   3.570   0.228
  451HOH     H2 1541   3.248   3.596   0.324
  452HOH      O 1542   1.080   0.598   3.280
  452HOH     H1 1543   1.062   0.635   3.194
  452HOH     H2 1544   1.081   0.674   3.339
  453HOH      O 1545   3.213   2.828   0.678
  453HOH     H1 1546   3.296   2.797   0.641
  453HOH     H2 1547   3.235   2.857   0.766
  454HOH      O 1548   2.540   2.069   0.010
  454HOH     H1 1549   2.565   2.044   0.099
  454HOH     H2 1550   2.490   2.150   0.021
  455HOH      O 1551   3.214   0.038   0.809
  455HOH     H1 1552   3.190  -0.053   0.796
  455HOH     H2 1553   3.236   0.070   0.721
  456HOH      O 1554   0.449   3.538   1.179
  456HOH     H1 1555   0.452   3.510   1.088
  456HOH     H2 1556   0.451   3.634   1.175
  457HOH      O 1557   1.318   2.455   1.240
  457HOH     H1 1558   1.374   2.508   1.183
  457HOH     H2 1559   1.360   2.458   1.326
  458HOH      O 1560   1.350   3.807   2.260
  458HOH     H1 1561   1.433   3.792   2.214
  458HOH     H2 1562   1.305   3.723   2.257
  459HOH      O 1563   0.171   3.195   3.667
  459HOH     H1 1564   0.253   3.243   3.663
  459HOH     H2 1565   0.130   3.210   3.581
  460HOH      O 1566   1.670   2.960   2.571
  460HOH     H1 1567   1.641   2.935   2.658
  460HOH     H2 1568   1.765   2.974   2.580
  461HOH      O 1569   1.327   3.076   0.167
  461HOH     H1 1570   1.280   3.064   0.250
  461HOH     H2 1571   1.417   3.048   0.187
  462HOH      O 1572   3.101   1.719   2.362
  462HOH     H1 1573   3.141   1.727   2.448
  462HOH     H2 1574   3.007   1.723   2.379
  463HOH      O 1575   2.779   1.899   3.247
  463HOH     H1 1576   2.743   1.811   3.238
  463HOH     H2 1577   2.814   1.919   3.160
  464HOH      O 1578   0.767   2.308   3.588
  464HOH     H1 1579   0.802   2.376   3.530
  464HOH     H2 1580   0.832   2.301   3.658
  465HOH      O 1581   1.749   2.668   1.667
  465HOH     H1 1582   1.735   2.731   1.738
  465HOH     H2 1583   1.777   2.588   1.712
  466HOH      O 1584   2.987   0.664   1.639
  466HOH     H1 1585   3.042   0.593   1.606
  466HOH     H2 1586   2.976   0.645   1.732
  467HOH      O 1587   0.660   1.661   3.647
  467HOH     H1 1588   0.624   1.743   3.681
  467HOH     H2 1589   0.684   1.681   3.557
  468HOH      O 1590   3.364   3.627   1.419
  468HOH     H1 1591   3.410   3.607   1.337
  468HOH     H2 1592   3.285   3.573   1.416
  469HOH      O 1593   3.571   0.327   0.770
  469HOH     H1 1594   3.635   0.380   0.817
  469HOH     H2 1595   3.535   0.268   0.837
  470HOH      O 1596   0.946   0.598   1.550
  470HOH     H1 1597   0.954   0.503   1.550
  470HOH     H2 1598   0.887   0.617   1.477
  471HOH      O 1599   3.584   0.441   1.200
  471HOH     H1 1600   3.614   0.474   1.115
  471HOH     H2 1601   3.610   0.349   1.200
  472HOH      O 1602   2.972   1.481   0.386
  472HOH     H1 1603   2.880   1.464   0.408
  472HOH     H2 1604   2.979   1.460   0.293
  473HOH      O 1605   0.877   0.812   1.386
  473HOH     H1 1606   0.879   0.887   1.326
  473HOH     H2 1607   0.898   0.737   1.331
  474HOH      O 1608   1.069   2.924   0.096
  474HOH     H1 1609   1.106   2.992   0.152
  474HOH     H2 1610   1.033   2.860   0.157
  475HOH      O 1611   1.227   1.671   3.350
  475HOH     H1 1612   1.317   1.641   3.333
  475HOH     H2 1613   1.239   1.756   3.393
  476HOH      O 1614   2.260   4.038   2.799
  476HOH     H1 1615   2.304   3.959   2.768
  476HOH     H2 1616   2.195   4.005   2.862
  477HOH      O 1617   4.003   3.917   0.342
  477HOH     H1 1618   3.916   3.914   0.383
  477HOH     H2 1619   4.064   3.908   0.415
  478HOH      O 1620   2.675   0.049   2.042
  478HOH     H1 1621   2.767   0.072   2.044
  478HOH     H2 1622   2.629   0.130   2.066
  479HOH      O 1623   0.343   1.875   3.035
  479HOH     H1 1624   0.362   1.951   3.090
  479HOH     H2 1625   0.400   1.886   2.959
  480HOH      O 1626   2.063   3.823   0.751
  480HOH     H1 1627   2.017   3.756   0.701
  480HOH     H2 1628   2.030   3.814   0.841
  481HOH      O 1629   3.762   0.845  -0.008
  481HOH     H1 1630   3.751   0.750  -0.006
  481HOH     H2 1631   3.774   0.870   0.083
  482HOH      O 1632   2.634   1.914   2.875
  482HOH     H1 1633   2.546   1.878   2.864
  482HOH     H2 1634   2.634   1.993   2.820
  483HOH      O 1635   1.064   1.064   1.877
  483HOH     H1 1636   1.130   1.130   1.899
  483HOH     H2 1637   0.988   1.115   1.849
  484HOH      O 1638   0.845   1.177   2.102
  484HOH     H1 1639   0.903   1.238   2.147
  484HOH     H2 1640   0.855   1.199   2.009
  485HOH      O 1641   3.264   0.020   1.903
  485HOH     H1 1642   3.263   0.048   1.811
  485HOH     H2 1643   3.307  -0.066   1.902
  486HOH      O 1644   0.548   1.656   3.263
  486HOH     H1 1645   0.571   1.740   3.304
  486HOH     H2 1646   0.632   1.617   3.241
  487HOH      O 1647   1.220   2.174   1.610
  487HOH     H1 1648   1.263   2.207   1.689
  487HOH     H2 1649   1.291   2.164   1.546
  488HOH      O 1650   2.475   2.539   0.911
  488HOH     H1 1651   2.532   2.516   0.837
  488HOH     H2 1652   2.456   2.456   0.954
  489HOH      O 1653   1.759   1.857   1.716
  489HOH     H1 1654   1.719   1.842   1.631
  489HOH     H2 1655   1.769   1.770   1.754
  490HOH      O 1656   1.530   0.875   1.039
  490HOH     H1 1657   1.604   0.925   1.004
  490HOH     H2 1658   1.569   0.796   1.075
  491HOH      O 1659   1.218   2.729   1.791
  491HOH     H1 1660   1.132   2.696   1.768
  491HOH     H2 1661   1.249   2.668   1.858
  492HOH      O 1662   2.753   0.829   2.394
  492HOH     H1 1663   2.665   0.850   2.424
  492HOH     H2 1664   2.811   0.875   2.455
  493HOH      O 1665   0.615   0.398   3.155
  493HOH     H1 1666   0.641   0.350   3.233
  493HOH     H2 1667   0.654   0.349   3.083
  494HOH      O 1668   1.477   1.126   1.200
  494HOH     H1 1669   1.510   1.163   1.119
  494HOH     H2 1670   1.549   1.074   1.235
  495HOH      O 1671   0.775   1.985   3.615
  495HOH     H1 1672   0.705   1.983   3.680
  495HOH     H2 1673   0.855   1.996   3.666
  496HOH      O 1674   1.780   1.138   3.240
  496HOH     H1 1675   1.745   1.126   3.328
  496HOH     H2 1676   1.704   1.126   3.182
  497HOH      O 1677   0.269   0.392   0.661
  497HOH     H1 1678   0.214   0.331   0.710
  497HOH     H2 1679   0.276   0.469   0.717
  498HOH      O 1680   2.657   2.166   3.824
  498HOH     H1 1681   2.634   2.250   3.863
  498HOH     H2 1682   2.619   2.101   3.883
  499HOH      O 1683   2.254   2.811   0.650
  499HOH     H1 1684   2.178   2.815   0.592
  499HOH     H2 1685   2.225   2.758   0.724
  500HOH      O 1686   0.817   1.116   2.952
  500HOH     H1 1687   0.845   1.133   2.862
  500HOH     H2 1688   0.854   1.031   2.973
  501HOH      O 1689   0.104   2.227   2.217
  501HOH     H1 1690   0.181   2.169   2.208
  501HOH     H2 1691   0.078   2.216   2.309
  502HOH      O 1692   1.614   1.596   2.960
  502HOH     H1 1693   1.654   1.527   2.907
  502HOH     H2 1694   1.522   1.569   2.968
  503HOH      O 1695   3.075   1.639   1.208
  503HOH     H1 1696   3.029   1.687   1.139
  503HOH     H2 1697   3.109   1.561   1.164
  504HOH      O 1698   1.635   1.275   1.806
  504HOH     H1 1699   1.572   1.244   1.871
  504HOH     H2 1700   1.692   1.199   1.789
  505HOH      O 1701   3.855   1.049   1.787
  505HOH     H1 1702   3.884   1.042   1.696
  505HOH     H2 1703   3.909   1.119   1.824
  506HOH      O 1704   0.313   0.349   3.512
  506HOH     H1 1705   0.318   0.368   3.606
  506HOH     H2 1706   0.287   0.257   3.508
  507HOH      O 1707   0.813   3.222   2.772
  507HOH     H1 1708   0.881   3.267   2.722
  507HOH     H2 1709   0.748   3.198   2.706
  508HOH      O 1710   1.790   1.459   3.524
  508HOH     H1 1711   1.827   1.531   3.473
  508HOH     H2 1712   1.848   1.451   3.600
  509HOH      O 1713   2.620   2.540   1.762
  509HOH     H1 1714   2.574   2.537   1.846
  509HOH     H2 1715   2.645   2.632   1.752
  510HOH      O 1716   3.355   3.830   2.484
  510HOH     H1 1717   3.388   3.873   2.405
  510HOH     H2 1718   3.430   3.779   2.516
  511HOH      O 1719   2.456   3.854   1.132
  511HOH     H1 1720   2.417   3.935   1.164
  511HOH     H2 1721   2.483   3.874   1.043
  512HOH      O 1722   1.732   2.904   0.612
  512HOH     H1 1723   1.727   2.886   0.706
  512HOH     H2 1724   1.742   2.818   0.572
  513HOH      O 1725   0.913   0.704   0.061
  513HOH     H1 1726   0.889   0.784   0.015
  513HOH     H2 1727   0.937   0.732   0.149
  514HOH      O 1728   0.559   3.808   0.766
  514HOH     H1 1729   0.548   3.894   0.727
  514HOH     H2 1730   0.651   3.786   0.751
  515HOH      O 1731   1.699   1.066   0.517
  515HOH     H1 1732   1.723   0.990   0.570
  515HOH     H2 1733   1.630   1.034   0.459
  516HOH      O 1734   1.913   0.022   0.452
  516HOH     H1 1735   2.006   0.017   0.433
  516HOH     H2 1736   1.896   0.114   0.469
  517HOH      O 1737   0.912   3.623   2.065
  517HOH     H1 1738   0.987   3.681   2.056
  517HOH     H2 1739   0.860   3.637   1.985
  518HOH      O 1740   1.907   3.287   1.778
  518HOH     H1 1741   1.966   3.325   1.712
  518HOH     H2 1742   1.913   3.347   1.852
  519HOH      O 1743   0.815   2.668   1.246
  519HOH     H1 1744   0.884   2.610   1.278
  519HOH     H2 1745   0.862   2.743   1.209
  520HOH      O 1746   0.834   1.218   1.823
  520HOH     H1 1747   0.755   1.163   1.822
  520HOH     H2 1748   0.829   1.269   1.742
  521HOH      O 1749   1.292   1.616   2.110
  521HOH     H1 1750   1.222   1.680   2.121
  521HOH     H2 1751   1.291   1.565   2.191
  522HOH      O 1752   0.592   2.615   1.932
  522HOH     H1 1753   0.619   2.700   1.896
  522HOH     H2 1754   0.516   2.635   1.987
  523HOH      O 1755   2.344   1.404   0.303
  523HOH     H1 1756   2.302   1.437   0.383
  523HOH     H2 1757   2.422   1.458   0.294
  524HOH      O 1758   1.658   0.669   3.315
  524HOH     H1 1759   1.583   0.718   3.283
  524HOH     H2 1760   1.639   0.655   3.408
  525HOH      O 1761   0.576   1.517   0.716
  525HOH     H1 1762   0.567   1.557   0.629
  525HOH     H2 1763   0.516   1.566   0.771
  526HOH      O 1764   2.292   2.511   3.347
  526HOH     H1 1765   2.374   2.552   3.376
  526HOH     H2 1766   2.307   2.490   3.255
  527HOH      O 1767   1.833   2.673   0.527
  527HOH     H1 1768   1.921   2.666   0.490
  527HOH     H2 1769   1.776   2.641   0.457
  528HOH      O 1770   1.425   3.455   3.902
  528HOH     H1 1771   1.367   3.401   3.957
  528HOH     H2 1772   1.445   3.531   3.957
  529HOH      O 1773   3.017   1.756   2.912
  529HOH     H1 1774   3.014   1.775   2.818
  529HOH     H2 1775   2.934   1.788   2.946
  530HOH      O 1776   0.478   3.588   0.137
  530HOH     H1 1777   0.488   3.496   0.162
  530HOH     H2 1778   0.530   3.598   0.057
  531HOH      O 1779   2.682   0.121   2.379
  531HOH     H1 1780   2.659   0.042   2.331
  531HOH     H2 1781   2.763   0.152   2.337
  532HOH      O 1782   0.830   1.616   3.879
  532HOH     H1 1783   0.799   1.556   3.947
  532HOH     H2 1784   0.767   1.605   3.808
  533HOH      O 1785   2.365   2.363   1.112
  533HOH     H1 1786   2.354   2.301   1.183
  533HOH     H2 1787   2.302   2.433   1.130
  534HOH      O 1788   3.191   2.259   3.668
  534HOH     H1 1789   3.119   2.234   3.609
  534HOH     H2 1790   3.231   2.176   3.692
  535HOH      O 1791   1.051   2.741   0.516
  535HOH     H1 1792   1.062   2.653   0.553
  535HOH     H2 1793   0.964   2.740   0.477
  536HOH      O 1794   0.248   0.375   3.783
  536HOH     H1 1795   0.322   0.367   3.843
  536HOH     H2 1796   0.182   0.315   3.818
  537HOH      O 1797   3.298   2.908   3.300
  537HOH     H1 1798   3.312   2.838   3.362
  537HOH     H2 1799   3.284   2.986   3.354
  538HOH      O 1800   3.714   1.966   1.555
  538HOH     H1 1801   3.629   1.948   1.514
  538HOH     H2 1802   3.701   1.944   1.647
  539HOH      O 1803   2.243   3.149   1.193
  539HOH     H1 1804   2.167   3.102   1.227
  539HOH     H2 1805   2.281   3.090   1.128
  540HOH      O 1806   0.223   2.864   2.380
  540HOH     H1 1807   0.271   2.792   2.420
  540HOH     H2 1808   0.133   2.854   2.411
  541HOH      O 1809   3.814   3.229   1.822
  541HOH     H1 1810   3.882   3.178   1.779
  541HOH     H2 1811   3.747   3.165   1.846
  542HOH      O 1812   2.635   1.775   2.530
  542HOH     H1 1813   2.563   1.713   2.517
  542HOH     H2 1814   2.601   1.838   2.594
  543HOH      O 1815   2.581   3.914   3.730
  543HOH     H1 1816   2.550   3.827   3.702
  543HOH     H2 1817   2.611   3.955   3.649
  544HOH      O 1818   3.234   1.637   1.544
  544HOH     H1 1819   3.139   1.625   1.536
  544HOH     H2 1820   3.263   1.656   1.454
  545HOH      O 1821   1.329   1.729   3.791
  545HOH     H1 1822   1.360   1.809   3.750
  545HOH     H2 1823   1.245   1.711   3.749
  546HOH      O 1824   3.185   3.773   0.756
  546HOH     H1 1825   3.116   3.804   0.697
  546HOH     H2 1826   3.229   3.704   0.706
  547HOH      O 1827   3.199   0.358   0.410
  547HOH     H1 1828   3.219   0.451   0.413
  547HOH     H2 1829   3.221   0.331   0.321
  548HOH      O 1830   1.870   2.732   3.819
  548HOH     H1 1831   1.805   2.704   3.754
  548HOH     H2 1832   1.905   2.814   3.784
  549HOH      O 1833   0.687   3.356   0.839
  549HOH     H1 1834   0.748   3.331   0.769
  549HOH     H2 1835   0.658   3.272   0.875
  550HOH      O 1836   0.084   3.827   2.357
  550HOH     H1 1837   0.027   3.751   2.343
  550HOH     H2 1838   0.094   3.865   2.269
  551HOH      O 1839   2.611   3.154   0.738
  551HOH     H1 1840   2.640   3.071   0.773
  551HOH     H2 1841   2.566   3.197   0.810
  552HOH      O 1842   2.671   1.122   0.727
  552HOH     H1 1843   2.735   1.117   0.798
  552HOH     H2 1844   2.707   1.187   0.667
  553HOH      O 1845   1.372   0.383   2.888
  553HOH     H1 1846   1.390   0.299   2.846
  553HOH     H2 1847   1.458   0.421   2.904
  554HOH      O 1848   3.272   2.670   1.054
  554HOH     H1 1849   3.361   2.642   1.075
  554HOH     H2 1850   3.223   2.588   1.048
  555HOH      O 1851   3.685   1.859   1.816
  555HOH     H1 1852   3.710   1.933   1.871
  555HOH     H2 1853   3.597   1.836   1.846
  556HOH      O 1854   4.000   2.018   1.307
  556HOH     H1 1855   4.084   2.051   1.338
  556HOH     H2 1856   3.966   1.966   1.379
  557HOH      O 1857   1.723   3.611   3.183
  557HOH     H1 1858   1.812   3.617   3.215
  557HOH     H2 1859   1.732   3.586   3.091
  558HOH      O 1860   1.233   0.445   0.079
  558HOH     H1 1861   1.167   0.417   0.143
  558HOH     H2 1862   1.314   0.402   0.108
  559HOH      O 1863   1.362   3.125   3.750
  559HOH     H1 1864   1.342   3.056   3.814
  559HOH     H2 1865   1.421   3.083   3.687
  560HOH      O 1866   1.965   0.074   1.600
  560HOH     H1 1867   1.972   0.035   1.687
  560HOH     H2 1868   1.908   0.014   1.551
  561HOH      O 1869   4.043   0.240   3.861
  561HOH     H1 1870   4.020   0.161   3.909
  561HOH     H2 1871   3.961   0.267   3.819
  562HOH      O 1872   0.403   2.575   3.780
  562HOH     H1 1873   0.399   2.605   3.689
  562HOH     H2 1874   0.368   2.486   3.778
  563HOH      O 1875   3.933   1.878   3.690
  563HOH     H1 1876   3.947   1.848   3.600
  563HOH     H2 1877   3.948   1.973   3.686
  564HOH      O 1878   0.031   3.088   3.868
  564HOH     H1 1879   0.083   3.125   3.796
  564HOH     H2 1880  -0.058   3.080   3.832
  565HOH      O 1881   2.648   2.395   2.787
  565HOH     H1 1882   2.586   2.442   2.731
  565HOH     H2 1883   2.722   2.455   2.796
  566HOH      O 1884   1.841   3.015   2.863
  566HOH     H1 1885   1.768   2.957   2.841
  566HOH     H2 1886   1.899   2.961   2.917
  567HOH      O 1887   2.188   1.658   2.774
  567HOH     H1 1888   2.113   1.706   2.739
  567HOH     H2 1889   2.194   1.579   2.720
  568HOH      O 1890   3.191   1.021   1.593
  568HOH     H1 1891   3.172   0.946   1.536
  568HOH     H2 1892   3.286   1.019   1.605
  569HOH      O 1893   1.773   0.279   3.245
  569HOH     H1 1894   1.799   0.209   3.305
  569HOH     H2 1895   1.850   0.334   3.237
  570HOH      O 1896   1.293   3.931   1.456
  570HOH     H1 1897   1.349   3.856   1.475
  570HOH     H2 1898   1.251   3.953   1.539
  571HOH      O 1899   2.444   0.471   2.230
  571HOH     H1 1900   2.365   0.436   2.271
  571HOH     H2 1901   2.423   0.563   2.213
  572HOH      O 1902   0.651   0.519   0.522
  572HOH     H1 1903   0.642   0.581   0.595
  572HOH     H2 1904   0.662   0.574   0.445
  573HOH      O 1905   3.618   1.977   3.652
  573HOH     H1 1906   3.670   1.963   3.573
  573HOH     H2 1907   3.650   2.060   3.687
  574HOH      O 1908   3.036   0.759   3.573
  574HOH     H1 1909   2.964   0.807   3.533
  574HOH     H2 1910   3.084   0.722   3.498
  575HOH      O 1911   0.451   3.015   1.288
  575HOH     H1 1912   0.521   3.080   1.294
  575HOH     H2 1913   0.490   2.942   1.240
  576HOH      O 1914   0.412   0.045   3.990
  576HOH     H1 1915   0.415   0.139   3.969
  576HOH     H2 1916   0.446   0.040   4.079
  577HOH      O 1917   1.620   0.151   1.387
  577HOH     H1 1918   1.666   0.076   1.425
  577HOH     H2 1919   1.689   0.204   1.348
  578HOH      O 1920   0.362   2.378   3.454
  578HOH     H1 1921   0.389   2.286   3.464
  578HOH     H2 1922   0.273   2.380   3.490
  579HOH      O 1923   2.183   3.331   1.372
  579HOH     H1 1924   2.258   3.391   1.369
  579HOH     H2 1925   2.187   3.283   1.289
  580HOH      O 1926   1.346   3.474   3.067
  580HOH     H1 1927   1.392   3.495   2.986
  580HOH     H2 1928   1.415   3.461   3.131
  581HOH      O 1929   3.569   3.379   1.065
  581HOH     H1 1930   3.649   3.405   1.109
  581HOH     H2 1931   3.591   3.298   1.020
  582HOH      O 1932   1.030   1.565   1.280
  582HOH     H1 1933   1.094   1.635   1.277
  582HOH     H2 1934   1.016   1.541   1.189
  583HOH      O 1935   0.915   3.576   3.519
  583HOH     H1 1936   0.853   3.641   3.552
  583HOH     H2 1937   1.001   3.609   3.546
  584HOH      O 1938   3.393   1.957   2.726
  584HOH     H1 1939   3.400   2.012   2.804
  584HOH     H2 1940   3.476   1.910   2.723
  585HOH      O 1941   1.870   3.014   3.220
  585HOH     H1 1942   1.880   2.930   3.174
  585HOH     H2 1943   1.799   3.058   3.174
  586HOH      O 1944   3.350   2.727   3.492
  586HOH     H1 1945   3.393   2.706   3.575
  586HOH     H2 1946   3.280   2.662   3.484
  587HOH      O 1947   1.542   0.687   3.578
  587HOH     H1 1948   1.591   0.688   3.661
  587HOH     H2 1949   1.495   0.771   3.577
  588HOH      O 1950   2.393   1.303   0.819
  588HOH     H1 1951   2.385   1.286   0.725
  588HOH     H2 1952   2.355   1.225   0.860
  589HOH      O 1953   3.107   1.581   2.102
  589HOH     H1 1954   3.086   1.651   2.163
  589HOH     H2 1955   3.200   1.593   2.084
  590HOH      O 1956   2.724   1.044   3.270
  590HOH     H1 1957   2.646   1.024   3.323
  590HOH     H2 1958   2.703   1.009   3.184
  591HOH      O 1959   0.599   0.514   2.130
  591HOH     H1 1960   0.652   0.484   2.204
  591HOH     H2 1961   0.576   0.604   2.153
  592HOH      O 1962   2.220   3.353   3.679
  592HOH     H1 1963   2.254   3.429   3.726
  592HOH     H2 1964   2.298   3.309   3.644
  593HOH      O 1965   1.675   1.405   2.474
  593HOH     H1 1966   1.696   1.314   2.455
  593HOH     H2 1967   1.581   1.404   2.495
  594HOH      O 1968   0.381   3.846   2.325
  594HOH     H1 1969   0.387   3.817   2.234
  594HOH     H2 1970   0.394   3.941   2.321
  595HOH      O 1971   1.235   3.956   3.754
  595HOH     H1 1972   1.216   3.968   3.662
  595HOH     H2 1973   1.203   4.035   3.797
  596HOH      O 1974   3.071   2.852   1.091
  596HOH     H1 1975   3.133   2.790   1.053
  596HOH     H2 1976   3.126   2.924   1.122
  597HOH      O 1977   2.779   1.416   0.030
  597HOH     H1 1978   2.847   1.357  -0.002
  597HOH     H2 1979   2.697   1.374   0.007
  598HOH      O 1980   0.520   0.606   1.526
  598HOH     H1 1981   0.517   0.591   1.431
  598HOH     H2 1982   0.429   0.626   1.549
  599HOH      O 1983   0.517   2.888   3.696
  599HOH     H1 1984   0.508   2.928   3.783
  599HOH     H2 1985   0.429   2.888   3.660
  600HOH      O 1986   1.811   2.178   0.843
  600HOH     H1 1987   1.858   2.105   0.802
  600HOH     H2 1988   1.731   2.138   0.878
  601HOH      O 1989   3.648   1.906   2.339
  601HOH     H1 1990   3.588   1.979   2.327
  601HOH     H2 1991   3.723   1.943   2.384
  602HOH      O 1992   3.256   0.214   0.142
  602HOH     H1 1993   3.221   0.174   0.062
  602HOH     H2 1994   3.311   0.146   0.181
  603HOH      O 1995   1.204   2.629   2.810
  603HOH     H1 1996   1.244   2.656   2.892
  603HOH     H2 1997   1.110   2.621   2.830
  604HOH      O 1998   1.391   0.230   0.664
  604HOH     H1 1999   1.436   0.160   0.711
  604HOH     H2 2000   1.354   0.285   0.732
  605HOH      O 2001   3.752   0.022   2.152
  605HOH     H1 2002   3.742   0.061   2.065
  605HOH     H2 2003   3.670  -0.026   2.166
  606HOH      O 2004   0.803   1.562   3.186
  606HOH     H1 2005   0.883   1.552   3.135
  606HOH     H2 2006   0.809   1.495   3.254
  607HOH      O 2007   3.992   2.749   3.664
  607HOH     H1 2008   4.038   2.753   3.748
  607HOH     H2 2009   3.917   2.691   3.680
  608HOH      O 2010   2.377   1.088   0.291
  608HOH     H1 2011   2.407   1.172   0.256
  608HOH     H2 2012   2.332   1.046   0.217
  609HOH      O 2013   2.606   3.074   1.170
  609HOH     H1 2014   2.594   3.036   1.258
  609HOH     H2 2015   2.634   3.001   1.116
  610HOH      O 2016   3.188   3.965   2.832
  610HOH     H1 2017   3.171   3.932   2.921
  610HOH     H2 2018   3.217   3.888   2.784
  611HOH      O 2019   0.337   2.459   3.051
  611HOH     H1 2020   0.301   2.528   3.107
  611HOH     H2 2021   0.265   2.398   3.039
  612HOH      O 2022   0.595   0.947   1.534
  612HOH     H1 2023   0.673   0.894   1.516
  612HOH     H2 2024   0.524   0.897   1.494
  613HOH      O 2025   0.742   2.153   1.915
  613HOH     H1 2026   0.703   2.135   1.830
  613HOH     H2 2027   0.834   2.174   1.895
  614HOH      O 2028   2.232   2.399   2.406
  614HOH     H1 2029   2.274   2.483   2.389
  614HOH     H2 2030   2.139   2.421   2.420
  615HOH      O 2031   3.802   1.189   2.625
  615HOH     H1 2032   3.722   1.175   2.675
  615HOH     H2 2033   3.797   1.128   2.552
  616HOH      O 2034   0.153   3.091   3.315
  616HOH     H1 2035   0.081   3.060   3.370
  616HOH     H2 2036   0.114   3.103   3.228
  617HOH      O 2037   3.085   2.028   3.900
  617HOH     H1 2038   3.060   1.981   3.979
  617HOH     H2 2039   3.127   2.108   3.932
  618HOH      O 2040   3.622   1.818   3.856
  618HOH     H1 2041   3.668   1.741   3.824
  618HOH     H2 2042   3.628   1.882   3.784
  619HOH      O 2043   3.431   1.238   0.996
  619HOH     H1 2044   3.413   1.317   1.047
  619HOH     H2 2045   3.481   1.268   0.921
  620HOH      O 2046   2.458   1.861   3.410
  620HOH     H1 2047   2.547   1.841   3.437
  620HOH     H2 2048   2.411   1.877   3.491
  621HOH      O 2049   0.216   0.459   0.115
  621HOH     H1 2050   0.125   0.466   0.086
  621HOH     H2 2051   0.215   0.389   0.180
  622HOH      O 2052   0.519   0.052   3.609
  622HOH     H1 2053   0.430   0.034   3.578
  622HOH     H2 2054   0.550  -0.032   3.643
  623HOH      O 2055   0.290   2.185   1.882
  623HOH     H1 2056   0.358   2.125   1.852
  623HOH     H2 2057   0.336   2.269   1.893
  624HOH      O 2058   0.549   2.795   1.156
  624HOH     H1 2059   0.644   2.791   1.144
  624HOH     H2 2060   0.515   2.723   1.102
  625HOH      O 2061   1.202   2.979   1.376
  625HOH     H1 2062   1.218   3.067   1.410
  625HOH     H2 2063   1.287   2.952   1.341
  626HOH      O 2064   1.415   3.039   0.507
  626HOH     H1 2065   1.326   3.075   0.507
  626HOH     H2 2066   1.429   3.011   0.597
  627HOH      O 2067   2.834   0.840   0.075
  627HOH     H1 2068   2.750   0.886   0.067
  627HOH     H2 2069   2.873   0.845  -0.013
  628HOH      O 2070   1.814   0.063   3.390
  628HOH     H1 2071   1.736   0.069   3.445
  628HOH     H2 2072   1.815  -0.028   3.360
  629HOH      O 2073   0.346   1.317   1.953
  629HOH     H1 2074   0.429   1.270   1.967
  629HOH     H2 2075   0.299   1.305   2.035
  630HOH      O 2076   0.563   3.734   0.396
  630HOH     H1 2077   0.644   3.771   0.360
  630HOH     H2 2078   0.522   3.689   0.322
  631HOH      O 2079   2.548   1.535   1.404
  631HOH     H1 2080   2.570   1.494   1.321
  631HOH     H2 2081   2.591   1.620   1.402
  632HOH      O 2082   2.805   2.150   3.409
  632HOH     H1 2083   2.719   2.185   3.433
  632HOH     H2 2084   2.787   2.080   3.346
  633HOH      O 2085   3.482   0.817   0.372
  633HOH     H1 2086   3.431   0.898   0.374
  633HOH     H2 2087   3.536   0.819   0.451
  634HOH      O 2088   2.870   1.685   0.017
  634HOH     H1 2089   2.954   1.684   0.061
  634HOH     H2 2090   2.842   1.593   0.015
  635HOH      O 2091   2.546   0.419   1.972
  635HOH     H1 2092   2.457   0.420   1.939
  635HOH     H2 2093   2.537   0.417   2.067
  636HOH      O 2094   3.940   2.608   2.366
  636HOH     H1 2095   4.010   2.564   2.318
  636HOH     H2 2096   3.973   2.614   2.456
  637HOH      O 2097   3.923   0.645   1.956
  637HOH     H1 2098   3.936   0.568   2.011
  637HOH     H2 2099   3.942   0.719   2.014
  638HOH      O 2100   3.926   0.660   3.800
  638HOH     H1 2101   3.905   0.751   3.818
  638HOH     H2 2102   3.861   0.632   3.736
  639HOH      O 2103   4.012   1.398   1.284
  639HOH     H1 2104   3.989   1.425   1.196
  639HOH     H2 2105   3.962   1.456   1.341
  640HOH      O 2106   0.058   0.279   0.908
  640HOH     H1 2107  -0.000   0.246   0.840
  640HOH     H2 2108   0.109   0.203   0.935
  641HOH      O 2109   3.738   2.114   1.974
  641HOH     H1 2110   3.726   2.164   1.894
  641HOH     H2 2111   3.715   2.174   2.044
  642HOH      O 2112   0.124   1.300   0.112
  642HOH     H1 2113   0.170   1.364   0.058
  642HOH     H2 2114   0.191   1.235   0.135
  643HOH      O 2115   2.654   4.014   3.155
  643HOH     H1 2116   2.600   4.034   3.078
  643HOH     H2 2117   2.654   3.918   3.159
  644HOH      O 2118   2.120   2.320   3.782
  644HOH     H1 2119   2.117   2.364   3.697
  644HOH     H2 2120   2.084   2.383   3.843
  645HOH      O 2121   1.179   0.242   1.088
  645HOH     H1 2122   1.185   0.312   1.153
  645HOH     H2 2123   1.090   0.208   1.098
  646HOH      O 2124   3.643   3.019   3.985
  646HOH     H1 2125   3.551   3.031   4.008
  646HOH     H2 2126   3.677   2.957   4.050
  647HOH      O 2127   2.124   1.049   0.747
  647HOH     H1 2128   2.178   1.080   0.675
  647HOH     H2 2129   2.041   1.095   0.736
  648HOH      O 2130   1.596   0.818   3.831
  648HOH     H1 2131   1.521   0.847   3.884
  648HOH     H2 2132   1.647   0.763   3.890
  649HOH      O 2133   3.928   2.148   3.701
  649HOH     H1 2134   3.841   2.185   3.721
  649HOH     H2 2135   3.984   2.181   3.771
  650HOH      O 2136   1.264   0.970   2.970
  650HOH     H1 2137   1.347   0.927   2.992
  650HOH     H2 2138   1.256   0.962   2.875
  651HOH      O 2139   0.370   1.836   0.401
  651HOH     H1 2140   0.308   1.816   0.471
  651HOH     H2 2141   0.346   1.924   0.372
  652HOH      O 2142   1.080   3.312   1.206
  652HOH     H1 2143   1.074   3.378   1.137
  652HOH     H2 2144   0.992   3.275   1.211
  653HOH      O 2145   3.930   2.176   0.053
  653HOH     H1 2146   3.874   2.106   0.019
  653HOH     H2 2147   3.884   2.256   0.028
  654HOH      O 2148   1.060   1.348   3.906
  654HOH     H1 2149   0.972   1.355   3.943
  654HOH     H2 2150   1.118   1.362   3.981
  655HOH      O 2151   2.214   2.550   2.037
  655HOH     H1 2152   2.174   2.555   1.950
  655HOH     H2 2153   2.304   2.522   2.020
  656HOH      O 2154   1.806   1.051   1.749
  656HOH     H1 2155   1.868   1.055   1.823
  656HOH     H2 2156   1.861   1.025   1.675
  657HOH      O 2157   1.293   2.028   3.901
  657HOH     H1 2158   1.311   1.992   3.814
  657HOH     H2 2159   1.370   2.005   3.953
  658HOH      O 2160   3.057   1.478   2.900
  658HOH     H1 2161   3.063   1.568   2.929
  658HOH     H2 2162   3.120   1.471   2.828
  659HOH      O 2163   2.367   0.720   2.129
  659HOH     H1 2164   2.297   0.781   2.152
  659HOH     H2 2165   2.370   0.722   2.033
  660HOH      O 2166   3.203   1.478   1.033
  660HOH     H1 2167   3.171   1.529   0.958
  660HOH     H2 2168   3.297   1.472   1.019
  661HOH      O 2169   2.064   1.856   3.599
  661HOH     H1 2170   2.115   1.935   3.579
  661HOH     H2 2171   2.081   1.798   3.525
  662HOH      O 2172   2.752   1.985   2.207
  662HOH     H1 2173   2.744   2.061   2.150
  662HOH     H2 2174   2.677   1.991   2.266
  663HOH      O 2175   0.404   3.888   1.706
  663HOH     H1 2176   0.426   3.821   1.641
  663HOH     H2 2177   0.313   3.911   1.687
  664HOH      O 2178   1.357   0.854   3.506
  664HOH     H1 2179   1.304   0.922   3.547
  664HOH     H2 2180   1.311   0.772   3.527
  665HOH      O 2181   1.069   3.381   2.619
  665HOH     H1 2182   1.147   3.428   2.647
  665HOH     H2 2183   1.015   3.448   2.576
  666HOH      O 2184   3.521   3.617   2.538
  666HOH     H1 2185   3.592   3.642   2.478
  666HOH     H2 2186   3.565   3.563   2.604
  667HOH      O 2187   3.884   3.164   3.247
  667HOH     H1 2188   3.879   3.096   3.314
  667HOH     H2 2189   3.941   3.128   3.180
  668HOH      O 2190   2.469   1.038   2.038
  668HOH     H1 2191   2.463   1.122   1.993
  668HOH     H2 2192   2.546   1.047   2.095
  669HOH      O 2193   2.044   0.185   1.132
  669HOH     H1 2194   2.039   0.090   1.121
  669HOH     H2 2195   2.137   0.205   1.121
  670HOH      O 2196   2.205   0.410   2.365
  670HOH     H1 2197   2.138   0.388   2.430
  670HOH     H2 2198   2.205   0.335   2.306
  671HOH      O 2199   1.253   2.540   2.001
  671HOH     H1 2200   1.265   2.510   2.091
  671HOH     H2 2201   1.166   2.581   2.001
  672HOH      O 2202   0.657   3.855   0.145
  672HOH     H1 2203   0.739   3.837   0.191
  672HOH     H2 2204   0.642   3.779   0.090
  673HOH      O 2205   3.991   3.378   2.127
  673HOH     H1 2206   3.920   3.442   2.118
  673HOH     H2 2207   3.979   3.341   2.214
  674HOH      O 2208   2.300   0.230   1.056
  674HOH     H1 2209   2.321   0.319   1.028
  674HOH     H2 2210   2.335   0.175   0.987
  675HOH      O 2211   2.688   3.747   3.246
  675HOH     H1 2212   2.674   3.686   3.174
  675HOH     H2 2213   2.622   3.723   3.311
  676HOH      O 2214   0.864   0.757   0.682
  676HOH     H1 2215   0.893   0.822   0.747
  676HOH     H2 2216   0.825   0.809   0.612
  677HOH      O 2217   1.413   0.117   3.381
  677HOH     H1 2218   1.446   0.164   3.305
  677HOH     H2 2219   1.322   0.144   3.389
  678HOH      O 2220   0.616   1.515   2.101
  678HOH     H1 2221   0.564   1.460   2.160
  678HOH     H2 2222   0.591   1.605   2.122
  679HOH      O 2223   3.690   3.126   1.483
  679HOH     H1 2224   3.596   3.122   1.504
  679HOH     H2 2225   3.734   3.095   1.562
  680HOH      O 2226   2.198   1.277   2.430
  680HOH     H1 2227   2.293   1.269   2.443
  680HOH     H2 2228   2.169   1.187   2.410
  681HOH      O 2229   1.350   0.223   3.144
  681HOH     H1 2230   1.397   0.283   3.086
  681HOH     H2 2231   1.293   0.279   3.197
  682HOH      O 2232   3.404   2.107   2.960
  682HOH     H1 2233   3.320   2.063   2.973
  682HOH     H2 2234   3.395   2.189   3.008
  683HOH      O 2235   1.070   0.311   1.846
  683HOH     H1 2236   1.136   0.360   1.796
  683HOH     H2 2237   1.052   0.366   1.922
  684HOH      O 2238   0.431   1.276   0.403
  684HOH     H1 2239   0.514   1.301   0.445
  684HOH     H2 2240   0.436   1.313   0.315
  685HOH      O 2241   2.047   3.245   3.139
  685HOH     H1 2242   2.010   3.173   3.190
  685HOH     H2 2243   2.137   3.252   3.172
  686HOH      O 2244   0.925   1.299   0.621
  686HOH     H1 2245   0.925   1.203   0.613
  686HOH     H2 2246   1.017   1.323   0.627
  687HOH      O 2247   0.442   3.668   1.510
  687HOH     H1 2248   0.358   3.648   1.469
  687HOH     H2 2249   0.475   3.584   1.542
  688HOH      O 2250   2.178   0.200   2.203
  688HOH     H1 2251   2.160   0.194   2.110
  688HOH     H2 2252   2.268   0.168   2.212
  689HOH      O 2253   3.250   1.364   1.571
  689HOH     H1 2254   3.270   1.458   1.566
  689HOH     H2 2255   3.274   1.330   1.484
  690HOH      O 2256   2.039   0.797   3.327
  690HOH     H1 2257   2.037   0.714   3.375
  690HOH     H2 2258   1.959   0.796   3.274
  691HOH      O 2259   1.827   0.335   1.686
  691HOH     H1 2260   1.855   0.266   1.627
  691HOH     H2 2261   1.806   0.409   1.629
  692HOH      O 2262   0.255   3.889   3.602
  692HOH     H1 2263   0.336   3.844   3.579
  692HOH     H2 2264   0.235   3.861   3.691
  693HOH      O 2265   0.205   0.931   1.564
  693HOH     H1 2266   0.219   0.836   1.568
  693HOH     H2 2267   0.111   0.941   1.550
  694HOH      O 2268   1.862   3.791   3.964
  694HOH     H1 2269   1.899   3.707   3.937
  694HOH     H2 2270   1.926   3.826   4.028
  695HOH      O 2271   2.250   2.780   0.123
  695HOH     H1 2272   2.334   2.789   0.168
  695HOH     H2 2273   2.262   2.704   0.066
  696HOH      O 2274   3.115   2.896   2.243
  696HOH     H1 2275   3.086   2.910   2.333
  696HOH     H2 2276   3.065   2.960   2.192
  697HOH      O 2277   2.799   2.283   3.089
  697HOH     H1 2278   2.835   2.289   3.177
  697HOH     H2 2279   2.750   2.364   3.077
  698HOH      O 2280   2.143   0.094   0.713
  698HOH     H1 2281   2.135   0.000   0.731
  698HOH     H2 2282   2.208   0.125   0.776
  699HOH      O 2283   2.106   1.173   3.426
  699HOH     H1 2284   2.127   1.231   3.500
  699HOH     H2 2285   2.027   1.211   3.388
  700HOH      O 2286   1.969   2.330   0.388
  700HOH     H1 2287   2.041   2.288   0.434
  700HOH     H2 2288   1.938   2.399   0.448
  701HOH      O 2289   1.506   0.348   2.092
  701HOH     H1 2290   1.446   0.278   2.120
  701HOH     H2 2291   1.519   0.400   2.171
  702HOH      O 2292   3.212   3.526   1.841
  702HOH     H1 2293   3.203   3.621   1.847
  702HOH     H2 2294   3.211   3.508   1.747
  703HOH      O 2295   2.965   0.251   3.905
  703HOH     H1 2296   2.889   0.216   3.859
  703HOH     H2 2297   2.936   0.335   3.940
  704HOH      O 2298   3.210   2.415   0.323
  704HOH     H1 2299   3.158   2.493   0.302
  704HOH     H2 2300   3.161   2.343   0.282
  705HOH      O 2301   0.207   2.071   1.432
  705HOH     H1 2302   0.167   2.081   1.518
  705HOH     H2 2303   0.292   2.115   1.440
  706HOH      O 2304   0.180   2.535   3.984
  706HOH     H1 2305   0.172   2.628   3.962
  706HOH     H2 2306   0.274   2.518   3.979
  707HOH      O 2307   1.028   0.191   2.181
  707HOH     H1 2308   0.946   0.224   2.145
  707HOH     H2 2309   1.009   0.102   2.208
  708HOH      O 2310   3.777   0.901   0.292
  708HOH     H1 2311   3.746   0.992   0.286
  708HOH     H2 2312   3.850   0.906   0.353
  709HOH      O 2313   1.512   1.885   2.639
  709HOH     H1 2314   1.497   1.979   2.646
  709HOH     H2 2315   1.429   1.846   2.668
  710HOH      O 2316   0.560   2.376   1.818
  710HOH     H1 2317   0.607   2.312   1.872
  710HOH     H2 2318   0.585   2.461   1.854
  711HOH      O 2319   2.937   0.051   3.216
  711HOH     H1 2320   2.995  -0.025   3.219
  711HOH     H2 2321   2.849   0.015   3.214
  712HOH      O 2322   1.234   2.627   0.227
  712HOH     H1 2323   1.279   2.693   0.279
  712HOH     H2 2324   1.146   2.661   0.216
  713HOH      O 2325   1.511   1.504   3.513
  713HOH     H1 2326   1.597   1.465   3.497
  713HOH     H2 2327   1.530   1.584   3.562
  714HOH      O 2328   4.001   0.472   4.005
  714HOH     H1 2329   3.957   0.541   3.956
  714HOH     H2 2330   4.016   0.403   3.940
  715HOH      O 2331   1.521   2.591   1.944
  715HOH     H1 2332   1.541   2.662   2.006
  715HOH     H2 2333   1.433   2.563   1.968
  716HOH      O 2334   3.079   3.299   0.398
  716HOH     H1 2335   3.118   3.384   0.376
  716HOH     H2 2336   3.139   3.261   0.462
  717HOH      O 2337   2.491   0.683   0.971
  717HOH     H1 2338   2.503   0.634   0.889
  717HOH     H2 2339   2.424   0.748   0.950
  718HOH      O 2340   1.230   1.832   2.624
  718HOH     H1 2341   1.206   1.741   2.603
  718HOH     H2 2342   1.175   1.885   2.567
  719HOH      O 2343   1.668   1.805   3.370
  719HOH     H1 2344   1.699   1.846   3.451
  719HOH     H2 2345   1.739   1.819   3.307
  720HOH      O 2346   2.363   3.034   0.272
  720HOH     H1 2347   2.441   3.004   0.318
  720HOH     H2 2348   2.294   3.033   0.338
  721HOH      O 2349   1.327   2.772   3.730
  721HOH     H1 2350   1.393   2.811   3.787
  721HOH     H2 2351   1.246   2.818   3.754
  722HOH      O 2352   1.864   3.804   1.988
  722HOH     H1 2353   1.833   3.750   1.915
  722HOH     H2 2354   1.871   3.743   2.061
  723HOH      O 2355   1.537   2.147   1.558
  723HOH     H1 2356   1.557   2.219   1.498
  723HOH     H2 2357   1.618   2.136   1.609
  724HOH      O 2358   1.528   2.259   3.343
  724HOH     H1 2359   1.585   2.337   3.349
  724HOH     H2 2360   1.535   2.232   3.251
  725HOH      O 2361   0.980   0.347   3.589
  725HOH     H1 2362   1.032   0.383   3.661
  725HOH     H2 2363   0.908   0.301   3.632
  726HOH      O 2364   0.699   0.529   0.187
  726HOH     H1 2365   0.696   0.442   0.146
  726HOH     H2 2366   0.777   0.570   0.150
  727HOH      O 2367   3.795   3.719   3.840
  727HOH     H1 2368   3.743   3.795   3.815
  727HOH     H2 2369   3.821   3.679   3.757
  728HOH      O 2370   3.924   1.181   3.963
  728HOH     H1 2371   3.993   1.193   4.028
  728HOH     H2 2372   3.846   1.219   4.004
  729HOH      O 2373   2.102   1.424   1.354
  729HOH     H1 2374   2.047   1.437   1.431
  729HOH     H2 2375   2.116   1.330   1.350
  730HOH      O 2376   0.822   0.299   2.015
  730HOH     H1 2377   0.825   0.373   2.076
  730HOH     H2 2378   0.753   0.322   1.954
  731HOH      O 2379   1.733   3.663   0.209
  731HOH     H1 2380   1.785   3.735   0.171
  731HOH     H2 2381   1.746   3.671   0.303
  732HOH      O 2382   1.511   3.466   1.340
  732HOH     H1 2383   1.540   3.487   1.429
  732HOH     H2 2384   1.567   3.520   1.284
  733HOH      O 2385   0.170   3.582   1.964
  733HOH     H1 2386   0.097   3.640   1.986
  733HOH     H2 2387   0.140   3.495   1.990
  734HOH      O 2388   0.933   2.465   3.013
  734HOH     H1 2389   0.843   2.468   3.046
  734HOH     H2 2390   0.985   2.500   3.085
  735HOH      O 2391   2.815   1.831   3.806
  735HOH     H1 2392   2.862   1.768   3.862
  735HOH     H2 2393   2.737   1.855   3.857
  736HOH      O 2394   2.018   1.828   2.663
  736HOH     H1 2395   2.003   1.913   2.704
  736HOH     H2 2396   1.932   1.785   2.663
  737HOH      O 2397   0.138   0.028   1.622
  737HOH     H1 2398   0.138   0.039   1.527
  737HOH     H2 2399   0.159   0.115   1.656
  738HOH      O 2400   2.377   3.797   2.725
  738HOH     H1 2401   2.447   3.860   2.707
  738HOH     H2 2402   2.416   3.734   2.785
  739HOH      O 2403   2.935   1.819   1.017
  739HOH     H1 2404   3.010   1.827   0.957
  739HOH     H2 2405   2.893   1.905   1.014
  740HOH      O 2406   2.843   0.184   0.141
  740HOH     H1 2407   2.903   0.257   0.157
  740HOH     H2 2408   2.843   0.173   0.046
  741HOH      O 2409   1.954   3.010   2.489
  741HOH     H1 2410   2.023   2.947   2.465
  741HOH     H2 2411   1.952   3.072   2.417
  742HOH      O 2412   3.964   3.399   2.621
  742HOH     H1 2413   3.945   3.394   2.527
  742HOH     H2 2414   4.019   3.477   2.630
  743HOH      O 2415   1.000   0.907   0.840
  743HOH     H1 2416   1.032   0.895   0.929
  743HOH     H2 2417   1.054   0.848   0.787
  744HOH      O 2418   2.483   2.106   3.247
  744HOH     H1 2419   2.493   2.176   3.311
  744HOH     H2 2420   2.474   2.027   3.299
  745HOH      O 2421   2.054   0.561   1.623
  745HOH     H1 2422   1.978   0.556   1.566
  745HOH     H2 2423   2.128   0.537   1.567
  746HOH      O 2424   3.663   0.381   1.585
  746HOH     H1 2425   3.696   0.304   1.631
  746HOH     H2 2426   3.740   0.437   1.576
  747HOH      O 2427   1.912   1.539   1.519
  747HOH     H1 2428   1.819   1.545   1.496
  747HOH     H2 2429   1.917   1.465   1.579
  748HOH      O 2430   1.727   0.645   0.788
  748HOH     H1 2431   1.650   0.597   0.819
  748HOH     H2 2432   1.801   0.589   0.809
  749HOH      O 2433   0.651   2.941   0.193
  749HOH     H1 2434   0.718   3.008   0.195
  749HOH     H2 2435   0.689   2.870   0.141
  750HOH      O 2436   1.895   1.170   0.735
  750HOH     H1 2437   1.856   1.156   0.649
  750HOH     H2 2438   1.873   1.261   0.757
  751HOH      O 2439   1.270   1.701   1.338
  751HOH     H1 2440   1.307   1.613   1.339
  751HOH     H2 2441   1.344   1.758   1.359
  752HOH      O 2442   3.347   0.837   3.218
  752HOH     H1 2443   3.306   0.924   3.214
  752HOH     H2 2444   3.441   0.856   3.225
  753HOH      O 2445   0.287   1.919   3.784
  753HOH     H1 2446   0.234   1.984   3.737
  753HOH     H2 2447   0.238   1.903   3.865
  754HOH      O 2448   2.940   0.254   2.647
  754HOH     H1 2449   2.849   0.243   2.673
  754HOH     H2 2450   2.937   0.309   2.569
  755HOH      O 2451   0.035   1.761   3.449
  755HOH     H1 2452  -0.015   1.804   3.380
  755HOH     H2 2453   0.125   1.758   3.415
  756HOH      O 2454   1.628   1.493   0.394
  756HOH     H1 2455   1.600   1.507   0.484
  756HOH     H2 2456   1.721   1.472   0.400
  757HOH      O 2457   3.630   0.911   0.624
  757HOH     H1 2458   3.684   0.989   0.617
  757HOH     H2 2459   3.560   0.935   0.684
  758HOH      O 2460   0.421   0.941   0.374
  758HOH     H1 2461   0.348   0.978   0.423
  758HOH     H2 2462   0.413   0.847   0.386
  759HOH      O 2463   1.261   0.741   0.170
  759HOH     H1 2464   1.242   0.658   0.127
  759HOH     H2 2465   1.176   0.784   0.178
  760HOH      O 2466   1.186   2.224   3.627
  760HOH     H1 2467   1.212   2.255   3.714
  760HOH     H2 2468   1.242   2.272   3.566
  761HOH      O 2469   1.559   2.156   3.091
  761HOH     H1 2470   1.486   2.182   3.035
  761HOH     H2 2471   1.555   2.061   3.094
  762HOH      O 2472   1.587   2.419   2.221
  762HOH     H1 2473   1.654   2.479   2.189
  762HOH     H2 2474   1.613   2.333   2.188
  763HOH      O 2475   0.699   3.694   2.886
  763HOH     H1 2476   0.758   3.739   2.825
  763HOH     H2 2477   0.721   3.601   2.877
  764HOH      O 2478   3.425   1.017   1.831
  764HOH     H1 2479   3.512   0.984   1.856
  764HOH     H2 2480   3.443   1.090   1.773
  765HOH      O 2481   1.335   3.117   1.009
  765HOH     H1 2482   1.332   3.053   1.080
  765HOH     H2 2483   1.409   3.173   1.030
  766HOH      O 2484   0.289   3.058   0.517
  766HOH     H1 2485   0.231   3.000   0.566
  766HOH     H2 2486   0.365   3.003   0.496
  767HOH      O 2487   3.602   0.078   3.336
  767HOH     H1 2488   3.684   0.073   3.385
  767HOH     H2 2489   3.618   0.145   3.270
  768HOH      O 2490   0.757  -0.017   1.000
  768HOH     H1 2491   0.691   0.033   1.049
  768HOH     H2 2492   0.739   0.003   0.908
  769HOH      O 2493   1.327   2.362   2.538
  769HOH     H1 2494   1.347   2.270   2.520
  769HOH     H2 2495   1.325   2.368   2.633
  770HOH      O 2496   3.509   2.282   0.863
  770HOH     H1 2497   3.424   2.324   0.847
  770HOH     H2 2498   3.524   2.294   0.957
  771HOH      O 2499   3.506   2.339   1.158
  771HOH     H1 2500   3.455   2.259   1.173
  771HOH     H2 2501   3.595   2.316   1.182
  772HOH      O 2502   1.868   3.060   3.722
  772HOH     H1 2503   1.886   3.153   3.711
  772HOH     H2 2504   1.898   3.020   3.640
  773HOH      O 2505   3.387   0.595   1.916
  773HOH     H1 2506   3.339   0.678   1.920
  773HOH     H2 2507   3.426   0.593   1.828
  774HOH      O 2508   0.093   0.195   2.818
  774HOH     H1 2509   0.081   0.229   2.729
  774HOH     H2 2510   0.056   0.262   2.875
  775HOH      O 2511   1.174   3.550   1.389
  775HOH     H1 2512   1.167   3.464   1.347
  775HOH     H2 2513   1.193   3.530   1.481
  776HOH      O 2514   3.846   3.315   2.399
  776HOH     H1 2515   3.786   3.342   2.330
  776HOH     H2 2516   3.821   3.224   2.419
  777HOH      O 2517   2.396   2.260   0.638
  777HOH     H1 2518   2.480   2.305   0.638
  777HOH     H2 2519   2.376   2.246   0.730
  778HOH      O 2520   3.841   0.847   2.205
  778HOH     H1 2521   3.877   0.854   2.117
  778HOH     H2 2522   3.850   0.935   2.241
  779HOH      O 2523   2.920   3.605   1.380
  779HOH     H1 2524   2.844   3.551   1.356
  779HOH     H2 2525   2.897   3.692   1.349
  780HOH      O 2526   1.244   2.014   0.698
  780HOH     H1 2527   1.237   2.027   0.793
  780HOH     H2 2528   1.336   1.990   0.684
  781HOH      O 2529   3.987   2.919   2.550
  781HOH     H1 2530   3.940   2.889   2.628
  781HOH     H2 2531   4.014   3.008   2.571
  782HOH      O 2532   0.321   0.972   3.754
  782HOH     H1 2533   0.410   0.941   3.772
  782HOH     H2 2534   0.330   1.021   3.671
  783HOH      O 2535   2.197   2.143   1.157
  783HOH     H1 2536   2.154   2.060   1.173
  783HOH     H2 2537   2.127   2.202   1.128
  784HOH      O 2538   2.445   3.515   0.638
  784HOH     H1 2539   2.468   3.533   0.547
  784HOH     H2 2540   2.376   3.449   0.632
  785HOH      O 2541   3.379   0.223   2.874
  785HOH     H1 2542   3.421   0.139   2.893
  785HOH     H2 2543   3.328   0.243   2.953
  786HOH      O 2544   0.472   3.734   3.489
  786HOH     H1 2545   0.411   3.754   3.419
  786HOH     H2 2546   0.510   3.650   3.465
  787HOH      O 2547   2.294   3.644   1.117
  787HOH     H1 2548   2.341   3.575   1.163
  787HOH     H2 2549   2.351   3.721   1.124
  788HOH      O 2550   1.799   1.834   1.167
  788HOH     H1 2551   1.758   1.848   1.082
  788HOH     H2 2552   1.785   1.742   1.185
  789HOH      O 2553   2.690   1.468   0.472
  789HOH     H1 2554   2.642   1.521   0.408
  789HOH     H2 2555   2.679   1.516   0.554
  790HOH      O 2556   2.853   1.978   3.002
  790HOH     H1 2557   2.781   1.955   2.943
  790HOH     H2 2558   2.844   2.072   3.015
  791HOH      O 2559   2.608   3.892   2.377
  791HOH     H1 2560   2.517   3.873   2.401
  791HOH     H2 2561   2.660   3.862   2.451
  792HOH      O 2562   2.213   2.211   0.462
  792HOH     H1 2563   2.276   2.226   0.532
  792HOH     H2 2564   2.252   2.142   0.409
  793HOH      O 2565   3.359   3.818   1.608
  793HOH     H1 2566   3.402   3.786   1.687
  793HOH     H2 2567   3.384   3.755   1.540
  794HOH      O 2568   2.280   1.700   1.390
  794HOH     H1 2569   2.235   1.637   1.334
  794HOH     H2 2570   2.356   1.653   1.423
  795HOH      O 2571   2.120   2.299   3.100
  795HOH     H1 2572   2.054   2.293   3.031
  795HOH     H2 2573   2.163   2.383   3.085
  796HOH      O 2574   0.633   1.023   1.090
  796HOH     H1 2575   0.646   1.106   1.045
  796HOH     H2 2576   0.720   1.001   1.125
  797HOH      O 2577   3.961   2.006   2.160
  797HOH     H1 2578   4.008   2.089   2.155
  797HOH     H2 2579   3.889   2.015   2.098
  798HOH      O 2580   0.616   1.008   0.691
  798HOH     H1 2581   0.665   1.050   0.762
  798HOH     H2 2582   0.543   1.067   0.673
  799HOH      O 2583   2.632   1.842   1.671
  799HOH     H1 2584   2.591   1.764   1.709
  799HOH     H2 2585   2.567   1.912   1.686
  800HOH      O 2586   2.553   1.118   2.733
  800HOH     H1 2587   2.631   1.165   2.761
  800HOH     H2 2588   2.581   1.068   2.656
  801HOH      O 2589   3.020   0.392   0.144
  801HOH     H1 2590   3.112   0.417   0.156
  801HOH     H2 2591   2.997   0.426   0.058
  802HOH      O 2592   0.857   3.761   1.044
  802HOH     H1 2593   0.903   3.749   1.127
  802HOH     H2 2594   0.814   3.847   1.052
  803HOH      O 2595   0.854   2.078   3.320
  803HOH     H1 2596   0.866   1.983   3.319
  803HOH     H2 2597   0.839   2.100   3.412
  804HOH      O 2598   0.187   1.266   2.181
  804HOH     H1 2599   0.106   1.214   2.177
  804HOH     H2 2600   0.157   1.355   2.201
  805HOH      O 2601   1.796   3.715   0.737
  805HOH     H1 2602   1.726   3.651   0.724
  805HOH     H2 2603   1.768   3.767   0.812
  806HOH      O 2604   1.393   3.392   3.651
  806HOH     H1 2605   1.380   3.299   3.632
  806HOH     H2 2606   1.414   3.395   3.744
  807HOH      O 2607   1.715   3.583   1.799
  807HOH     H1 2608   1.700   3.489   1.810
  807HOH     H2 2609   1.801   3.590   1.759
  808HOH      O 2610   1.150   3.709   2.937
  808HOH     H1 2611   1.157   3.739   2.847
  808HOH     H2 2612   1.235   3.671   2.957
  809HOH      O 2613   0.490   2.087   3.182
  809HOH     H1 2614   0.467   2.120   3.269
  809HOH     H2 2615   0.493   2.166   3.127
  810HOH      O 2616   1.051   1.747   3.725
  810HOH     H1 2617   0.975   1.719   3.775
  810HOH     H2 2618   1.037   1.840   3.709
  811HOH      O 2619   2.543   3.596   1.460
  811HOH     H1 2620   2.540   3.646   1.542
  811HOH     H2 2621   2.560   3.662   1.392
  812HOH      O 2622   0.429   2.699   2.527
  812HOH     H1 2623   0.507   2.659   2.487
  812HOH     H2 2624   0.451   2.706   2.620
  813HOH      O 2625  -0.003   0.519   0.735
  813HOH     H1 2626   0.036   0.566   0.810
  813HOH     H2 2627  -0.030   0.435   0.771
  814HOH      O 2628   3.013   3.796   2.257
  814HOH     H1 2629   3.041   3.709   2.284
  814HOH     H2 2630   2.992   3.841   2.339
  815HOH      O 2631   1.934   0.219   3.714
  815HOH     H1 2632   1.989   0.255   3.644
  815HOH     H2 2633   1.943   0.124   3.707
  816HOH      O 2634   0.849   3.558   1.592
  816HOH     H1 2635   0.800   3.479   1.567
  816HOH     H2 2636   0.832   3.620   1.522
  817HOH      O 2637   0.257   3.129   1.102
  817HOH     H1 2638   0.320   3.080   1.155
  817HOH     H2 2639   0.262   3.087   1.016
  818HOH      O 2640   1.116   0.890   1.062
  818HOH     H1 2641   1.123   0.905   1.156
  818HOH     H2 2642   1.200   0.851   1.037
  819HOH      O 2643   2.796   3.688   1.036
  819HOH     H1 2644   2.876   3.736   1.015
  819HOH     H2 2645   2.758   3.667   0.951
  820HOH      O 2646   1.552  -0.007   0.508
  820HOH     H1 2647   1.602   0.065   0.547
  820HOH     H2 2648   1.547   0.016   0.415
  821HOH      O 2649   0.125   3.564   0.508
  821HOH     H1 2650   0.190   3.629   0.536
  821HOH     H2 2651   0.173   3.482   0.504
  822HOH      O 2652   1.276   1.482   1.875
  822HOH     H1 2653   1.299   1.552   1.936
  822HOH     H2 2654   1.185   1.499   1.851
  823HOH      O 2655   0.271   3.775   0.668
  823HOH     H1 2656   0.236   3.724   0.741
  823HOH     H2 2657   0.366   3.768   0.677
  824HOH      O 2658   3.400   1.898   1.433
  824HOH     H1 2659   3.377   1.957   1.504
  824HOH     H2 2660   3.317   1.881   1.389
  825HOH      O 2661   2.372   0.667   3.978
  825HOH     H1 2662   2.333   0.586   4.012
  825HOH     H2 2663   2.340   0.673   3.889
  826HOH      O 2664   1.534   2.630   1.482
  826HOH     H1 2665   1.443   2.659   1.471
  826HOH     H2 2666   1.558   2.658   1.570
  827HOH      O 2667   0.302   2.789   3.395
  827HOH     H1 2668   0.375   2.841   3.362
  827HOH     H2 2669   0.285   2.825   3.482
  828HOH      O 2670   1.443   3.228   3.315
  828HOH     H1 2671   1.454   3.175   3.394
  828HOH     H2 2672   1.354   3.263   3.321
  829HOH      O 2673   2.788   0.602   0.889
  829HOH     H1 2674   2.743   0.609   0.805
  829HOH     H2 2675   2.748   0.670   0.943
  830HOH      O 2676   0.949   2.185   1.231
  830HOH     H1 2677   1.027   2.149   1.273
  830HOH     H2 2678   0.878   2.127   1.260
  831HOH      O 2679   0.693   3.324   2.981
  831HOH     H1 2680   0.632   3.373   2.925
  831HOH     H2 2681   0.742   3.269   2.920
  832HOH      O 2682   1.732   1.042   3.764
  832HOH     H1 2683   1.682   0.962   3.782
  832HOH     H2 2684   1.794   1.048   3.837
  833HOH      O 2685   2.706   1.129   1.312
  833HOH     H1 2686   2.642   1.074   1.358
  833HOH     H2 2687   2.788   1.081   1.321
  834HOH      O 2688   2.111   2.436   3.516
  834HOH     H1 2689   2.180   2.442   3.451
  834HOH     H2 2690   2.071   2.523   3.516
  835HOH      O 2691   0.933   3.118   3.156
  835HOH     H1 2692   0.986   3.092   3.080
  835HOH     H2 2693   0.873   3.045   3.170
  836HOH      O 2694   2.881   3.787   3.471
  836HOH     H1 2695   2.795   3.750   3.450
  836HOH     H2 2696   2.925   3.795   3.386
  837HOH      O 2697   2.445   0.623   2.857
  837HOH     H1 2698   2.428   0.659   2.944
  837HOH     H2 2699   2.387   0.673   2.799
  838HOH      O 2700   3.659   2.495   2.734
  838HOH     H1 2701   3.740   2.503   2.784
  838HOH     H2 2702   3.643   2.583   2.700
  839HOH      O 2703   0.169   0.805   2.876
  839HOH     H1 2704   0.126   0.792   2.961
  839HOH     H2 2705   0.105   0.851   2.823
  840HOH      O 2706   3.155   1.083   0.907
  840HOH     H1 2707   3.197   1.135   0.976
  840HOH     H2 2708   3.102   1.020   0.954
  841HOH      O 2709   0.665   1.013   0.254
  841HOH     H1 2710   0.576   1.002   0.287
  841HOH     H2 2711   0.656   1.014   0.158
  842HOH      O 2712   3.958   1.006   1.518
  842HOH     H1 2713   3.874   0.969   1.491
  842HOH     H2 2714   3.948   1.101   1.504
  843HOH      O 2715   3.215   3.266   1.979
  843HOH     H1 2716   3.231   3.344   1.927
  843HOH     H2 2717   3.283   3.268   2.047
  844HOH      O 2718   2.566   0.588   0.709
  844HOH     H1 2719   2.618   0.663   0.678
  844HOH     H2 2720   2.570   0.525   0.637
  845HOH      O 2721   3.323   1.543   1.834
  845HOH     H1 2722   3.345   1.584   1.918
  845HOH     H2 2723   3.272   1.610   1.788
  846HOH      O 2724   2.927   1.853   0.421
  846HOH     H1 2725   2.869   1.803   0.478
  846HOH     H2 2726   2.923   1.943   0.455
  847HOH      O 2727   0.561   3.358   2.377
  847HOH     H1 2728   0.472   3.386   2.353
  847HOH     H2 2729   0.614   3.381   2.301
  848HOH      O 2730   3.360   3.277   2.237
  848HOH     H1 2731   3.431   3.214   2.247
  848HOH     H2 2732   3.373   3.339   2.309
  849HOH      O 2733   0.382   3.142   3.447
  849HOH     H1 2734   0.453   3.094   3.405
  849HOH     H2 2735   0.304   3.118   3.397
  850HOH      O 2736   3.204   3.845   3.458
  850HOH     H1 2737   3.197   3.760   3.501
  850HOH     H2 2738   3.156   3.834   3.376
  851HOH      O 2739   0.923   1.811   3.340
  851HOH     H1 2740   0.928   1.783   3.431
  851HOH     H2 2741   0.880   1.739   3.294
  852HOH      O 2742   0.394   0.295   2.088
  852HOH     H1 2743   0.447   0.372   2.108
  852HOH     H2 2744   0.423   0.267   2.001
  853HOH      O 2745   3.659   2.259   1.738
  853HOH     H1 2746   3.718   2.317   1.690
  853HOH     H2 2747   3.573   2.274   1.698
  854HOH      O 2748   2.541   0.320   3.414
  854HOH     H1 2749   2.599   0.301   3.487
  854HOH     H2 2750   2.542   0.241   3.361
  855HOH      O 2751   0.998   0.818   0.292
  855HOH     H1 2752   0.935   0.866   0.346
  855HOH     H2 2753   1.019   0.740   0.343
  856HOH      O 2754   1.832   1.839   2.092
  856HOH     H1 2755   1.872   1.852   2.006
  856HOH     H2 2756   1.806   1.747   2.093
  857HOH      O 2757   2.412   3.502   3.204
  857HOH     H1 2758   2.475   3.544   3.264
  857HOH     H2 2759   2.345   3.569   3.190
  858HOH      O 2760   1.578   2.861   2.348
  858HOH     H1 2761   1.609   2.901   2.429
  858HOH     H2 2762   1.530   2.783   2.375
  859HOH      O 2763   1.451   1.143   3.407
  859HOH     H1 2764   1.533   1.141   3.455
  859HOH     H2 2765   1.384   1.121   3.473
  860HOH      O 2766   3.030   1.260   1.132
  860HOH     H1 2767   3.104   1.314   1.104
  860HOH     H2 2768   2.967   1.323   1.168
  861HOH      O 2769   2.941   2.686   1.867
  861HOH     H1 2770   2.870   2.750   1.879
  861HOH     H2 2771   2.903   2.602   1.894
  862HOH      O 2772   0.030   1.122   3.176
  862HOH     H1 2773   0.097   1.109   3.243
  862HOH     H2 2774  -0.051   1.092   3.217
  863HOH      O 2775   1.774   3.503   1.514
  863HOH     H1 2776   1.821   3.579   1.482
  863HOH     H2 2777   1.712   3.538   1.578
  864HOH      O 2778   1.963   3.483   2.713
  864HOH     H1 2779   1.944   3.427   2.788
  864HOH     H2 2780   2.058   3.498   2.717
  865HOH      O 2781   0.548   1.185   2.845
  865HOH     H1 2782   0.627   1.141   2.873
  865HOH     H2 2783   0.492   1.115   2.812
  866HOH      O 2784   1.058   1.380   1.525
  866HOH     H1 2785   1.120   1.308   1.511
  866HOH     H2 2786   1.065   1.433   1.446
  867HOH      O 2787   3.267   0.759   0.711
  867HOH     H1 2788   3.205   0.755   0.638
  867HOH     H2 2789   3.281   0.668   0.736
  868HOH      O 2790   1.453   3.088   2.336
  868HOH     H1 2791   1.500   3.005   2.341
  868HOH     H2 2792   1.375   3.074   2.390
  869HOH      O 2793   2.397   2.300   2.629
  869HOH     H1 2794   2.346   2.232   2.673
  869HOH     H2 2795   2.337   2.338   2.565
  870HOH      O 2796   1.795   2.877   0.046
  870HOH     H1 2797   1.790   2.812  -0.025
  870HOH     H2 2798   1.840   2.832   0.117
  871HOH      O 2799   1.644   2.144   2.663
  871HOH     H1 2800   1.651   2.240   2.668
  871HOH     H2 2801   1.732   2.113   2.681
  872HOH      O 2802   1.726   3.982   1.517
  872HOH     H1 2803   1.736   3.917   1.448
  872HOH     H2 2804   1.684   3.935   1.589
  873HOH      O 2805   3.687   3.777   1.676
  873HOH     H1 2806   3.653   3.779   1.766
  873HOH     H2 2807   3.728   3.863   1.664
  874HOH      O 2808   1.999   3.105   0.671
  874HOH     H1 2809   1.938   3.043   0.632
  874HOH     H2 2810   2.058   3.129   0.599
  875HOH      O 2811   2.951   3.065   0.818
  875HOH     H1 2812   2.939   3.080   0.724
  875HOH     H2 2813   2.868   3.091   0.858
  876HOH      O 2814   1.610   1.956   0.450
  876HOH     H1 2815   1.666   2.023   0.412
  876HOH     H2 2816   1.537   1.948   0.388
  877HOH      O 2817   1.237   0.111  -0.020
  877HOH     H1 2818   1.319   0.151   0.006
  877HOH     H2 2819   1.216   0.050   0.050
  878HOH      O 2820   3.220   3.284   0.096
  878HOH     H1 2821   3.159   3.211   0.101
  878HOH     H2 2822   3.179   3.353   0.149
  879HOH      O 2823   1.866   1.724   2.981
  879HOH     H1 2824   1.856   1.807   2.935
  879HOH     H2 2825   1.777   1.689   2.989
  880HOH      O 2826   1.107   1.907   3.152
  880HOH     H1 2827   1.039   1.867   3.206
  880HOH     H2 2828   1.109   1.999   3.179
  881HOH      O 2829   1.286   2.221   3.037
  881HOH     H1 2830   1.225   2.212   3.110
  881HOH     H2 2831   1.241   2.179   2.963
  882HOH      O 2832   1.929   2.388   0.096
  882HOH     H1 2833   1.979   2.458   0.053
  882HOH     H2 2834   1.927   2.413   0.188
  883HOH      O 2835   2.035   2.574   3.961
  883HOH     H1 2836   2.122   2.607   3.937
  883HOH     H2 2837   1.974   2.626   3.910
  884HOH      O 2838   1.910   2.657   3.347
  884HOH     H1 2839   1.992   2.706   3.349
  884HOH     H2 2840   1.842   2.724   3.347
  885HOH      O 2841   3.679   3.459   0.257
  885HOH     H1 2842   3.657   3.481   0.166
  885HOH     H2 2843   3.759   3.406   0.250
  886HOH      O 2844   1.536   2.458   3.811
  886HOH     H1 2845   1.474   2.410   3.866
  886HOH     H2 2846   1.621   2.418   3.832
  887HOH      O 2847   2.677   2.618   0.457
  887HOH     H1 2848   2.698   2.606   0.364
  887HOH     H2 2849   2.618   2.694   0.458
  888HOH      O 2850   3.052   3.543   2.350
  888HOH     H1 2851   2.961   3.553   2.379
  888HOH     H2 2852   3.072   3.451   2.364
  889HOH      O 2853   3.654   2.228   1.393
  889HOH     H1 2854   3.720   2.225   1.463
  889HOH     H2 2855   3.571   2.210   1.437
  890HOH      O 2856   0.949   3.850   1.885
  890HOH     H1 2857   1.036   3.849   1.925
  890HOH     H2 2858   0.894   3.898   1.947
  891HOH      O 2859   0.137   0.542   1.805
  891HOH     H1 2860   0.070   0.592   1.852
  891HOH     H2 2861   0.201   0.519   1.872
  892HOH      O 2862   0.968   2.607   0.888
  892HOH     H1 2863   0.984   2.546   0.960
  892HOH     H2 2864   0.991   2.558   0.809
  893HOH      O 2865   3.780   0.409   0.512
  893HOH     H1 2866   3.797   0.470   0.439
  893HOH     H2 2867   3.747   0.465   0.582
  894HOH      O 2868   2.179   4.027   0.374
  894HOH     H1 2869   2.248   4.056   0.315
  894HOH     H2 2870   2.225   3.978   0.443
  895HOH      O 2871   0.213   2.877   1.355
  895HOH     H1 2872   0.284   2.941   1.348
  895HOH     H2 2873   0.242   2.803   1.301
  896HOH      O 2874   0.110   1.419   3.117
  896HOH     H1 2875   0.137   1.410   3.209
  896HOH     H2 2876   0.019   1.389   3.115
  897HOH      O 2877   3.957   1.233   2.867
  897HOH     H1 2878   3.920   1.252   2.953
  897HOH     H2 2879   3.884   1.200   2.816
  898HOH      O 2880   0.413   3.971   2.803
  898HOH     H1 2881   0.355   3.930   2.738
  898HOH     H2 2882   0.493   3.991   2.754
  899HOH      O 2883   3.075   2.253   3.129
  899HOH     H1 2884   2.990   2.250   3.085
  899HOH     H2 2885   3.139   2.254   3.058
  900HOH      O 2886   3.811   2.076   2.474
  900HOH     H1 2887   3.866   2.154   2.461
  900HOH     H2 2888   3.737   2.108   2.526
  901HOH      O 2889   0.409   1.886   2.571
  901HOH     H1 2890   0.354   1.963   2.580
  901HOH     H2 2891   0.350   1.817   2.540
  902HOH      O 2892   0.646   2.339   1.555
  902HOH     H1 2893   0.709   2.273   1.584
  902HOH     H2 2894   0.611   2.376   1.636
  903HOH      O 2895   1.537   0.489   2.355
  903HOH     H1 2896   1.626   0.517   2.333
  903HOH     H2 2897   1.542   0.459   2.446
  904HOH      O 2898   3.204   0.669   3.748
  904HOH     H1 2899   3.151   0.697   3.673
  904HOH     H2 2900   3.152   0.600   3.790
  905HOH      O 2901   2.802   1.466   2.316
  905HOH     H1 2902   2.722   1.464   2.264
  905HOH     H2 2903   2.812   1.557   2.342
  906HOH      O 2904   0.356   0.506   0.943
  906HOH     H1 2905   0.367   0.553   1.026
  906HOH     H2 2906   0.343   0.575   0.878
  907HOH      O 2907   0.214   2.072   2.601
  907HOH     H1 2908   0.178   2.040   2.684
  907HOH     H2 2909   0.253   2.156   2.623
  908HOH      O 2910   0.117   1.162   1.674
  908HOH     H1 2911   0.141   1.245   1.632
  908HOH     H2 2912   0.156   1.095   1.618
  909HOH      O 2913   2.765   0.272   1.343
  909HOH     H1 2914   2.803   0.351   1.304
  909HOH     H2 2915   2.736   0.220   1.269
  910HOH      O 2916   3.367   1.415   2.299
  910HOH     H1 2917   3.368   1.506   2.327
  910HOH     H2 2918   3.430   1.372   2.358
  911HOH      O 2919   1.168   0.344   3.345
  911HOH     H1 2920   1.120   0.328   3.427
  911HOH     H2 2921   1.151   0.436   3.325
  912HOH      O 2922   3.222   0.452   3.930
  912HOH     H1 2923   3.222   0.431   3.836
  912HOH     H2 2924   3.281   0.387   3.969
  913HOH      O 2925   1.762   0.999   0.911
  913HOH     H1 2926   1.773   0.928   0.849
  913HOH     H2 2927   1.818   1.069   0.878
  914HOH      O 2928   2.190   1.175   1.532
  914HOH     H1 2929   2.248   1.116   1.482
  914HOH     H2 2930   2.236   1.191   1.614
  915HOH      O 2931   1.310   2.014   2.850
  915HOH     H1 2932   1.253   1.987   2.779
  915HOH     H2 2933   1.341   1.932   2.889
  916HOH      O 2934   0.903   0.512   2.147
  916HOH     H1 2935   0.873   0.594   2.108
  916HOH     H2 2936   0.997   0.524   2.159
  917HOH      O 2937   4.016   3.944   2.726
  917HOH     H1 2938   4.044   4.023   2.774
  917HOH     H2 2939   4.021   3.969   2.634
  918HOH      O 2940   0.574   2.657   2.766
  918HOH     H1 2941   0.647   2.714   2.745
  918HOH     H2 2942   0.578   2.647   2.861
  919HOH      O 2943   1.687   1.382   2.790
  919HOH     H1 2944   1.689   1.404   2.697
  919HOH     H2 2945   1.619   1.315   2.798
  920HOH      O 2946   3.503   3.202   0.293
  920HOH     H1 2947   3.572   3.181   0.230
  920HOH     H2 2948   3.466   3.284   0.260
  921HOH      O 2949   0.998   0.942   3.690
  921HOH     H1 2950   0.960   0.960   3.603
  921HOH     H2 2951   0.982   0.849   3.704
  922HOH      O 2952   0.655   1.641   0.214
  922HOH     H1 2953   0.606   1.641   0.296
  922HOH     H2 2954   0.744   1.665   0.240
  923HOH      O 2955   2.177   2.004   3.123
  923HOH     H1 2956   2.259   2.054   3.119
  923HOH     H2 2957   2.112   2.066   3.156
  924HOH      O 2958   0.117   1.221   3.726
  924HOH     H1 2959   0.199   1.243   3.770
  924HOH     H2 2960   0.077   1.154   3.782
  925HOH      O 2961   0.421   1.167   2.312
  925HOH     H1 2962   0.334   1.193   2.280
  925HOH     H2 2963   0.406   1.087   2.361
  926HOH      O 2964   1.747   3.635   2.893
  926HOH     H1 2965   1.840   3.623   2.911
  926HOH     H2 2966   1.743   3.714   2.839
  927HOH      O 2967   1.581   2.698   1.202
  927HOH     H1 2968   1.668   2.727   1.175
  927HOH     H2 2969   1.591   2.679   1.296
  928HOH      O 2970   1.028   1.348   2.408
  928HOH     H1 2971   1.062   1.291   2.339
  928HOH     H2 2972   0.958   1.398   2.365
  929HOH      O 2973   1.131   1.807   0.538
  929HOH     H1 2974   1.149   1.807   0.444
  929HOH     H2 2975   1.168   1.890   0.569
  930HOH      O 2976   0.318   1.577   2.741
  930HOH     H1 2977   0.272   1.615   2.816
  930HOH     H2 2978   0.292   1.632   2.667
  931HOH      O 2979   1.765   1.778   2.566
  931HOH     H1 2980   1.762   1.823   2.481
  931HOH     H2 2981   1.691   1.815   2.614
  932HOH      O 2982   0.352   1.175   3.363
  932HOH     H1 2983   0.331   1.160   3.271
  932HOH     H2 2984   0.447   1.182   3.365
  933HOH      O 2985   3.840   3.956   1.091
  933HOH     H1 2986   3.772   3.889   1.086
  933HOH     H2 2987   3.909   3.924   1.032
  934HOH      O 2988   2.800   2.048   1.159
  934HOH     H1 2989   2.759   2.112   1.217
  934HOH     H2 2990   2.890   2.079   1.149
  935HOH      O 2991   1.567   4.002   1.944
  935HOH     H1 2992   1.575   4.005   2.039
  935HOH     H2 2993   1.495   4.062   1.924
  936HOH      O 2994   0.582   1.683   0.476
  936HOH     H1 2995   0.493   1.713   0.459
  936HOH     H2 2996   0.632   1.763   0.493
  937HOH      O 2997   3.407   2.339   3.108
  937HOH     H1 2998   3.343   2.363   3.175
  937HOH     H2 2999   3.492   2.347   3.151
  938HOH      O 3000   2.531   3.232   2.264
  938HOH     H1 3001   2.569   3.320   2.259
  938HOH     H2 3002   2.482   3.223   2.182
  939HOH      O 3003   2.378   2.632   2.316
  939HOH     H1 3004   2.370   2.627   2.221
  939HOH     H2 3005   2.407   2.721   2.333
  940HOH      O 3006   1.916   2.222   3.465
  940HOH     H1 3007   1.865   2.193   3.541
  940HOH     H2 3008   1.995   2.260   3.503
  941HOH      O 3009   1.187   3.702   3.826
  941HOH     H1 3010   1.223   3.788   3.801
  941HOH     H2 3011   1.183   3.654   3.743
  942HOH      O 3012   0.417   2.236   1.446
  942HOH     H1 3013   0.505   2.258   1.477
  942HOH     H2 3014   0.385   2.316   1.404
  943HOH      O 3015   3.234   3.551   0.591
  943HOH     H1 3016   3.323   3.545   0.554
  943HOH     H2 3017   3.215   3.462   0.622
  944HOH      O 3018   1.385   0.837   1.264
  944HOH     H1 3019   1.314   0.898   1.282
  944HOH     H2 3020   1.431   0.874   1.189
  945HOH      O 3021   0.127   2.494   1.077
  945HOH     H1 3022   0.163   2.406   1.063
  945HOH     H2 3023   0.049   2.496   1.022
  946HOH      O 3024   0.674   2.586   3.077
  946HOH     H1 3025   0.639   2.563   3.163
  946HOH     H2 3026   0.637   2.672   3.057
  947HOH      O 3027   2.891   2.809   0.119
  947HOH     H1 3028   2.823   2.850   0.067
  947HOH     H2 3029   2.913   2.874   0.186
  948HOH      O 3030   2.489   1.358   2.168
  948HOH     H1 3031   2.422   1.314   2.115
  948HOH     H2 3032   2.540   1.408   2.104
  949HOH      O 3033   2.249   3.531   2.624
  949HOH     H1 3034   2.303   3.464   2.666
  949HOH     H2 3035   2.290   3.614   2.651
  950HOH      O 3036   1.667   3.273   2.879
  950HOH     H1 3037   1.680   3.216   2.955
  950HOH     H2 3038   1.753   3.312   2.863
  951HOH      O 3039   2.108   0.279   1.463
  951HOH     H1 3040   2.053   0.326   1.400
  951HOH     H2 3041   2.050   0.215   1.503
  952HOH      O 3042   2.423   1.957   2.624
  952HOH     H1 3043   2.349   1.957   2.684
  952HOH     H2 3044   2.490   2.010   2.669
  953HOH      O 3045   0.097   2.728   0.336
  953HOH     H1 3046   0.171   2.698   0.283
  953HOH     H2 3047   0.046   2.782   0.276
  954HOH      O 3048   2.033   1.025   1.969
  954HOH     H1 3049   2.054   0.970   1.894
  954HOH     H2 3050   2.057   0.973   2.045
  955HOH      O 3051   3.464   3.211   1.258
  955HOH     H1 3052   3.527   3.275   1.225
  955HOH     H2 3053   3.421   3.254   1.331
  956HOH      O 3054   2.229   3.329   2.063
  956HOH     H1 3055   2.204   3.340   2.155
  956HOH     H2 3056   2.203   3.239   2.042
  957HOH      O 3057   3.162   2.261   2.860
  957HOH     H1 3058   3.197   2.172   2.858
  957HOH     H2 3059   3.139   2.280   2.769
  958HOH      O 3060   3.487   0.341   3.490
  958HOH     H1 3061   3.470   0.418   3.436
  958HOH     H2 3062   3.573   0.310   3.462
  959HOH      O 3063   3.792   0.370   3.449
  959HOH     H1 3064   3.869   0.325   3.485
  959HOH     H2 3065   3.769   0.435   3.516
  960HOH      O 3066   3.432   0.509   1.620
  960HOH     H1 3067   3.527   0.497   1.619
  960HOH     H2 3068   3.409   0.514   1.527
  961HOH      O 3069   4.026   3.574   3.011
  961HOH     H1 3070   3.960   3.623   2.962
  961HOH     H2 3071   4.091   3.640   3.036
  962HOH      O 3072   0.062   2.180   3.304
  962HOH     H1 3073   0.082   2.226   3.386
  962HOH     H2 3074  -0.021   2.216   3.276
  963HOH      O 3075   1.322   1.361   2.906
  963HOH     H1 3076   1.260   1.290   2.921
  963HOH     H2 3077   1.267   1.439   2.899
  964HOH      O 3078   1.509   3.500   2.848
  964HOH     H1 3079   1.583   3.556   2.872
  964HOH     H2 3080   1.543   3.411   2.855
  965HOH      O 3081   1.574   2.628   2.916
  965HOH     H1 3082   1.611   2.573   2.985
  965HOH     H2 3083   1.483   2.600   2.910
  966HOH      O 3084   3.752   0.768   0.804
  966HOH     H1 3085   3.716   0.809   0.725
  966HOH     H2 3086   3.772   0.842   0.862
  967HOH      O 3087   0.210   2.223   3.085
  967HOH     H1 3088   0.295   2.187   3.110
  967HOH     H2 3089   0.158   2.218   3.165
  968HOH      O 3090   3.274   0.826   2.188
  968HOH     H1 3091   3.231   0.871   2.115
  968HOH     H2 3092   3.363   0.859   2.187
  969HOH      O 3093   1.800   2.483   2.551
  969HOH     H1 3094   1.835   2.410   2.500
  969HOH     H2 3095   1.855   2.558   2.525
  970HOH      O 3096   0.814   1.348  -0.005
  970HOH     H1 3097   0.728   1.349   0.038
  970HOH     H2 3098   0.849   1.261   0.014
  971HOH      O 3099   2.687   1.618   3.176
  971HOH     H1 3100   2.707   1.594   3.085
  971HOH     H2 3101   2.707   1.539   3.226
  972HOH      O 3102   3.898   0.243   0.718
  972HOH     H1 3103   3.846   0.163   0.706
  972HOH     H2 3104   3.862   0.304   0.654
  973HOH      O 3105   1.125   3.988   1.698
  973HOH     H1 3106   1.075   3.923   1.746
  973HOH     H2 3107   1.069   4.066   1.696
  974HOH      O 3108   0.994   2.222   2.901
  974HOH     H1 3109   0.998   2.313   2.933
  974HOH     H2 3110   0.924   2.182   2.952
  975HOH      O 3111   2.023   3.960   1.828
  975HOH     H1 3112   1.954   3.918   1.878
  975HOH     H2 3113   2.094   3.895   1.824
  976HOH      O 3114   2.450   2.897   2.409
  976HOH     H1 3115   2.479   2.884   2.500
  976HOH     H2 3116   2.527   2.930   2.363
  977HOH      O 3117   3.087   1.457   0.130
  977HOH     H1 3118   3.121   1.524   0.070
  977HOH     H2 3119   3.155   1.389   0.131
  978HOH      O 3120   3.931   0.559   2.412
  978HOH     H1 3121   3.852   0.598   2.375
  978HOH     H2 3122   3.988   0.543   2.336
  979HOH      O 3123   3.394   3.729   0.303
  979HOH     H1 3124   3.428   3.808   0.343
  979HOH     H2 3125   3.378   3.753   0.212
  980HOH      O 3126   0.508   2.412   0.163
  980HOH     H1 3127   0.547   2.422   0.076
  980HOH     H2 3128   0.487   2.319   0.169
  981HOH      O 3129   2.680   3.458   1.107
  981HOH     H1 3130   2.715   3.545   1.086
  981HOH     H2 3131   2.672   3.415   1.022
  982HOH      O 3132   2.098   3.566   2.357
  982HOH     H1 3133   2.088   3.570   2.452
  982HOH     H2 3134   2.120   3.475   2.338
  983HOH      O 3135   0.554   0.647   3.054
  983HOH     H1 3136   0.560   0.556   3.084
  983HOH     H2 3137   0.471   0.678   3.091
  984HOH      O 3138   0.148   1.840   0.716
  984HOH     H1 3139   0.118   1.772   0.655
  984HOH     H2 3140   0.130   1.922   0.671
  985HOH      O 3141   0.271   1.528   0.726
  985HOH     H1 3142   0.263   1.458   0.791
  985HOH     H2 3143   0.211   1.502   0.656
  986HOH      O 3144   3.571   1.670   2.696
  986HOH     H1 3145   3.578   1.730   2.770
  986HOH     H2 3146   3.579   1.583   2.736
  987HOH      O 3147   0.201   3.039   0.845
  987HOH     H1 3148   0.114   3.065   0.814
  987HOH     H2 3149   0.222   2.961   0.793
  988HOH      O 3150   3.526   0.948   2.936
  988HOH     H1 3151   3.509   0.910   2.850
  988HOH     H2 3152   3.581   0.884   2.980
  989HOH      O 3153   2.253   1.660   2.240
  989HOH     H1 3154   2.308   1.680   2.165
  989HOH     H2 3155   2.263   1.735   2.298
  990HOH      O 3156   1.597   2.898   2.851
  990HOH     H1 3157   1.505   2.917   2.871
  990HOH     H2 3158   1.609   2.807   2.880
  991HOH      O 3159   1.732   0.112   2.655
  991HOH     H1 3160   1.824   0.127   2.677
  991HOH     H2 3161   1.725   0.139   2.563
  992HOH      O 3162   1.673   0.803   1.423
  992HOH     H1 3163   1.717   0.877   1.381
  992HOH     H2 3164   1.615   0.844   1.488
  993HOH      O 3165   1.347   0.605   3.231
  993HOH     H1 3166   1.391   0.578   3.312
  993HOH     H2 3167   1.258   0.573   3.241
  994HOH      O 3168   3.820   3.099   3.687
  994HOH     H1 3169   3.837   3.193   3.698
  994HOH     H2 3170   3.724   3.092   3.685
  995HOH      O 3171   2.081   2.992   1.404
  995HOH     H1 3172   2.050   2.991   1.495
  995HOH     H2 3173   2.031   3.062   1.363
  996HOH      O 3174   3.171   2.158   1.641
  996HOH     H1 3175   3.129   2.072   1.632
  996HOH     H2 3176   3.154   2.182   1.732
  997HOH      O 3177   0.506   3.301   0.167
  997HOH     H1 3178   0.600   3.283   0.173
  997HOH     H2 3179   0.467   3.217   0.140
  998HOH      O 3180   2.463   0.070   3.324
  998HOH     H1 3181   2.417  -0.006   3.359
  998HOH     H2 3182   2.490   0.043   3.237
  999HOH      O 3183   0.085   1.893   0.004
  999HOH     H1 3184   0.014   1.834  -0.023
  999HOH     H2 3185   0.093   1.879   0.098
 1000HOH      O 3186   3.389   1.121   3.893
 1000HOH     H1 3187   3.405   1.126   3.988
 1000HOH     H2 3188   3.474   1.140   3.854
 1001HOH      O 3189   0.196   2.573   3.288
 1001HOH     H1 3190   0.188   2.660   3.327
 1001HOH     H2 3191   0.251   2.524   3.350
 1002HOH      O 3192   3.845   2.403   3.251
 1002HOH     H1 3193   3.798   2.485   3.239
 1002HOH     H2 3194   3.796   2.356   3.319
 1003HOH      O 3195   3.103   2.481   1.026
 1003HOH     H1 3196   3.047   2.521   1.092
 1003HOH     H2 3197   3.100   2.387   1.045
 1004HOH      O 3198   1.789   2.599   0.788
 1004HOH     H1 3199   1.807   2.613   0.695
 1004HOH     H2 3200   1.741   2.517   0.792
 1005HOH      O 3201   3.778   2.585   1.760
 1005HOH     H1 3202   3.800   2.533   1.838
 1005HOH     H2 3203   3.851   2.645   1.749
 1006HOH      O 3204   1.537   3.655   0.019
 1006HOH     H1 3205   1.600   3.668   0.090
 1006HOH     H2 3206   1.564   3.716  -0.049
 1007HOH      O 3207   0.990   1.282   3.651
 1007HOH     H1 3208   0.984   1.320   3.739
 1007HOH     H2 3209   1.014   1.355   3.595
 1008HOH      O 3210   1.382   0.621   1.432
 1008HOH     H1 3211   1.316   0.642   1.499
 1008HOH     H2 3212   1.371   0.689   1.366
 1009HOH      O 3213   1.587   2.803   3.178
 1009HOH     H1 3214   1.581   2.846   3.092
 1009HOH     H2 3215   1.641   2.862   3.230
 1010HOH      O 3216   3.145   3.904   0.128
 1010HOH     H1 3217   3.132   3.822   0.080
 1010HOH     H2 3218   3.122   3.972   0.065
 1011HOH      O 3219   1.220   1.805   0.280
 1011HOH     H1 3220   1.309   1.771   0.276
 1011HOH     H2 3221   1.170   1.749   0.220
 1012HOH      O 3222   0.327   0.679   3.201
 1012HOH     H1 3223   0.341   0.670   3.295
 1012HOH     H2 3224   0.252   0.737   3.193
 1013HOH      O 3225   0.282   3.329   0.429
 1013HOH     H1 3226   0.259   3.237   0.440
 1013HOH     H2 3227   0.295   3.339   0.335
 1014HOH      O 3228   0.373   3.559   3.178
 1014HOH     H1 3229   0.311   3.626   3.208
 1014HOH     H2 3230   0.413   3.599   3.100
 1015HOH      O 3231   0.054   3.281   1.419
 1015HOH     H1 3232  -0.007   3.352   1.402
 1015HOH     H2 3233   0.132   3.304   1.367
 1016HOH      O 3234   0.544   3.565   2.571
 1016HOH     H1 3235   0.547   3.503   2.498
 1016HOH     H2 3236   0.598   3.639   2.542
 1017HOH      O 3237   2.375   2.464   0.231
 1017HOH     H1 3238   2.383   2.389   0.172
 1017HOH     H2 3239   2.355   2.538   0.173
 1018HOH      O 3240   1.859   4.048   2.198
 1018HOH     H1 3241   1.923   3.980   2.213
 1018HOH     H2 3242   1.818   4.024   2.114
 1019HOH      O 3243   3.898   1.339   2.432
 1019HOH     H1 3244   3.866   1.294   2.510
 1019HOH     H2 3245   3.839   1.414   2.422
 1020HOH      O 3246   1.413   2.927   1.794
 1020HOH     H1 3247   1.345   2.863   1.773
 1020HOH     H2 3248   1.443   2.902   1.882
 1021HOH      O 3249   3.716   1.593   0.036
 1021HOH     H1 3250   3.795   1.623  -0.007
 1021HOH     H2 3251   3.727   1.498   0.041
 1022HOH      O 3252   2.969   0.498   2.860
 1022HOH     H1 3253   3.012   0.481   2.777
 1022HOH     H2 3254   2.889   0.445   2.857
 1023HOH      O 3255   1.312   1.151   0.815
 1023HOH     H1 3256   1.398   1.175   0.781
 1023HOH     H2 3257   1.299   1.061   0.786
 1024HOH      O 3258   1.309   0.704   1.005
 1024HOH     H1 3259   1.307   0.660   1.090
 1024HOH     H2 3260   1.401   0.724   0.990
 1025HOH      O 3261   1.190   3.829   1.988
 1025HOH     H1 3262   1.241   3.757   1.950
 1025HOH     H2 3263   1.242   3.859   2.062
 1026HOH      O 3264   2.758   0.102   2.822
 1026HOH     H1 3265   2.747   0.147   2.906
 1026HOH     H2 3266   2.803   0.021   2.845
 1027HOH      O 3267   3.164   0.959   3.978
 1027HOH     H1 3268   3.215   1.019   3.924
 1027HOH     H2 3269   3.110   0.910   3.916
 1028HOH      O 3270   3.100   2.578   0.648
 1028HOH     H1 3271   3.130   2.667   0.628
 1028HOH     H2 3272   3.126   2.526   0.572
 1029HOH      O 3273   3.148   4.013   0.395
 1029HOH     H1 3274   3.061   4.053   0.404
 1029HOH     H2 3275   3.153   3.987   0.303
 1030HOH      O 3276   1.127   3.006   0.381
 1030HOH     H1 3277   1.096   2.917   0.395
 1030HOH     H2 3278   1.097   3.054   0.458
 1031HOH      O 3279   0.699   2.341   1.296
 1031HOH     H1 3280   0.706   2.342   1.391
 1031HOH     H2 3281   0.784   2.309   1.266
 1032HOH      O 3282   1.592   1.588   2.280
 1032HOH     H1 3283   1.634   1.541   2.351
 1032HOH     H2 3284   1.505   1.548   2.273
 1033HOH      O 3285   1.803   0.483   0.128
 1033HOH     H1 3286   1.764   0.415   0.073
 1033HOH     H2 3287   1.788   0.453   0.218
 1034HOH      O 3288   3.717   0.218   1.200
 1034HOH     H1 3289   3.724   0.150   1.134
 1034HOH     H2 3290   3.710   0.171   1.283
 1035HOH      O 3291   0.695   1.377   0.452
 1035HOH     H1 3292   0.676   1.463   0.490
 1035HOH     H2 3293   0.748   1.333   0.518
 1036HOH      O 3294   0.294   1.575   2.314
 1036HOH     H1 3295   0.382   1.548   2.340
 1036HOH     H2 3296   0.305   1.664   2.280
 1037HOH      O 3297   1.402   0.861   1.812
 1037HOH     H1 3298   1.394   0.814   1.895
 1037HOH     H2 3299   1.346   0.813   1.752
 1038HOH      O 3300   1.769   1.413   0.748
 1038HOH     H1 3301   1.851   1.459   0.767
 1038HOH     H2 3302   1.706   1.448   0.812
 1039HOH      O 3303   3.418   1.362   0.023
 1039HOH     H1 3304   3.463   1.435   0.064
 1039HOH     H2 3305   3.455   1.356  -0.064
 1040HOH      O 3306   0.657   3.463   1.350
 1040HOH     H1 3307   0.586   3.494   1.294
 1040HOH     H2 3308   0.725   3.434   1.288
 1041HOH      O 3309   0.941   0.684   3.709
 1041HOH     H1 3310   0.859   0.655   3.670
 1041HOH     H2 3311   0.955   0.624   3.782
 1042HOH      O 3312   2.252   3.669   0.168
 1042HOH     H1 3313   2.319   3.717   0.216
 1042HOH     H2 3314   2.184   3.734   0.149
 1043HOH      O 3315   2.864   2.088   3.677
 1043HOH     H1 3316   2.796   2.129   3.730
 1043HOH     H2 3317   2.842   2.113   3.587
 1044HOH      O 3318   3.163   2.509   3.535
 1044HOH     H1 3319   3.144   2.422   3.499
 1044HOH     H2 3320   3.191   2.492   3.625
 1045HOH      O 3321   0.548   0.728   0.760
 1045HOH     H1 3322   0.598   0.740   0.841
 1045HOH     H2 3323   0.541   0.817   0.723
 1046HOH      O 3324   0.041   0.598   0.344
 1046HOH     H1 3325  -0.052   0.578   0.354
 1046HOH     H2 3326   0.074   0.529   0.287
 1047HOH      O 3327   2.556  -0.009   2.667
 1047HOH     H1 3328   2.529   0.033   2.586
 1047HOH     H2 3329   2.626   0.047   2.701
 1048HOH      O 3330   3.875   3.740   3.585
 1048HOH     H1 3331   3.918   3.823   3.603
 1048HOH     H2 3332   3.812   3.760   3.515
 1049HOH      O 3333   1.251   3.550   0.767
 1049HOH     H1 3334   1.260   3.642   0.744
 1049HOH     H2 3335   1.164   3.543   0.806
 1050HOH      O 3336   0.265   0.589   2.052
 1050HOH     H1 3337   0.313   0.665   2.019
 1050HOH     H2 3338   0.285   0.587   2.145
 1051HOH      O 3339   3.420   3.056   1.545
 1051HOH     H1 3340   3.452   2.994   1.611
 1051HOH     H2 3341   3.336   3.087   1.579
 1052HOH      O 3342   1.993   0.405   2.551
 1052HOH     H1 3343   1.977   0.310   2.555
 1052HOH     H2 3344   2.026   0.428   2.637
 1053HOH      O 3345   1.002   2.135   0.186
 1053HOH     H1 3346   1.048   2.181   0.257
 1053HOH     H2 3347   0.916   2.115   0.223
 1054HOH      O 3348   1.510   2.314   0.173
 1054HOH     H1 3349   1.569   2.280   0.240
 1054HOH     H2 3350   1.422   2.304   0.212
 1055HOH      O 3351   1.389   2.662   3.352
 1055HOH     H1 3352   1.461   2.706   3.307
 1055HOH     H2 3353   1.417   2.655   3.443
 1056HOH      O 3354   3.270   1.934   2.269
 1056HOH     H1 3355   3.233   1.851   2.299
 1056HOH     H2 3356   3.208   2.000   2.299
 1057HOH      O 3357   2.843   3.406   2.976
 1057HOH     H1 3358   2.903   3.415   2.902
 1057HOH     H2 3359   2.890   3.352   3.039
 1058HOH      O 3360   2.093   3.387   1.616
 1058HOH     H1 3361   2.188   3.396   1.624
 1058HOH     H2 3362   2.079   3.360   1.525
 1059HOH      O 3363   1.107   1.579   2.587
 1059HOH     H1 3364   1.077   1.489   2.574
 1059HOH     H2 3365   1.112   1.589   2.682
 1060HOH      O 3366   0.479   3.440   3.600
 1060HOH     H1 3367   0.389   3.432   3.568
 1060HOH     H2 3368   0.530   3.384   3.542
 1061HOH      O 3369   3.608   2.358   0.611
 1061HOH     H1 3370   3.550   2.292   0.575
 1061HOH     H2 3371   3.577   2.370   0.701
 1062HOH      O 3372   1.235   1.397   0.071
 1062HOH     H1 3373   1.220   1.484   0.108
 1062HOH     H2 3374   1.328   1.380   0.089
 1063HOH      O 3375   4.013   2.781   2.109
 1063HOH     H1 3376   3.950   2.780   2.182
 1063HOH     H2 3377   4.014   2.690   2.079
 1064HOH      O 3378   3.444   2.150   1.604
 1064HOH     H1 3379   3.447   2.119   1.695
 1064HOH     H2 3380   3.357   2.189   1.596
 1065HOH      O 3381   3.381   2.892   2.148
 1065HOH     H1 3382   3.286   2.903   2.152
 1065HOH     H2 3383   3.393   2.808   2.102
 1066HOH      O 3384   3.156   2.527   1.748
 1066HOH     H1 3385   3.243   2.562   1.726
 1066HOH     H2 3386   3.121   2.588   1.813
 1067HOH      O 3387   0.720   3.048   0.553
 1067HOH     H1 3388   0.816   3.047   0.557
 1067HOH     H2 3389   0.698   3.140   0.537
 1068HOH      O 3390   2.064   2.527   2.893
 1068HOH     H1 3391   2.159   2.535   2.889
 1068HOH     H2 3392   2.032   2.595   2.834
 1069HOH      O 3393   1.330   0.471   1.783
 1069HOH     H1 3394   1.333   0.552   1.733
 1069HOH     H2 3395   1.396   0.415   1.743
 1070HOH      O 3396   0.496   3.652   3.811
 1070HOH     H1 3397   0.489   3.596   3.734
 1070HOH     H2 3398   0.407   3.654   3.847
 1071HOH      O 3399   3.676   3.438   2.658
 1071HOH     H1 3400   3.771   3.430   2.648
 1071HOH     H2 3401   3.644   3.348   2.651
 1072HOH      O 3402   2.310   2.654   1.541
 1072HOH     H1 3403   2.378   2.586   1.544
 1072HOH     H2 3404   2.352   2.731   1.581
 1073HOH      O 3405   3.911   2.160   1.568
 1073HOH     H1 3406   3.848   2.088   1.567
 1073HOH     H2 3407   3.989   2.122   1.610
 1074HOH      O 3408   1.507   1.551   0.632
 1074HOH     H1 3409   1.442   1.600   0.682
 1074HOH     H2 3410   1.588   1.600   0.643
 1075HOH      O 3411   0.920   3.289   0.707
 1075HOH     H1 3412   0.950   3.379   0.696
 1075HOH     H2 3413   0.983   3.249   0.767
 1076HOH      O 3414   2.822   1.379   1.304
 1076HOH     H1 3415   2.774   1.448   1.259
 1076HOH     H2 3416   2.757   1.310   1.319
 1077HOH      O 3417   3.944   2.459   3.831
 1077HOH     H1 3418   3.876   2.487   3.892
 1077HOH     H2 3419   4.025   2.461   3.883
 1078HOH      O 3420   1.958   3.293   3.691
 1078HOH     H1 3421   2.050   3.312   3.710
 1078HOH     H2 3422   1.912   3.374   3.714
 1079HOH      O 3423   1.825   3.393   3.426
 1079HOH     H1 3424   1.885   3.458   3.388
 1079HOH     H2 3425   1.783   3.438   3.499
 1080HOH      O 3426   0.158   2.579   3.604
 1080HOH     H1 3427   0.169   2.555   3.696
 1080HOH     H2 3428   0.075   2.626   3.602
 1081HOH      O 3429   2.431   3.284   2.845
 1081HOH     H1 3430   2.433   3.223   2.771
 1081HOH     H2 3431   2.503   3.257   2.901
 1082HOH      O 3432   0.146   0.630   3.653
 1082HOH     H1 3433   0.054   0.647   3.675
 1082HOH     H2 3434   0.175   0.565   3.716
 1083HOH      O 3435   2.799   3.550   2.027
 1083HOH     H1 3436   2.750   3.485   2.078
 1083HOH     H2 3437   2.773   3.634   2.065
 1084HOH      O 3438   2.874   1.780   1.742
 1084HOH     H1 3439   2.781   1.777   1.721
 1084HOH     H2 3440   2.886   1.716   1.813
 1085HOH      O 3441   1.553   2.394   0.583
 1085HOH     H1 3442   1.501   2.473   0.580
 1085HOH     H2 3443   1.578   2.385   0.675
 1086HOH      O 3444   1.387   1.208   0.316
 1086HOH     H1 3445   1.445   1.131   0.321
 1086HOH     H2 3446   1.445   1.280   0.290
 1087HOH      O 3447   2.427   1.063   1.687
 1087HOH     H1 3448   2.476   1.136   1.724
 1087HOH     H2 3449   2.430   0.996   1.756
 1088HOH      O 3450   1.090   1.521   3.181
 1088HOH     H1 3451   1.084   1.442   3.236
 1088HOH     H2 3452   1.156   1.575   3.225
 1089HOH      O 3453   0.796   0.043   3.918
 1089HOH     H1 3454   0.866  -0.021   3.931
 1089HOH     H2 3455   0.725  -0.007   3.879
 1090HOH      O 3456   2.051   2.002   0.138
 1090HOH     H1 3457   1.993   2.076   0.153
 1090HOH     H2 3458   2.003   1.945   0.078
 1091HOH      O 3459   3.799   0.610   0.340
 1091HOH     H1 3460   3.724   0.590   0.284
 1091HOH     H2 3461   3.798   0.705   0.349
 1092HOH      O 3462   2.642   1.717   3.581
 1092HOH     H1 3463   2.707   1.779   3.617
 1092HOH     H2 3464   2.691   1.636   3.570
 1093HOH      O 3465   2.210   3.783   1.558
 1093HOH     H1 3466   2.219   3.799   1.652
 1093HOH     H2 3467   2.289   3.821   1.520
 1094HOH      O 3468   3.697   3.456   2.192
 1094HOH     H1 3469   3.650   3.448   2.109
 1094HOH     H2 3470   3.672   3.541   2.227
 1095HOH      O 3471   2.433   1.604   2.515
 1095HOH     H1 3472   2.409   1.529   2.570
 1095HOH     H2 3473   2.351   1.632   2.476
 1096HOH      O 3474   1.735   0.308   3.947
 1096HOH     H1 3475   1.774   0.318   3.860
 1096HOH     H2 3476   1.756   0.217   3.972
 1097HOH      O 3477   0.870   4.028   3.529
 1097HOH     H1 3478   0.874   4.021   3.434
 1097HOH     H2 3479   0.845   3.940   3.558
 1098HOH      O 3480   0.996   2.316   1.520
 1098HOH     H1 3481   0.919   2.259   1.520
 1098HOH     H2 3482   1.064   2.265   1.565
 1099HOH      O 3483   2.492   2.055   2.278
 1099HOH     H1 3484   2.447   2.131   2.240
 1099HOH     H2 3485   2.514   2.082   2.367
 1100HOH      O 3486   3.235   0.093   2.554
 1100HOH     H1 3487   3.270   0.181   2.539
 1100HOH     H2 3488   3.300   0.034   2.516
 1101HOH      O 3489   1.416   3.810   3.522
 1101HOH     H1 3490   1.381   3.732   3.479
 1101HOH     H2 3491   1.401   3.881   3.459
 1102HOH      O 3492   1.572   0.576   1.930
 1102HOH     H1 3493   1.534   0.535   1.852
 1102HOH     H2 3494   1.565   0.509   1.997
 1103HOH      O 3495   3.136   2.188   1.966
 1103HOH     H1 3496   3.185   2.215   2.044
 1103HOH     H2 3497   3.070   2.257   1.955
 1104HOH      O 3498   2.704   4.045   3.488
 1104HOH     H1 3499   2.775   3.982   3.472
 1104HOH     H2 3500   2.644   4.031   3.414
 1105HOH      O 3501   0.957   3.317   0.069
 1105HOH     H1 3502   1.007   3.257   0.015
 1105HOH     H2 3503   0.968   3.402   0.026
 1106HOH      O 3504   1.344   2.030   0.354
 1106HOH     H1 3505   1.310   2.093   0.418
 1106HOH     H2 3506   1.274   1.964   0.347
 1107HOH      O 3507   0.630   1.793   1.842
 1107HOH     H1 3508   0.598   1.744   1.918
 1107HOH     H2 3509   0.641   1.726   1.774
 1108HOH      O 3510   0.605   3.844   1.891
 1108HOH     H1 3511   0.650   3.925   1.918
 1108HOH     H2 3512   0.543   3.873   1.824
 1109HOH      O 3513   0.582   1.924   3.808
 1109HOH     H1 3514   0.581   1.900   3.901
 1109HOH     H2 3515   0.491   1.944   3.787
 1110HOH      O 3516   0.335   0.582   2.316
 1110HOH     H1 3517   0.275   0.538   2.376
 1110HOH     H2 3518   0.420   0.577   2.359
 1111HOH      O 3519   2.304   0.577   0.556
 1111HOH     H1 3520   2.292   0.549   0.647
 1111HOH     H2 3521   2.339   0.666   0.563
 1112HOH      O 3522   0.898   3.428   3.145
 1112HOH     H1 3523   0.824   3.394   3.094
 1112HOH     H2 3524   0.973   3.376   3.116
 1113HOH      O 3525   0.027   0.411   3.043
 1113HOH     H1 3526   0.091   0.464   2.996
 1113HOH     H2 3527   0.063   0.401   3.131
 1114HOH      O 3528   3.859   3.377   3.735
 1114HOH     H1 3529   3.903   3.367   3.651
 1114HOH     H2 3530   3.892   3.460   3.770
 1115HOH      O 3531   3.610   1.754   1.343
 1115HOH     H1 3532   3.640   1.812   1.273
 1115HOH     H2 3533   3.533   1.797   1.380
 1116HOH      O 3534   2.565   3.371   0.026
 1116HOH     H1 3535   2.554   3.385   0.120
 1116HOH     H2 3536   2.639   3.310   0.019
 1117HOH      O 3537   3.702   2.728   2.073
 1117HOH     H1 3538   3.753   2.667   2.019
 1117HOH     H2 3539   3.615   2.688   2.079
 1118HOH      O 3540   1.956   0.255   0.614
 1118HOH     H1 3541   1.975   0.349   0.618
 1118HOH     H2 3542   2.024   0.215   0.668
 1119HOH      O 3543   3.690   2.248   3.787
 1119HOH     H1 3544   3.628   2.219   3.854
 1119HOH     H2 3545   3.647   2.322   3.745
 1120HOH      O 3546   3.994   0.897   1.989
 1120HOH     H1 3547   3.952   0.924   1.908
 1120HOH     H2 3548   4.087   0.912   1.974
 1121HOH      O 3549   1.104   1.199   3.016
 1121HOH     H1 3550   1.136   1.112   2.991
 1121HOH     H2 3551   1.087   1.192   3.110
 1122HOH      O 3552   1.019   1.579   3.512
 1122HOH     H1 3553   1.085   1.597   3.446
 1122HOH     H2 3554   1.042   1.637   3.585
 1123HOH      O 3555   0.152   1.392   2.462
 1123HOH     H1 3556   0.058   1.391   2.441
 1123HOH     H2 3557   0.189   1.459   2.404
 1124HOH      O 3558   2.089   0.174   3.248
 1124HOH     H1 3559   2.075   0.268   3.235
 1124HOH     H2 3560   2.086   0.162   3.343
 1125HOH      O 3561   3.805   1.521   1.387
 1125HOH     H1 3562   3.760   1.606   1.388
 1125HOH     H2 3563   3.740   1.461   1.350
 1126HOH      O 3564   0.533   0.999   4.039
 1126HOH     H1 3565   0.560   0.991   3.947
 1126HOH     H2 3566   0.468   0.930   4.050
 1127HOH      O 3567   3.987   1.702   2.319
 1127HOH     H1 3568   4.010   1.779   2.371
 1127HOH     H2 3569   3.920   1.658   2.371
 1128HOH      O 3570   2.369   3.423   1.587
 1128HOH     H1 3571   2.359   3.457   1.676
 1128HOH     H2 3572   2.445   3.468   1.552
 1129HOH      O 3573   1.149   1.587   2.866
 1129HOH     H1 3574   1.198   1.648   2.921
 1129HOH     H2 3575   1.073   1.563   2.919
 1130HOH      O 3576   1.724   0.307   2.865
 1130HOH     H1 3577   1.778   0.254   2.924
 1130HOH     H2 3578   1.738   0.268   2.779
 1131HOH      O 3579   3.248   0.829   1.898
 1131HOH     H1 3580   3.300   0.906   1.873
 1131HOH     H2 3581   3.170   0.834   1.843
 1132HOH      O 3582   0.940   0.149   1.130
 1132HOH     H1 3583   0.857   0.113   1.098
 1132HOH     H2 3584   0.969   0.086   1.195
 1133HOH      O 3585   0.314   2.587   1.997
 1133HOH     H1 3586   0.247   2.577   2.065
 1133HOH     H2 3587   0.272   2.558   1.916
 1134HOH      O 3588   1.817   2.928   1.539
 1134HOH     H1 3589   1.833   2.839   1.572
 1134HOH     H2 3590   1.721   2.937   1.542
 1135HOH      O 3591   2.261   0.411   1.921
 1135HOH     H1 3592   2.201   0.341   1.898
 1135HOH     H2 3593   2.209   0.472   1.973
 1136HOH      O 3594   0.884   1.876   2.967
 1136HOH     H1 3595   0.832   1.935   3.022
 1136HOH     H2 3596   0.974   1.890   2.994
 1137HOH      O 3597   1.979   1.296   2.595
 1137HOH     H1 3598   2.052   1.298   2.533
 1137HOH     H2 3599   1.932   1.378   2.579
 1138HOH      O 3600   0.165   2.739   2.883
 1138HOH     H1 3601   0.179   2.749   2.977
 1138HOH     H2 3602   0.177   2.827   2.847
 1139HOH      O 3603   2.024   0.764   2.500
 1139HOH     H1 3604   1.972   0.690   2.470
 1139HOH     H2 3605   2.036   0.749   2.593
 1140HOH      O 3606   0.688   3.397   3.783
 1140HOH     H1 3607   0.639   3.330   3.832
 1140HOH     H2 3608   0.626   3.426   3.715
 1141HOH      O 3609   1.707   3.086   1.816
 1141HOH     H1 3610   1.662   3.035   1.750
 1141HOH     H2 3611   1.786   3.118   1.773
 1142HOH      O 3612   3.672   2.623   0.481
 1142HOH     H1 3613   3.636   2.535   0.468
 1142HOH     H2 3614   3.669   2.663   0.395
 1143HOH      O 3615   3.392   1.561   0.660
 1143HOH     H1 3616   3.400   1.653   0.637
 1143HOH     H2 3617   3.317   1.558   0.720
 1144HOH      O 3618   2.985   0.795   3.021
 1144HOH     H1 3619   2.922   0.829   2.957
 1144HOH     H2 3620   3.004   0.706   2.991
 1145HOH      O 3621   2.189   2.556   1.221
 1145HOH     H1 3622   2.255   2.624   1.236
 1145HOH     H2 3623   2.106   2.603   1.224
 1146HOH      O 3624   1.050   0.726   3.025
 1146HOH     H1 3625   1.113   0.798   3.026
 1146HOH     H2 3626   0.965   0.770   3.019
 1147HOH      O 3627   2.313   0.373  -0.008
 1147HOH     H1 3628   2.341   0.346   0.080
 1147HOH     H2 3629   2.389   0.355  -0.064
 1148HOH      O 3630   2.216   0.872   0.493
 1148HOH     H1 3631   2.226   0.861   0.399
 1148HOH     H2 3632   2.218   0.967   0.506
 1149HOH      O 3633   2.116   3.025   0.429
 1149HOH     H1 3634   2.076   3.051   0.346
 1149HOH     H2 3635   2.095   2.932   0.437
 1150HOH      O 3636   0.718   3.654   3.977
 1150HOH     H1 3637   0.801   3.608   3.972
 1150HOH     H2 3638   0.664   3.613   3.909
 1151HOH      O 3639   1.999   0.820   1.776
 1151HOH     H1 3640   2.031   0.758   1.711
 1151HOH     H2 3641   1.908   0.796   1.790
 1152HOH      O 3642   1.908   1.443   0.381
 1152HOH     H1 3643   1.963   1.492   0.319
 1152HOH     H2 3644   1.968   1.418   0.451
 1153HOH      O 3645   3.521   2.383   1.947
 1153HOH     H1 3646   3.476   2.301   1.926
 1153HOH     H2 3647   3.593   2.387   1.884
 1154HOH      O 3648   2.041   2.843   1.853
 1154HOH     H1 3649   2.060   2.757   1.816
 1154HOH     H2 3650   1.950   2.836   1.882
 1155HOH      O 3651   0.576   0.922   3.793
 1155HOH     H1 3652   0.660   0.960   3.821
 1155HOH     H2 3653   0.597   0.877   3.711
 1156HOH      O 3654   2.152   1.088   3.155
 1156HOH     H1 3655   2.073   1.107   3.105
 1156HOH     H2 3656   2.119   1.060   3.241
 1157HOH      O 3657   0.847   1.708   2.563
 1157HOH     H1 3658   0.916   1.665   2.512
 1157HOH     H2 3659   0.858   1.676   2.652
 1158HOH      O 3660   1.453   1.092   1.990
 1158HOH     H1 3661   1.423   1.029   1.924
 1158HOH     H2 3662   1.467   1.039   2.069
 1159HOH      O 3663   3.763   0.618   1.335
 1159HOH     H1 3664   3.736   0.531   1.305
 1159HOH     H2 3665   3.701   0.678   1.293
 1160HOH      O 3666   0.373   1.079   0.893
 1160HOH     H1 3667   0.364   1.126   0.811
 1160HOH     H2 3668   0.445   1.123   0.938
 1161HOH      O 3669   2.479   0.097   2.997
 1161HOH     H1 3670   2.432   0.078   2.916
 1161HOH     H2 3671   2.499   0.191   2.992
 1162HOH      O 3672   3.420   3.154   0.848
 1162HOH     H1 3673   3.432   3.063   0.877
 1162HOH     H2 3674   3.326   3.170   0.862
 1163HOH      O 3675   2.267   1.462   1.132
 1163HOH     H1 3676   2.298   1.377   1.100
 1163HOH     H2 3677   2.193   1.440   1.189
 1164HOH      O 3678   2.715   0.767   1.129
 1164HOH     H1 3679   2.701   0.786   1.222
 1164HOH     H2 3680   2.629   0.739   1.097
 1165HOH      O 3681   3.344   1.267   1.339
 1165HOH     H1 3682   3.323   1.184   1.295
 1165HOH     H2 3683   3.332   1.334   1.272
 1166HOH      O 3684   0.944   0.092   2.881
 1166HOH     H1 3685   1.016   0.086   2.943
 1166HOH     H2 3686   0.866   0.107   2.936
 1167HOH      O 3687   3.211   3.049   1.261
 1167HOH     H1 3688   3.240   3.125   1.211
 1167HOH     H2 3689   3.291   3.013   1.299
 1168HOH      O 3690   0.329   2.647   0.209
 1168HOH     H1 3691   0.367   2.562   0.185
 1168HOH     H2 3692   0.365   2.708   0.144
 1169HOH      O 3693   0.824   0.756   2.029
 1169HOH     H1 3694   0.783   0.780   2.112
 1169HOH     H2 3695   0.753   0.759   1.965
 1170HOH      O 3696   2.090   3.189   3.461
 1170HOH     H1 3697   2.097   3.227   3.549
 1170HOH     H2 3698   2.018   3.238   3.420
 1171HOH      O 3699   2.130   1.009   2.407
 1171HOH     H1 3700   2.070   0.958   2.462
 1171HOH     H2 3701   2.142   0.955   2.329
 1172HOH      O 3702   0.932   2.637   2.776
 1172HOH     H1 3703   0.945   2.730   2.796
 1172HOH     H2 3704   0.887   2.602   2.854
 1173HOH      O 3705   2.859   2.452   1.234
 1173HOH     H1 3706   2.879   2.545   1.244
 1173HOH     H2 3707   2.766   2.445   1.258
 1174HOH      O 3708   1.692   2.452   3.123
 1174HOH     H1 3709   1.767   2.411   3.080
 1174HOH     H2 3710   1.715   2.453   3.216
 1175HOH      O 3711   3.002   1.935   2.071
 1175HOH     H1 3712   3.003   1.995   1.997
 1175HOH     H2 3713   2.913   1.902   2.074
 1176HOH      O 3714   0.203   0.090   3.432
 1176HOH     H1 3715   0.264   0.094   3.358
 1176HOH     H2 3716   0.211  -0.000   3.464
 1177HOH      O 3717   2.353   3.936   2.151
 1177HOH     H1 3718   2.377   4.009   2.208
 1177HOH     H2 3719   2.413   3.942   2.077
 1178HOH      O 3720   2.411   1.380   2.664
 1178HOH     H1 3721   2.381   1.420   2.746
 1178HOH     H2 3722   2.443   1.294   2.690
 1179HOH      O 3723   1.526   0.037   2.199
 1179HOH     H1 3724   1.520  -0.024   2.273
 1179HOH     H2 3725   1.436   0.041   2.164
 1180HOH      O 3726   1.821   0.276   1.255
 1180HOH     H1 3727   1.886   0.215   1.220
 1180HOH     H2 3728   1.831   0.355   1.202
 1181HOH      O 3729   1.143   0.928   1.596
 1181HOH     H1 3730   1.069   0.930   1.656
 1181HOH     H2 3731   1.174   1.019   1.594
 1182HOH      O 3732   2.689   2.205   1.347
 1182HOH     H1 3733   2.709   2.255   1.426
 1182HOH     H2 3734   2.608   2.159   1.367
 1183HOH      O 3735   0.382   0.835   1.384
 1183HOH     H1 3736   0.342   0.911   1.426
 1183HOH     H2 3737   0.386   0.858   1.291
 1184HOH      O 3738   3.847   1.654   3.056
 1184HOH     H1 3739   3.882   1.598   2.987
 1184HOH     H2 3740   3.770   1.696   3.017
 1185HOH      O 3741   2.403   2.916   3.606
 1185HOH     H1 3742   2.490   2.954   3.621
 1185HOH     H2 3743   2.372   2.957   3.525
 1186HOH      O 3744   2.062   0.424   2.837
 1186HOH     H1 3745   2.056   0.474   2.919
 1186HOH     H2 3746   2.156   0.424   2.817
 1187HOH      O 3747   0.227   3.957   2.065
 1187HOH     H1 3748   0.193   4.046   2.060
 1187HOH     H2 3749   0.226   3.926   1.974
 1188HOH      O 3750   2.737   0.656   2.616
 1188HOH     H1 3751   2.733   0.690   2.526
 1188HOH     H2 3752   2.714   0.563   2.607
 1189HOH      O 3753   2.559   1.486   0.960
 1189HOH     H1 3754   2.554   1.489   1.056
 1189HOH     H2 3755   2.494   1.420   0.935
 1190HOH      O 3756   0.179   0.274   1.721
 1190HOH     H1 3757   0.264   0.275   1.764
 1190HOH     H2 3758   0.128   0.341   1.767
 1191HOH      O 3759   3.208   3.719   2.709
 1191HOH     H1 3760   3.234   3.627   2.702
 1191HOH     H2 3761   3.227   3.757   2.624
 1192HOH      O 3762   0.210   0.940   1.886
 1192HOH     H1 3763   0.211   0.979   1.799
 1192HOH     H2 3764   0.299   0.909   1.901
 1193HOH      O 3765   3.967   2.764   1.738
 1193HOH     H1 3766   3.994   2.715   1.660
 1193HOH     H2 3767   4.048   2.777   1.787
 1194HOH      O 3768   0.256   2.867   3.117
 1194HOH     H1 3769   0.196   2.938   3.141
 1194HOH     H2 3770   0.291   2.836   3.200
 1195HOH      O 3771   1.365   2.540   3.613
 1195HOH     H1 3772   1.403   2.483   3.679
 1195HOH     H2 3773   1.357   2.625   3.657
 1196HOH      O 3774   1.529   1.766   2.026
 1196HOH     H1 3775   1.438   1.748   2.050
 1196HOH     H2 3776   1.571   1.791   2.109
 1197HOH      O 3777   3.895   0.369   1.077
 1197HOH     H1 3778   3.858   0.315   1.147
 1197HOH     H2 3779   3.934   0.307   1.016
 1198HOH      O 3780   3.891   0.024   3.960
 1198HOH     H1 3781   3.920  -0.051   4.012
 1198HOH     H2 3782   3.802   0.041   3.990
 1199HOH      O 3783   2.518   2.753   0.206
 1199HOH     H1 3784   2.577   2.678   0.201
 1199HOH     H2 3785   2.561   2.822   0.157
 1200HOH      O 3786   0.040   0.610   2.655
 1200HOH     H1 3787   0.128   0.638   2.630
 1200HOH     H2 3788  -0.010   0.610   2.573
 1201HOH      O 3789   1.400   1.332   2.559
 1201HOH     H1 3790   1.380   1.239   2.549
 1201HOH     H2 3791   1.358   1.357   2.642
 1202HOH      O 3792   1.460   0.730   3.031
 1202HOH     H1 3793   1.466   0.811   3.083
 1202HOH     H2 3794   1.399   0.675   3.080
 1203HOH      O 3795   1.066   2.709   3.502
 1203HOH     H1 3796   1.125   2.647   3.544
 1203HOH     H2 3797   1.118   2.789   3.492
 1204HOH      O 3798   3.401   3.041   0.086
 1204HOH     H1 3799   3.389   3.036   0.181
 1204HOH     H2 3800   3.343   3.113   0.059
 1205HOH      O 3801   3.732   3.277   3.967
 1205HOH     H1 3802   3.778   3.294   3.884
 1205HOH     H2 3803   3.686   3.194   3.952
 1206HOH      O 3804   2.396   1.949   0.864
 1206HOH     H1 3805   2.361   2.038   0.867
 1206HOH     H2 3806   2.461   1.946   0.934
 1207HOH      O 3807   3.917   2.237   0.660
 1207HOH     H1 3808   3.870   2.269   0.583
 1207HOH     H2 3809   3.985   2.302   0.676
 1208HOH      O 3810   3.657   1.738   2.118
 1208HOH     H1 3811   3.745   1.743   2.080
 1208HOH     H2 3812   3.665   1.782   2.202
 1209HOH      O 3813   0.581   2.600   0.381
 1209HOH     H1 3814   0.501   2.641   0.414
 1209HOH     H2 3815   0.552   2.541   0.312
 1210HOH      O 3816   2.722   0.526   3.237
 1210HOH     H1 3817   2.658   0.487   3.297
 1210HOH     H2 3818   2.669   0.580   3.178
 1211HOH      O 3819   2.723   3.932   1.645
 1211HOH     H1 3820   2.749   3.923   1.553
 1211HOH     H2 3821   2.717   4.027   1.658
 1212HOH      O 3822   1.803   1.085   0.011
 1212HOH     H1 3823   1.826   1.120   0.097
 1212HOH     H2 3824   1.867   1.016  -0.004
 1213HOH      O 3825   2.520   0.192   0.538
 1213HOH     H1 3826   2.537   0.284   0.516
 1213HOH     H2 3827   2.465   0.160   0.466
 1214HOH      O 3828   0.653   3.089   2.103
 1214HOH     H1 3829   0.658   3.175   2.061
 1214HOH     H2 3830   0.743   3.057   2.101
 1215HOH      O 3831   2.347   3.149   1.544
 1215HOH     H1 3832   2.296   3.162   1.464
 1215HOH     H2 3833   2.354   3.236   1.582
 1216HOH      O 3834   0.291   1.452   3.325
 1216HOH     H1 3835   0.290   1.360   3.350
 1216HOH     H2 3836   0.372   1.463   3.275
 1217HOH      O 3837   0.255   0.336   2.524
 1217HOH     H1 3838   0.164   0.311   2.537
 1217HOH     H2 3839   0.259   0.427   2.553
 1218HOH      O 3840   0.126   2.419   0.371
 1218HOH     H1 3841   0.032   2.412   0.388
 1218HOH     H2 3842   0.158   2.475   0.441
 1219HOH      O 3843   3.649   0.893   1.904
 1219HOH     H1 3844   3.727   0.942   1.877
 1219HOH     H2 3845   3.664   0.805   1.870
 1220HOH      O 3846   2.031   3.091   1.951
 1220HOH     H1 3847   2.016   3.010   1.902
 1220HOH     H2 3848   2.007   3.161   1.890
 1221HOH      O 3849   3.289   3.937   3.716
 1221HOH     H1 3850   3.365   3.887   3.685
 1221HOH     H2 3851   3.270   3.998   3.644
 1222HOH      O 3852   1.147   1.163   2.232
 1222HOH     H1 3853   1.129   1.070   2.215
 1222HOH     H2 3854   1.187   1.195   2.152
 1223HOH      O 3855   0.871   1.058   1.243
 1223HOH     H1 3856   0.803   1.104   1.291
 1223HOH     H2 3857   0.903   1.121   1.179
 1224HOH      O 3858   0.357   1.187   3.105
 1224HOH     H1 3859   0.450   1.191   3.085
 1224HOH     H2 3860   0.314   1.201   3.020
 1225HOH      O 3861   0.392   4.060   1.357
 1225HOH     H1 3862   0.324   4.002   1.325
 1225HOH     H2 3863   0.467   4.003   1.372
 1226HOH      O 3864   1.868   3.384   0.989
 1226HOH     H1 3865   1.951   3.428   1.005
 1226HOH     H2 3866   1.861   3.378   0.893
 1227HOH      O 3867   1.785   2.830   1.926
 1227HOH     H1 3868   1.732   2.786   1.993
 1227HOH     H2 3869   1.736   2.909   1.905
 1228HOH      O 3870   1.945   3.480   3.977
 1228HOH     H1 3871   1.983   3.528   3.903
 1228HOH     H2 3872   1.866   3.439   3.941
 1229HOH      O 3873   0.213   1.295   2.892
 1229HOH     H1 3874   0.174   1.340   2.967
 1229HOH     H2 3875   0.139   1.256   2.846
 1230HOH      O 3876   3.990   2.889   0.118
 1230HOH     H1 3877   4.010   2.943   0.194
 1230HOH     H2 3878   3.895   2.887   0.114
 1231HOH      O 3879   2.308   0.424   3.694
 1231HOH     H1 3880   2.370   0.370   3.744
 1231HOH     H2 3881   2.267   0.480   3.760
 1232HOH      O 3882   1.568   1.887   3.103
 1232HOH     H1 3883   1.536   1.854   3.187
 1232HOH     H2 3884   1.579   1.809   3.050
 1233HOH      O 3885   2.920   3.626   0.270
 1233HOH     H1 3886   2.942   3.534   0.262
 1233HOH     H2 3887   2.929   3.662   0.182
 1234HOH      O 3888   2.933   0.778   3.818
 1234HOH     H1 3889   2.987   0.767   3.740
 1234HOH     H2 3890   2.846   0.800   3.785
 1235HOH      O 3891   1.617   2.967   3.765
 1235HOH     H1 3892   1.591   3.010   3.846
 1235HOH     H2 3893   1.698   3.010   3.739
 1236HOH      O 3894   1.237   1.185   1.539
 1236HOH     H1 3895   1.301   1.133   1.490
 1236HOH     H2 3896   1.290   1.247   1.589
 1237HOH      O 3897   1.848   0.486   1.446
 1237HOH     H1 3898   1.812   0.573   1.429
 1237HOH     H2 3899   1.800   0.429   1.386
 1238HOH      O 3900   2.252   1.782   0.448
 1238HOH     H1 3901   2.287   1.850   0.390
 1238HOH     H2 3902   2.160   1.774   0.423
 1239HOH      O 3903   3.847   3.277   2.852
 1239HOH     H1 3904   3.907   3.203   2.864
 1239HOH     H2 3905   3.869   3.311   2.766
 1240HOH      O 3906   2.086   1.363   0.571
 1240HOH     H1 3907   2.149   1.434   0.583
 1240HOH     H2 3908   2.041   1.357   0.656
 1241HOH      O 3909   1.170   0.515   2.036
 1241HOH     H1 3910   1.244   0.492   1.981
 1241HOH     H2 3911   1.172   0.611   2.041
 1242HOH      O 3912   0.247   2.930   3.636
 1242HOH     H1 3913   0.226   3.023   3.642
 1242HOH     H2 3914   0.172   2.886   3.678
 1243HOH      O 3915   2.970   3.390   2.744
 1243HOH     H1 3916   3.066   3.383   2.748
 1243HOH     H2 3917   2.944   3.319   2.686
 1244HOH      O 3918   2.440   2.984   3.953
 1244HOH     H1 3919   2.478   3.043   3.888
 1244HOH     H2 3920   2.419   2.905   3.903
 1245HOH      O 3921   0.910   2.250   0.833
 1245HOH     H1 3922   0.839   2.206   0.880
 1245HOH     H2 3923   0.978   2.263   0.899
 1246HOH      O 3924   3.012   0.144   1.485
 1246HOH     H1 3925   2.956   0.067   1.475
 1246HOH     H2 3926   3.001   0.192   1.403
 1247HOH      O 3927   1.965   2.318   1.070
 1247HOH     H1 3928   1.935   2.284   0.986
 1247HOH     H2 3929   1.995   2.407   1.051
 1248HOH      O 3930   0.238   3.392   1.230
 1248HOH     H1 3931   0.325   3.428   1.212
 1248HOH     H2 3932   0.239   3.305   1.191
 1249HOH      O 3933   1.471   1.720   0.290
 1249HOH     H1 3934   1.531   1.664   0.341
 1249HOH     H2 3935   1.528   1.763   0.226
 1250HOH      O 3936   0.222   3.420   3.420
 1250HOH     H1 3937   0.179   3.504   3.403
 1250HOH     H2 3938   0.156   3.354   3.399
 1251HOH      O 3939   3.727   2.345   2.162
 1251HOH     H1 3940   3.651   2.362   2.106
 1251HOH     H2 3941   3.730   2.422   2.219
 1252HOH      O 3942   0.255   2.492   2.791
 1252HOH     H1 3943   0.325   2.462   2.850
 1252HOH     H2 3944   0.235   2.581   2.822
 1253HOH      O 3945   1.067   1.090   0.544
 1253HOH     H1 3946   1.128   1.017   0.555
 1253HOH     H2 3947   1.080   1.119   0.454
 1254HOH      O 3948   3.538   1.319   2.063
 1254HOH     H1 3949   3.583   1.352   1.985
 1254HOH     H2 3950   3.448   1.349   2.053
 1255HOH      O 3951   1.964   3.650   3.346
 1255HOH     H1 3952   1.970   3.738   3.307
 1255HOH     H2 3953   2.054   3.627   3.366
 1256HOH      O 3954   3.376   1.679   2.084
 1256HOH     H1 3955   3.351   1.704   2.173
 1256HOH     H2 3956   3.472   1.677   2.087
 1257HOH      O 3957   0.886   3.144   1.269
 1257HOH     H1 3958   0.939   3.126   1.347
 1257HOH     H2 3959   0.871   3.058   1.230
 1258HOH      O 3960   3.958   3.690   1.745
 1258HOH     H1 3961   3.870   3.724   1.727
 1258HOH     H2 3962   3.966   3.614   1.687
 1259HOH      O 3963   0.363   3.368   0.727
 1259HOH     H1 3964   0.340   3.318   0.649
 1259HOH     H2 3965   0.424   3.435   0.695
 1260HOH      O 3966   3.628   0.414   2.110
 1260HOH     H1 3967   3.616   0.483   2.044
 1260HOH     H2 3968   3.679   0.346   2.064
 1261HOH      O 3969   0.917   2.635   3.775
 1261HOH     H1 3970   0.994   2.692   3.776
 1261HOH     H2 3971   0.893   2.629   3.683
 1262HOH      O 3972   2.038   1.993   0.771
 1262HOH     H1 3973   2.096   2.067   0.752
 1262HOH     H2 3974   2.071   1.958   0.854
 1263HOH      O 3975   3.035   1.604   3.396
 1263HOH     H1 3976   3.002   1.525   3.353
 1263HOH     H2 3977   3.125   1.613   3.364
 1264HOH      O 3978   2.366   2.899   1.641
 1264HOH     H1 3979   2.353   2.984   1.601
 1264HOH     H2 3980   2.386   2.918   1.733
 1265HOH      O 3981   1.998   2.135   1.432
 1265HOH     H1 3982   1.939   2.130   1.357
 1265HOH     H2 3983   2.084   2.153   1.394
 1266HOH      O 3984   0.098   3.858   1.837
 1266HOH     H1 3985   0.099   3.926   1.770
 1266HOH     H2 3986   0.044   3.788   1.801
 1267HOH      O 3987   2.498   2.814   0.508
 1267HOH     H1 3988   2.468   2.785   0.421
 1267HOH     H2 3989   2.432   2.779   0.568
 1268HOH      O 3990   1.274   0.547   2.543
 1268HOH     H1 3991   1.231   0.504   2.469
 1268HOH     H2 3992   1.203   0.584   2.595
 1269HOH      O 3993   1.003   0.372   1.320
 1269HOH     H1 3994   0.994   0.338   1.409
 1269HOH     H2 3995   0.976   0.299   1.264
 1270HOH      O 3996   3.457   0.825   2.671
 1270HOH     H1 3997   3.512   0.746   2.676
 1270HOH     H2 3998   3.464   0.853   2.580
 1271HOH      O 3999   1.824   0.508   1.092
 1271HOH     H1 4000   1.884   0.583   1.092
 1271HOH     H2 4001   1.756   0.531   1.155
 1272HOH      O 4002   3.384   3.579   4.015
 1272HOH     H1 4003   3.346   3.493   4.032
 1272HOH     H2 4004   3.478   3.567   4.033
 1273HOH      O 4005   1.480   0.303   1.621
 1273HOH     H1 4006   1.561   0.354   1.619
 1273HOH     H2 4007   1.499   0.226   1.566
 1274HOH      O 4008   0.494   0.983   1.863
 1274HOH     H1 4009   0.470   1.034   1.785
 1274HOH     H2 4010   0.532   1.047   1.923
 1275HOH      O 4011   0.406   2.591   0.639
 1275HOH     H1 4012   0.497   2.604   0.665
 1275HOH     H2 4013   0.355   2.642   0.702
 1276HOH      O 4014   0.781   3.231   0.241
 1276HOH     H1 4015   0.834   3.267   0.170
 1276HOH     H2 4016   0.818   3.271   0.320
 1277HOH      O 4017   1.300   3.878   3.221
 1277HOH     H1 4018   1.389   3.867   3.187
 1277HOH     H2 4019   1.258   3.937   3.158
 1278HOH      O 4020   1.363   3.350   2.405
 1278HOH     H1 4021   1.406   3.264   2.404
 1278HOH     H2 4022   1.352   3.370   2.498
 1279HOH      O 4023   3.398   0.983   0.763
 1279HOH     H1 4024   3.354   0.903   0.738
 1279HOH     H2 4025   3.329   1.038   0.801
 1280HOH      O 4026   0.728   3.010   2.910
 1280HOH     H1 4027   0.782   3.084   2.884
 1280HOH     H2 4028   0.717   2.958   2.830
 1281HOH      O 4029   1.597   0.076   3.043
 1281HOH     H1 4030   1.629   0.149   3.096
 1281HOH     H2 4031   1.502   0.090   3.036
 1282HOH      O 4032   3.518   0.455   3.157
 1282HOH     H1 4033   3.562   0.537   3.179
 1282HOH     H2 4034   3.588   0.390   3.154
 1283HOH      O 4035   3.048   2.918   1.448
 1283HOH     H1 4036   3.118   2.853   1.454
 1283HOH     H2 4037   3.082   2.984   1.387
 1284HOH      O 4038   0.725  -0.018   0.412
 1284HOH     H1 4039   0.744   0.075   0.419
 1284HOH     H2 4040   0.660  -0.024   0.341
 1285HOH      O 4041   2.210   2.826   2.092
 1285HOH     H1 4042   2.156   2.867   2.024
 1285HOH     H2 4043   2.202   2.732   2.077
 1286HOH      O 4044   0.258   3.105   2.919
 1286HOH     H1 4045   0.164   3.122   2.920
 1286HOH     H2 4046   0.273   3.051   2.997
 1287HOH      O 4047   2.930   2.887   0.594
 1287HOH     H1 4048   3.020   2.856   0.607
 1287HOH     H2 4049   2.887   2.873   0.679
 1288HOH      O 4050   3.115   1.364   1.835
 1288HOH     H1 4051   3.188   1.422   1.857
 1288HOH     H2 4052   3.131   1.339   1.744
 1289HOH      O 4053   0.075   0.398   3.348
 1289HOH     H1 4054   0.166   0.382   3.326
 1289HOH     H2 4055   0.061   0.348   3.428
 1290HOH      O 4056   1.039   0.444   0.734
 1290HOH     H1 4057   1.039   0.493   0.652
 1290HOH     H2 4058   1.004   0.358   0.711
 1291HOH      O 4059   0.526   1.482   3.032
 1291HOH     H1 4060   0.612   1.464   3.071
 1291HOH     H2 4061   0.486   1.544   3.092
 1292HOH      O 4062   3.934   1.514   2.785
 1292HOH     H1 4063   4.019   1.549   2.761
 1292HOH     H2 4064   3.951   1.423   2.810
 1293HOH      O 4065   2.349   3.097   3.403
 1293HOH     H1 4066   2.372   3.151   3.328
 1293HOH     H2 4067   2.256   3.114   3.418
 1294HOH      O 4068   0.691   0.119   1.601
 1294HOH     H1 4069   0.781   0.106   1.630
 1294HOH     H2 4070   0.677   0.214   1.606
 1295HOH      O 4071   3.081   1.688   3.784
 1295HOH     H1 4072   3.153   1.632   3.755
 1295HOH     H2 4073   3.104   1.711   3.874
 1296HOH      O 4074   2.298   3.256   0.009
 1296HOH     H1 4075   2.389   3.284   0.014
 1296HOH     H2 4076   2.250   3.334  -0.018
 1297HOH      O 4077   3.264   3.389   2.815
 1297HOH     H1 4078   3.348   3.434   2.829
 1297HOH     H2 4079   3.245   3.349   2.899
 1298HOH      O 4080   0.277   3.763   0.069
 1298HOH     H1 4081   0.323   3.685   0.099
 1298HOH     H2 4082   0.303   3.832   0.130
 1299HOH      O 4083   4.052   1.481   2.181
 1299HOH     H1 4084   3.971   1.436   2.205
 1299HOH     H2 4085   4.041   1.570   2.215
 1300HOH      O 4086   0.521   3.575   0.613
 1300HOH     H1 4087   0.514   3.633   0.536
 1300HOH     H2 4088   0.536   3.635   0.686
 1301HOH      O 4089   2.962   2.125   0.468
 1301HOH     H1 4090   3.050   2.122   0.506
 1301HOH     H2 4091   2.937   2.217   0.475
 1302HOH      O 4092   2.648   0.958   3.016
 1302HOH     H1 4093   2.603   1.042   3.008
 1302HOH     H2 4094   2.634   0.915   2.932
 1303HOH      O 4095   0.698   3.113   1.003
 1303HOH     H1 4096   0.605   3.132   1.017
 1303HOH     H2 4097   0.698   3.038   0.943
 1304HOH      O 4098   1.273   3.236   1.410
 1304HOH     H1 4099   1.199   3.265   1.356
 1304HOH     H2 4100   1.345   3.295   1.384
 1305HOH      O 4101   0.296   2.467   1.753
 1305HOH     H1 4102   0.308   2.519   1.674
 1305HOH     H2 4103   0.382   2.430   1.772
 1306HOH      O 4104   3.706   0.891   1.476
 1306HOH     H1 4105   3.720   0.823   1.542
 1306HOH     H2 4106   3.676   0.843   1.398
 1307HOH      O 4107   3.944   0.932   3.769
 1307HOH     H1 4108   3.911   0.999   3.830
 1307HOH     H2 4109   3.938   0.973   3.683
 1308HOH      O 4110   0.414   0.321   0.004
 1308HOH     H1 4111   0.357   0.391   0.035
 1308HOH     H2 4112   0.471   0.302   0.079
 1309HOH      O 4113   3.661   1.757   0.331
 1309HOH     H1 4114   3.612   1.676   0.348
 1309HOH     H2 4115   3.667   1.799   0.416
 1310HOH      O 4116   3.311   1.576   2.800
 1310HOH     H1 4117   3.349   1.505   2.748
 1310HOH     H2 4118   3.376   1.592   2.869
 1311HOH      O 4119   2.844   3.163   1.705
 1311HOH     H1 4120   2.894   3.207   1.773
 1311HOH     H2 4121   2.811   3.233   1.649
 1312HOH      O 4122   0.162   2.329   0.127
 1312HOH     H1 4123   0.153   2.372   0.212
 1312HOH     H2 4124   0.165   2.401   0.064
 1313HOH      O 4125   3.971   3.315   3.463
 1313HOH     H1 4126   3.933   3.263   3.392
 1313HOH     H2 4127   3.957   3.406   3.437
 1314HOH      O 4128   3.903   2.551   2.887
 1314HOH     H1 4129   3.938   2.639   2.873
 1314HOH     H2 4130   3.936   2.526   2.973
 1315HOH      O 4131   3.003   0.913   0.275
 1315HOH     H1 4132   2.970   0.894   0.187
 1315HOH     H2 4133   2.979   1.004   0.291
 1316HOH      O 4134   1.958   3.895   3.229
 1316HOH     H1 4135   1.955   3.982   3.269
 1316HOH     H2 4136   1.951   3.913   3.135
 1317HOH      O 4137   0.328   0.106   0.436
 1317HOH     H1 4138   0.345   0.043   0.506
 1317HOH     H2 4139   0.379   0.183   0.460
 1318HOH      O 4140   2.071   2.715   1.416
 1318HOH     H1 4141   2.094   2.808   1.409
 1318HOH     H2 4142   2.143   2.677   1.466
 1319HOH      O 4143   2.584   3.108   3.010
 1319HOH     H1 4144   2.645   3.138   2.943
 1319HOH     H2 4145   2.637   3.055   3.070
 1320HOH      O 4146   3.131   2.335   1.416
 1320HOH     H1 4147   3.140   2.271   1.487
 1320HOH     H2 4148   3.216   2.379   1.412
 1321HOH      O 4149   0.536   0.277   0.929
 1321HOH     H1 4150   0.617   0.318   0.898
 1321HOH     H2 4151   0.472   0.348   0.930
 1322HOH      O 4152   2.261   3.415   0.285
 1322HOH     H1 4153   2.235   3.506   0.268
 1322HOH     H2 4154   2.197   3.362   0.237
 1323HOH      O 4155   2.942   0.216   1.920
 1323HOH     H1 4156   2.975   0.131   1.891
 1323HOH     H2 4157   3.011   0.278   1.893
 1324HOH      O 4158   0.450   2.761   3.982
 1324HOH     H1 4159   0.412   2.723   3.903
 1324HOH     H2 4160   0.544   2.742   3.974
 1325HOH      O 4161   1.534   2.597   2.468
 1325HOH     H1 4162   1.533   2.534   2.396
 1325HOH     H2 4163   1.611   2.572   2.520
 1326HOH      O 4164   0.224   0.019   2.990
 1326HOH     H1 4165   0.174   0.077   2.932
 1326HOH     H2 4166   0.297  -0.012   2.935
 1327HOH      O 4167   3.741   1.850   3.431
 1327HOH     H1 4168   3.799   1.869   3.358
 1327HOH     H2 4169   3.719   1.757   3.421
 1328HOH      O 4170   0.100   3.814   3.086
 1328HOH     H1 4171   0.045   3.871   3.140
 1328HOH     H2 4172   0.139   3.873   3.021
 1329HOH      O 4173   0.318   0.263   1.153
 1329HOH     H1 4174   0.379   0.327   1.114
 1329HOH     H2 4175   0.254   0.317   1.199
 1330HOH      O 4176   2.206   0.811   2.931
 1330HOH     H1 4177   2.139   0.789   2.867
 1330HOH     H2 4178   2.245   0.892   2.899
 1331HOH      O 4179   2.031   2.647   2.445
 1331HOH     H1 4180   1.998   2.626   2.357
 1331HOH     H2 4181   2.087   2.723   2.432
 1332HOH      O 4182   2.041   3.030   3.935
 1332HOH     H1 4183   1.964   3.043   3.879
 1332HOH     H2 4184   2.102   2.980   3.881
 1333HOH      O 4185   2.458   2.206   0.282
 1333HOH     H1 4186   2.383   2.147   0.274
 1333HOH     H2 4187   2.420   2.290   0.306
 1334HOH      O 4188   2.561   2.677   1.323
 1334HOH     H1 4189   2.475   2.703   1.289
 1334HOH     H2 4190   2.603   2.759   1.349
 1335HOH      O 4191   3.034   1.451   0.669
 1335HOH     H1 4192   2.959   1.405   0.706
 1335HOH     H2 4193   3.013   1.461   0.576
 1336HOH      O 4194   0.661   1.655   1.093
 1336HOH     H1 4195   0.683   1.711   1.019
 1336HOH     H2 4196   0.590   1.600   1.061
 1337HOH      O 4197   1.797   3.292   2.517
 1337HOH     H1 4198   1.810   3.370   2.571
 1337HOH     H2 4199   1.838   3.221   2.567
 1338HOH      O 4200   2.779   2.237   2.035
 1338HOH     H1 4201   2.710   2.199   1.981
 1338HOH     H2 4202   2.851   2.253   1.974
 1339HOH      O 4203   0.160   1.637   2.959
 1339HOH     H1 4204   0.157   1.711   3.019
 1339HOH     H2 4205   0.168   1.560   3.016
 1340HOH      O 4206   0.020   2.505   3.112
 1340HOH     H1 4207   0.078   2.534   3.182
 1340HOH     H2 4208  -0.050   2.457   3.157
 1341HOH      O 4209   2.339   2.813   1.242
 1341HOH     H1 4210   2.320   2.866   1.319
 1341HOH     H2 4211   2.369   2.875   1.176
 1342HOH      O 4212   2.690   2.160   0.812
 1342HOH     H1 4213   2.665   2.069   0.830
 1342HOH     H2 4214   2.683   2.169   0.717
 1343HOH      O 4215   1.623   3.534   3.606
 1343HOH     H1 4216   1.619   3.589   3.684
 1343HOH     H2 4217   1.546   3.476   3.614
 1344HOH      O 4218   1.094   3.634   0.218
 1344HOH     H1 4219   1.165   3.696   0.235
 1344HOH     H2 4220   1.126   3.550   0.251
 1345HOH      O 4221   3.996   1.248   1.901
 1345HOH     H1 4222   4.064   1.219   1.841
 1345HOH     H2 4223   3.966   1.331   1.864
 1346HOH      O 4224   0.376   0.309   2.918
 1346HOH     H1 4225   0.319   0.238   2.889
 1346HOH     H2 4226   0.329   0.389   2.893
 1347HOH      O 4227   0.390   1.285   2.583
 1347HOH     H1 4228   0.313   1.318   2.537
 1347HOH     H2 4229   0.368   1.194   2.603
 1348HOH      O 4230   2.870   0.069   0.396
 1348HOH     H1 4231   2.833   0.112   0.319
 1348HOH     H2 4232   2.874   0.137   0.462
 1349HOH      O 4233   2.977   1.589   1.445
 1349HOH     H1 4234   3.011   1.608   1.358
 1349HOH     H2 4235   2.901   1.534   1.430
 1350HOH      O 4236   1.462   0.476   3.441
 1350HOH     H1 4237   1.487   0.550   3.496
 1350HOH     H2 4238   1.373   0.455   3.468
 1351HOH      O 4239   1.813   2.143   1.229
 1351HOH     H1 4240   1.775   2.083   1.166
 1351HOH     H2 4241   1.797   2.230   1.193
 1352HOH      O 4242   1.802   2.120   1.823
 1352HOH     H1 4243   1.808   2.198   1.768
 1352HOH     H2 4244   1.840   2.050   1.770
 1353HOH      O 4245   3.010   1.144   2.100
 1353HOH     H1 4246   3.013   1.090   2.021
 1353HOH     H2 4247   3.006   1.234   2.068
 1354HOH      O 4248   2.583   0.462   0.458
 1354HOH     H1 4249   2.670   0.439   0.425
 1354HOH     H2 4250   2.545   0.516   0.389
 1355HOH      O 4251   2.108   2.259   1.717
 1355HOH     H1 4252   2.019   2.284   1.692
 1355HOH     H2 4253   2.163   2.284   1.643
 1356HOH      O 4254   3.123   0.297   0.870
 1356HOH     H1 4255   3.028   0.299   0.862
 1356HOH     H2 4256   3.145   0.204   0.875
 1357HOH      O 4257   3.649   0.629   2.661
 1357HOH     H1 4258   3.595   0.551   2.670
 1357HOH     H2 4259   3.731   0.607   2.703
 1358HOH      O 4260   3.566   1.053   0.123
 1358HOH     H1 4261   3.509   1.010   0.186
 1358HOH     H2 4262   3.595   0.983   0.065
 1359HOH      O 4263   1.993   2.707   0.169
 1359HOH     H1 4264   1.974   2.643   0.100
 1359HOH     H2 4265   2.080   2.739   0.149
 1360HOH      O 4266   1.018   2.143   2.657
 1360HOH     H1 4267   1.046   2.227   2.622
 1360HOH     H2 4268   1.019   2.156   2.752
 1361HOH      O 4269   0.622   1.788   2.172
 1361HOH     H1 4270   0.614   1.766   2.265
 1361HOH     H2 4271   0.606   1.883   2.169
 1362HOH      O 4272   3.648   0.150   1.918
 1362HOH     H1 4273   3.566   0.187   1.887
 1362HOH     H2 4274   3.710   0.168   1.848
 1363HOH      O 4275   3.187   3.096   3.486
 1363HOH     H1 4276   3.126   3.152   3.534
 1363HOH     H2 4277   3.271   3.141   3.494
 1364HOH      O 4278   3.250   1.193   0.173
 1364HOH     H1 4279   3.311   1.233   0.111
 1364HOH     H2 4280   3.198   1.133   0.120
 1365HOH      O 4281   3.237   1.757   2.612
 1365HOH     H1 4282   3.294   1.831   2.630
 1365HOH     H2 4283   3.261   1.691   2.677
 1366HOH      O 4284   0.600   0.507   1.261
 1366HOH     H1 4285   0.685   0.541   1.232
 1366HOH     H2 4286   0.538   0.539   1.195
 1367HOH      O 4287   2.432   0.088   1.249
 1367HOH     H1 4288   2.397   0.072   1.337
 1367HOH     H2 4289   2.361   0.131   1.202
 1368HOH      O 4290   1.161   3.273   3.044
 1368HOH     H1 4291   1.227   3.341   3.052
 1368HOH     H2 4292   1.173   3.237   2.957
 1369HOH      O 4293   3.957   0.836   1.206
 1369HOH     H1 4294   3.888   0.774   1.231
 1369HOH     H2 4295   4.026   0.783   1.169
 1370HOH      O 4296   2.394   3.228   3.178
 1370HOH     H1 4297   2.399   3.323   3.184
 1370HOH     H2 4298   2.462   3.204   3.115
 1371HOH      O 4299   3.198   0.357   3.680
 1371HOH     H1 4300   3.224   0.285   3.623
 1371HOH     H2 4301   3.103   0.347   3.689
 1372HOH      O 4302   0.066   3.641   2.700
 1372HOH     H1 4303  -0.014   3.693   2.690
 1372HOH     H2 4304   0.135   3.695   2.662
 1373HOH      O 4305   0.780   1.662   1.345
 1373HOH     H1 4306   0.741   1.670   1.258
 1373HOH     H2 4307   0.855   1.604   1.333
 1374HOH      O 4308   3.841   2.102   1.089
 1374HOH     H1 4309   3.818   2.194   1.102
 1374HOH     H2 4310   3.905   2.084   1.159
 1375HOH      O 4311   2.255   1.529   3.358
 1375HOH     H1 4312   2.300   1.604   3.319
 1375HOH     H2 4313   2.291   1.453   3.312
 1376HOH      O 4314   2.996   3.460   0.853
 1376HOH     H1 4315   2.939   3.503   0.917
 1376HOH     H2 4316   2.937   3.435   0.782
 1377HOH      O 4317   1.273   1.351   3.488
 1377HOH     H1 4318   1.349   1.408   3.489
 1377HOH     H2 4319   1.268   1.315   3.577
 1378HOH      O 4320   1.011   1.976   1.579
 1378HOH     H1 4321   0.995   1.890   1.616
 1378HOH     H2 4322   1.088   2.009   1.626
 1379HOH      O 4323   3.260   2.911   0.329
 1379HOH     H1 4324   3.272   2.904   0.424
 1379HOH     H2 4325   3.345   2.886   0.293
 1380HOH      O 4326   3.599   0.587   0.625
 1380HOH     H1 4327   3.515   0.544   0.613
 1380HOH     H2 4328   3.591   0.631   0.710
 1381HOH      O 4329   1.692   3.355   3.856
 1381HOH     H1 4330   1.679   3.271   3.900
 1381HOH     H2 4331   1.611   3.403   3.872
 1382HOH      O 4332   3.201   1.040   1.222
 1382HOH     H1 4333   3.107   1.058   1.210
 1382HOH     H2 4334   3.208   0.945   1.213
 1383HOH      O 4335   1.558   0.588   1.656
 1383HOH     H1 4336   1.528   0.617   1.570
 1383HOH     H2 4337   1.615   0.659   1.686
 1384HOH      O 4338   2.781   0.061   3.882
 1384HOH     H1 4339   2.863   0.032   3.922
 1384HOH     H2 4340   2.762  -0.005   3.816
 1385HOH      O 4341   1.570   1.578   0.908
 1385HOH     H1 4342   1.546   1.658   0.955
 1385HOH     H2 4343   1.487   1.535   0.890
 1386HOH      O 4344   1.004   3.019   0.643
 1386HOH     H1 4345   1.006   2.924   0.628
 1386HOH     H2 4346   1.009   3.028   0.738
 1387HOH      O 4347   3.762   1.416   2.190
 1387HOH     H1 4348   3.740   1.508   2.207
 1387HOH     H2 4349   3.681   1.377   2.160
 1388HOH      O 4350   1.209   3.583   3.587
 1388HOH     H1 4351   1.217   3.581   3.491
 1388HOH     H2 4352   1.245   3.500   3.616
 1389HOH      O 4353   2.874   2.447   0.756
 1389HOH     H1 4354   2.925   2.372   0.786
 1389HOH     H2 4355   2.940   2.513   0.735
 1390HOH      O 4356   3.160   1.991   2.957
 1390HOH     H1 4357   3.067   1.989   2.981
 1390HOH     H2 4358   3.185   1.898   2.953
 1391HOH      O 4359   1.666   1.835   0.879
 1391HOH     H1 4360   1.571   1.835   0.890
 1391HOH     H2 4361   1.684   1.766   0.816
 1392HOH      O 4362   0.534   1.438   2.346
 1392HOH     H1 4363   0.483   1.358   2.328
 1392HOH     H2 4364   0.531   1.447   2.441
 1393HOH      O 4365   3.619   0.885   3.334
 1393HOH     H1 4366   3.699   0.937   3.319
 1393HOH     H2 4367   3.592   0.907   3.423
 1394HOH      O 4368   1.819   0.568   2.369
 1394HOH     H1 4369   1.830   0.525   2.284
 1394HOH     H2 4370   1.866   0.513   2.431
 1395HOH      O 4371   3.189   1.780   1.783
 1395HOH     H1 4372   3.206   1.777   1.689
 1395HOH     H2 4373   3.095   1.794   1.790
 1396HOH      O 4374   0.384   2.867   1.890
 1396HOH     H1 4375   0.339   2.805   1.947
 1396HOH     H2 4376   0.344   2.854   1.804
 1397HOH      O 4377   0.007   0.499   2.157
 1397HOH     H1 4378   0.037   0.412   2.183
 1397HOH     H2 4379   0.085   0.543   2.123
 1398HOH      O 4380   1.376   3.658   1.947
 1398HOH     H1 4381   1.414   3.585   1.899
 1398HOH     H2 4382   1.450   3.693   1.999
 1399HOH      O 4383   0.816   1.138   0.842
 1399HOH     H1 4384   0.857   1.052   0.833
 1399HOH     H2 4385   0.889   1.200   0.834
 1400HOH      O 4386   2.461   3.570   2.864
 1400HOH     H1 4387   2.521   3.591   2.936
 1400HOH     H2 4388   2.459   3.474   2.862
 1401HOH      O 4389   0.824   1.938   1.272
 1401HOH     H1 4390   0.809   1.852   1.311
 1401HOH     H2 4391   0.740   1.983   1.282
 1402HOH      O 4392   2.866   2.378   0.460
 1402HOH     H1 4393   2.863   2.431   0.381
 1402HOH     H2 4394   2.795   2.412   0.515
 1403HOH      O 4395   1.093   0.760   2.599
 1403HOH     H1 4396   1.072   0.762   2.505
 1403HOH     H2 4397   1.008   0.752   2.642
 1404HOH      O 4398   3.692   3.288   3.068
 1404HOH     H1 4399   3.729   3.290   2.979
 1404HOH     H2 4400   3.759   3.244   3.121
 1405HOH      O 4401   2.401   3.593   2.306
 1405HOH     H1 4402   2.308   3.572   2.313
 1405HOH     H2 4403   2.408   3.681   2.345
 1406HOH      O 4404   0.924   0.321   1.587
 1406HOH     H1 4405   0.938   0.296   1.678
 1406HOH     H2 4406   0.829   0.336   1.580
 1407HOH      O 4407   2.892   3.281   2.292
 1407HOH     H1 4408   2.865   3.372   2.294
 1407HOH     H2 4409   2.811   3.232   2.280
 1408HOH      O 4410   0.938   3.999   3.284
 1408HOH     H1 4411   1.024   4.022   3.250
 1408HOH     H2 4412   0.920   3.913   3.247
 1409HOH      O 4413   1.319   1.726   3.010
 1409HOH     H1 4414   1.262   1.790   3.052
 1409HOH     H2 4415   1.380   1.699   3.079
 1410HOH      O 4416   0.914   1.114   0.087
 1410HOH     H1 4417   0.891   1.073   0.170
 1410HOH     H2 4418   0.957   1.045   0.037
 1411HOH      O 4419   1.667   0.756   0.257
 1411HOH     H1 4420   1.683   0.762   0.163
 1411HOH     H2 4421   1.754   0.752   0.297
 1412HOH      O 4422   0.809   1.621   2.826
 1412HOH     H1 4423   0.851   1.551   2.876
 1412HOH     H2 4424   0.805   1.695   2.887
 1413HOH      O 4425   3.883   0.606   2.845
 1413HOH     H1 4426   3.912   0.554   2.920
 1413HOH     H2 4427   3.949   0.592   2.778
 1414HOH      O 4428   2.668   1.308   3.623
 1414HOH     H1 4429   2.732   1.380   3.627
 1414HOH     H2 4430   2.719   1.230   3.646
 1415HOH      O 4431   0.638   1.492   2.662
 1415HOH     H1 4432   0.698   1.516   2.733
 1415HOH     H2 4433   0.648   1.561   2.597
 1416HOH      O 4434   1.740   1.046   1.200
 1416HOH     H1 4435   1.745   1.053   1.105
 1416HOH     H2 4436   1.827   1.018   1.227
 1417HOH      O 4437   3.580   1.398   2.709
 1417HOH     H1 4438   3.623   1.402   2.623
 1417HOH     H2 4439   3.512   1.332   2.698
 1418HOH      O 4440   1.841   3.236   1.472
 1418HOH     H1 4441   1.876   3.176   1.539
 1418HOH     H2 4442   1.831   3.319   1.518
 1419HOH      O 4443   0.417   1.663   0.934
 1419HOH     H1 4444   0.416   1.577   0.977
 1419HOH     H2 4445   0.342   1.661   0.874
 1420HOH      O 4446   2.670   0.720   1.808
 1420HOH     H1 4447   2.736   0.668   1.852
 1420HOH     H2 4448   2.717   0.765   1.738
 1421HOH      O 4449   0.634   0.215   1.159
 1421HOH     H1 4450   0.586   0.229   1.078
 1421HOH     H2 4451   0.591   0.272   1.223
 1422HOH      O 4452   3.172   1.875   1.272
 1422HOH     H1 4453   3.114   1.888   1.347
 1422HOH     H2 4454   3.147   1.791   1.236
 1423HOH      O 4455   3.558   3.546   0.737
 1423HOH     H1 4456   3.581   3.551   0.644
 1423HOH     H2 4457   3.592   3.461   0.766
 1424HOH      O 4458   3.322   3.196   0.571
 1424HOH     H1 4459   3.398   3.198   0.513
 1424HOH     H2 4460   3.358   3.174   0.657
 1425HOH      O 4461   0.861   2.907   1.962
 1425HOH     H1 4462   0.819   2.880   2.043
 1425HOH     H2 4463   0.792   2.899   1.895
 1426HOH      O 4464   0.697   1.260   1.294
 1426HOH     H1 4465   0.605   1.280   1.275
 1426HOH     H2 4466   0.747   1.314   1.234
 1427HOH      O 4467   2.166   2.863   2.360
 1427HOH     H1 4468   2.257   2.845   2.383
 1427HOH     H2 4469   2.168   2.876   2.265
 1428HOH      O 4470   1.997   3.752   1.024
 1428HOH     H1 4471   2.025   3.767   1.114
 1428HOH     H2 4472   2.028   3.663   1.004
 1429HOH      O 4473   0.583   2.931   0.761
 1429HOH     H1 4474   0.509   2.992   0.767
 1429HOH     H2 4475   0.653   2.982   0.719
 1430HOH      O 4476   2.659   1.140   2.180
 1430HOH     H1 4477   2.731   1.149   2.243
 1430HOH     H2 4478   2.614   1.224   2.183
 1431HOH      O 4479   2.265   1.309   2.028
 1431HOH     H1 4480   2.221   1.390   2.055
 1431HOH     H2 4481   2.221   1.284   1.946
 1432HOH      O 4482   0.042   0.571   1.125
 1432HOH     H1 4483   0.041   0.628   1.048
 1432HOH     H2 4484   0.006   0.488   1.095
 1433HOH      O 4485   0.881   1.716   0.315
 1433HOH     H1 4486   0.930   1.778   0.262
 1433HOH     H2 4487   0.902   1.739   0.406
 1434HOH      O 4488   3.659   3.964   3.712
 1434HOH     H1 4489   3.615   4.022   3.774
 1434HOH     H2 4490   3.589   3.910   3.675
 1435HOH      O 4491   1.062   2.368   2.206
 1435HOH     H1 4492   1.155   2.376   2.226
 1435HOH     H2 4493   1.049   2.275   2.189
 1436HOH      O 4494   0.146   2.862   0.615
 1436HOH     H1 4495   0.153   2.792   0.679
 1436HOH     H2 4496   0.105   2.821   0.539
 1437HOH      O 4497   3.295   1.375   2.575
 1437HOH     H1 4498   3.229   1.394   2.508
 1437HOH     H2 4499   3.296   1.280   2.582
 1438HOH      O 4500   1.277   0.329   0.432
 1438HOH     H1 4501   1.279   0.320   0.527
 1438HOH     H2 4502   1.369   0.328   0.406
 1439HOH      O 4503   0.191   2.892   1.671
 1439HOH     H1 4504   0.216   2.814   1.621
 1439HOH     H2 4505   0.127   2.937   1.615
 1440HOH      O 4506   3.758   3.416   1.591
 1440HOH     H1 4507   3.772   3.377   1.677
 1440HOH     H2 4508   3.670   3.388   1.566
 1441HOH      O 4509   2.873   2.974   0.330
 1441HOH     H1 4510   2.890   2.938   0.416
 1441HOH     H2 4511   2.777   2.983   0.326
 1442HOH      O 4512   3.664   2.736   2.551
 1442HOH     H1 4513   3.720   2.806   2.516
 1442HOH     H2 4514   3.578   2.754   2.513
 1443HOH      O 4515   2.878   1.593   2.654
 1443HOH     H1 4516   2.811   1.609   2.587
 1443HOH     H2 4517   2.911   1.680   2.676
 1444HOH      O 4518   3.913   3.164   1.131
 1444HOH     H1 4519   3.874   3.244   1.166
 1444HOH     H2 4520   4.000   3.191   1.102
 1445HOH      O 4521   2.406   1.794   0.174
 1445HOH     H1 4522   2.501   1.790   0.178
 1445HOH     H2 4523   2.382   1.731   0.106
 1446HOH      O 4524   3.889   1.390   1.662
 1446HOH     H1 4525   3.849   1.376   1.576
 1446HOH     H2 4526   3.824   1.442   1.709
 1447HOH      O 4527   3.294   1.072   3.565
 1447HOH     H1 4528   3.375   1.031   3.597
 1447HOH     H2 4529   3.284   1.040   3.476
 1448HOH      O 4530   1.581   3.412   0.184
 1448HOH     H1 4531   1.504   3.408   0.128
 1448HOH     H2 4532   1.623   3.495   0.161
 1449HOH      O 4533   1.588   3.171   1.331
 1449HOH     H1 4534   1.579   3.255   1.288
 1449HOH     H2 4535   1.673   3.175   1.375
 1450HOH      O 4536   3.894   0.544   1.539
 1450HOH     H1 4537   3.842   0.575   1.466
 1450HOH     H2 4538   3.984   0.547   1.508
 1451HOH      O 4539   2.727   3.197   2.818
 1451HOH     H1 4540   2.716   3.202   2.723
 1451HOH     H2 4541   2.799   3.257   2.837
 1452HOH      O 4542   3.157   0.435   1.916
 1452HOH     H1 4543   3.238   0.469   1.877
 1452HOH     H2 4544   3.147   0.484   1.997
 1453HOH      O 4545   2.911   1.553   1.919
 1453HOH     H1 4546   2.958   1.479   1.880
 1453HOH     H2 4547   2.957   1.571   2.001
 1454HOH      O 4548   3.561   0.782   1.257
 1454HOH     H1 4549   3.547   0.832   1.176
 1454HOH     H2 4550   3.478   0.735   1.270
 1455HOH      O 4551   1.342   4.009   1.028
 1455HOH     H1 4552   1.314   3.940   1.088
 1455HOH     H2 4553   1.315   4.090   1.070
 1456HOH      O 4554   3.285   2.166   2.499
 1456HOH     H1 4555   3.275   2.109   2.575
 1456HOH     H2 4556   3.368   2.138   2.459
 1457HOH      O 4557   1.918   1.090   3.011
 1457HOH     H1 4558   1.875   1.093   3.096
 1457HOH     H2 4559   1.884   1.011   2.969
 1458HOH      O 4560   1.287   1.640   0.766
 1458HOH     H1 4561   1.215   1.649   0.703
 1458HOH     H2 4562   1.270   1.556   0.809
 1459HOH      O 4563   2.477   2.039   1.405
 1459HOH     H1 4564   2.416   2.072   1.338
 1459HOH     H2 4565   2.489   1.947   1.384
 1460HOH      O 4566   3.256   2.019   1.025
 1460HOH     H1 4567   3.336   2.055   1.061
 1460HOH     H2 4568   3.223   1.960   1.093
 1461HOH      O 4569   0.993   3.578   2.432
 1461HOH     H1 4570   0.927   3.535   2.378
 1461HOH     H2 4571   1.077   3.549   2.396
 1462HOH      O 4572   2.925   2.353   0.136
 1462HOH     H1 4573   2.973   2.271   0.147
 1462HOH     H2 4574   2.970   2.398   0.064
 1463HOH      O 4575   0.109   0.844   2.470
 1463HOH     H1 4576   0.116   0.938   2.486
 1463HOH     H2 4577   0.015   0.827   2.470
 1464HOH      O 4578   2.199   3.373   0.550
 1464HOH     H1 4579   2.133   3.440   0.530
 1464HOH     H2 4580   2.256   3.372   0.473
 1465HOH      O 4581   0.880   3.868   2.806
 1465HOH     H1 4582   0.952   3.920   2.840
 1465HOH     H2 4583   0.904   3.851   2.715
 1466HOH      O 4584   3.522   2.935   1.785
 1466HOH     H1 4585   3.511   2.941   1.880
 1466HOH     H2 4586   3.597   2.877   1.773
 1467HOH      O 4587   2.762   3.262   0.395
 1467HOH     H1 4588   2.701   3.194   0.424
 1467HOH     H2 4589   2.708   3.325   0.348
 1468HOH      O 4590   1.279   0.399   0.872
 1468HOH     H1 4591   1.264   0.332   0.939
 1468HOH     H2 4592   1.195   0.407   0.827
 1469HOH      O 4593   2.009   1.309   2.870
 1469HOH     H1 4594   1.995   1.303   2.775
 1469HOH     H2 4595   1.965   1.231   2.905
 1470HOH      O 4596   2.396   1.285   3.275
 1470HOH     H1 4597   2.401   1.201   3.319
 1470HOH     H2 4598   2.461   1.280   3.205
 1471HOH      O 4599   2.398   3.444   1.270
 1471HOH     H1 4600   2.483   3.414   1.238
 1471HOH     H2 4601   2.420   3.506   1.339
 1472HOH      O 4602   1.024   2.077   2.219
 1472HOH     H1 4603   0.970   2.028   2.156
 1472HOH     H2 4604   1.030   2.019   2.295
 1473HOH      O 4605   0.078   2.318   3.536
 1473HOH     H1 4606   0.058   2.406   3.566
 1473HOH     H2 4607   0.015   2.262   3.582
 1474HOH      O 4608   3.401   2.111   1.874
 1474HOH     H1 4609   3.322   2.135   1.923
 1474HOH     H2 4610   3.425   2.025   1.908
 1475HOH      O 4611   2.760   2.880   2.339
 1475HOH     H1 4612   2.798   2.794   2.360
 1475HOH     H2 4613   2.731   2.914   2.424
 1476HOH      O 4614   2.978   0.383   3.504
 1476HOH     H1 4615   2.964   0.444   3.432
 1476HOH     H2 4616   3.046   0.324   3.472
 1477HOH      O 4617   3.523   1.376   3.294
 1477HOH     H1 4618   3.435   1.404   3.268
 1477HOH     H2 4619   3.564   1.347   3.213
 1478HOH      O 4620   3.192   3.074   2.418
 1478HOH     H1 4621   3.224   3.139   2.354
 1478HOH     H2 4622   3.250   3.086   2.493
 1479HOH      O 4623   0.576   2.847   1.533
 1479HOH     H1 4624   0.594   2.788   1.460
 1479HOH     H2 4625   0.529   2.920   1.494
 1480HOH      O 4626   2.713   0.255   3.618
 1480HOH     H1 4627   2.705   0.161   3.599
 1480HOH     H2 4628   2.807   0.273   3.611
 1481HOH      O 4629   0.609   1.374   0.183
 1481HOH     H1 4630   0.632   1.466   0.178
 1481HOH     H2 4631   0.643   1.345   0.268
 1482HOH      O 4632   2.514   2.610   2.601
 1482HOH     H1 4633   2.532   2.700   2.628
 1482HOH     H2 4634   2.499   2.616   2.507
 1483HOH      O 4635   1.612   1.343   1.317
 1483HOH     H1 4636   1.587   1.268   1.262
 1483HOH     H2 4637   1.679   1.308   1.375
 1484HOH      O 4638   1.371   3.972   2.897
 1484HOH     H1 4639   1.443   3.932   2.947
 1484HOH     H2 4640   1.335   3.901   2.845
 1485HOH      O 4641   0.271   2.680   1.166
 1485HOH     H1 4642   0.350   2.644   1.126
 1485HOH     H2 4643   0.199   2.636   1.121
 1486HOH      O 4644   1.190   1.386   0.663
 1486HOH     H1 4645   1.264   1.397   0.603
 1486HOH     H2 4646   1.224   1.329   0.732
 1487HOH      O 4647   2.348   0.098   1.498
 1487HOH     H1 4648   2.401   0.097   1.577
 1487HOH     H2 4649   2.258   0.110   1.528
 1488HOH      O 4650   1.806   3.786   1.349
 1488HOH     H1 4651   1.862   3.847   1.301
 1488HOH     H2 4652   1.786   3.717   1.285
 1489HOH      O 4653   0.576   1.272   0.849
 1489HOH     H1 4654   0.668   1.246   0.841
 1489HOH     H2 4655   0.563   1.334   0.777
 1490HOH      O 4656   3.046   1.381   3.267
 1490HOH     H1 4657   3.080   1.329   3.340
 1490HOH     H2 4658   3.092   1.347   3.190
 1491HOH      O 4659   4.011   2.714   0.832
 1491HOH     H1 4660   3.926   2.675   0.813
 1491HOH     H2 4661   3.998   2.808   0.819
 1492HOH      O 4662   3.270   0.370   2.438
 1492HOH     H1 4663   3.291   0.361   2.345
 1492HOH     H2 4664   3.178   0.395   2.439
 1493HOH      O 4665   0.702   2.890   2.673
 1493HOH     H1 4666   0.655   2.967   2.642
 1493HOH     H2 4667   0.747   2.856   2.596
 1494HOH      O 4668   1.257   2.025   0.999
 1494HOH     H1 4669   1.177   2.007   1.047
 1494HOH     H2 4670   1.305   2.087   1.053
 1495HOH      O 4671   2.372   3.863   3.404
 1495HOH     H1 4672   2.301   3.832   3.460
 1495HOH     H2 4673   2.441   3.797   3.414
 1496HOH      O 4674   0.033   1.512   3.751
 1496HOH     H1 4675   0.040   1.418   3.740
 1496HOH     H2 4676   0.114   1.547   3.713
 1497HOH      O 4677   1.701   1.181   3.533
 1497HOH     H1 4678   1.778   1.236   3.538
 1497HOH     H2 4679   1.697   1.135   3.617
 1498HOH      O 4680   1.240   2.756   1.052
 1498HOH     H1 4681   1.299   2.707   1.109
 1498HOH     H2 4682   1.264   2.729   0.963
 1499HOH      O 4683   3.973   0.040   1.298
 1499HOH     H1 4684   3.898   0.058   1.354
 1499HOH     H2 4685   3.936   0.000   1.219
 1500HOH      O 4686   3.869   2.356   0.423
 1500HOH     H1 4687   3.859   2.303   0.344
 1500HOH     H2 4688   3.788   2.406   0.429
 1501HOH      O 4689   0.317   1.382   1.664
 1501HOH     H1 4690   0.295   1.331   1.742
 1501HOH     H2 4691   0.390   1.438   1.692
 1502HOH      O 4692   2.054   0.757   0.831
 1502HOH     H1 4693   2.034   0.730   0.742
 1502HOH     H2 4694   2.095   0.843   0.822
 1503HOH      O 4695   0.808   1.798   0.890
 1503HOH     H1 4696   0.782   1.890   0.883
 1503HOH     H2 4697   0.831   1.773   0.800
 1504HOH      O 4698   1.009   1.414   2.038
 1504HOH     H1 4699   1.004   1.427   1.944
 1504HOH     H2 4700   1.099   1.386   2.054
 1505HOH      O 4701   2.557   1.294   3.988
 1505HOH     H1 4702   2.470   1.323   4.017
 1505HOH     H2 4703   2.547   1.282   3.893
 1506HOH      O 4704  -0.004   3.841   0.090
 1506HOH     H1 4705   0.082   3.800   0.094
 1506HOH     H2 4706  -0.008   3.896   0.169
 1507HOH      O 4707   1.686   3.153   2.132
 1507HOH     H1 4708   1.687   3.127   2.039
 1507HOH     H2 4709   1.610   3.106   2.168
 1508HOH      O 4710   0.835   1.042   2.687
 1508HOH     H1 4711   0.827   0.960   2.638
 1508HOH     H2 4712   0.776   1.102   2.642
 1509HOH      O 4713   3.277   0.639   0.306
 1509HOH     H1 4714   3.339   0.696   0.352
 1509HOH     H2 4715   3.276   0.671   0.216
 1510HOH      O 4716   0.243   2.420   1.333
 1510HOH     H1 4717   0.245   2.469   1.251
 1510HOH     H2 4718   0.157   2.378   1.334
 1511HOH      O 4719   0.242   3.484   2.267
 1511HOH     H1 4720   0.147   3.486   2.257
 1511HOH     H2 4721   0.267   3.576   2.275
 1512HOH      O 4722   2.721   3.302   1.323
 1512HOH     H1 4723   2.701   3.368   1.258
 1512HOH     H2 4724   2.678   3.223   1.291
 1513HOH      O 4725   3.142   1.242   3.826
 1513HOH     H1 4726   3.226   1.198   3.841
 1513HOH     H2 4727   3.165   1.326   3.787
 1514HOH      O 4728   1.792   0.838   2.322
 1514HOH     H1 4729   1.877   0.865   2.357
 1514HOH     H2 4730   1.784   0.746   2.347
 1515HOH      O 4731   3.664   2.017   2.874
 1515HOH     H1 4732   3.640   1.932   2.911
 1515HOH     H2 4733   3.591   2.074   2.898
 1516HOH      O 4734   0.163   1.757   1.314
 1516HOH     H1 4735   0.091   1.790   1.368
 1516HOH     H2 4736   0.240   1.801   1.349
 1517HOH      O 4737   0.624   0.283   2.865
 1517HOH     H1 4738   0.636   0.197   2.905
 1517HOH     H2 4739   0.534   0.307   2.886
 1518HOH      O 4740   3.015   3.738   0.502
 1518HOH     H1 4741   3.084   3.674   0.487
 1518HOH     H2 4742   2.952   3.723   0.431
 1519HOH      O 4743   0.373   1.229   1.220
 1519HOH     H1 4744   0.303   1.167   1.204
 1519HOH     H2 4745   0.346   1.276   1.299
 1520HOH      O 4746   0.668  -0.002   1.332
 1520HOH     H1 4747   0.703   0.041   1.409
 1520HOH     H2 4748   0.646   0.069   1.272
 1521HOH      O 4749   2.246   0.578   1.140
 1521HOH     H1 4750   2.296   0.518   1.196
 1521HOH     H2 4751   2.312   0.615   1.081
 1522HOH      O 4752   2.272   1.016   3.808
 1522HOH     H1 4753   2.340   1.070   3.767
 1522HOH     H2 4754   2.193   1.070   3.802
 1523HOH      O 4755   2.587   1.302   3.085
 1523HOH     H1 4756   2.648   1.313   3.159
 1523HOH     H2 4757   2.605   1.377   3.028
 1524HOH      O 4758   2.712   0.355   1.755
 1524HOH     H1 4759   2.665   0.400   1.825
 1524HOH     H2 4760   2.770   0.294   1.800
 1525HOH      O 4761   1.243   1.998   3.437
 1525HOH     H1 4762   1.284   2.027   3.356
 1525HOH     H2 4763   1.188   2.072   3.464
 1526HOH      O 4764   2.682   0.082   1.155
 1526HOH     H1 4765   2.661   0.019   1.086
 1526HOH     H2 4766   2.598   0.104   1.194
 1527HOH      O 4767   1.137   1.667   4.038
 1527HOH     H1 4768   1.194   1.667   3.961
 1527HOH     H2 4769   1.049   1.658   4.003
 1528HOH      O 4770   1.723   1.126   2.613
 1528HOH     H1 4771   1.719   1.126   2.517
 1528HOH     H2 4772   1.806   1.170   2.634
 1529HOH      O 4773   1.611   1.241   0.987
 1529HOH     H1 4774   1.700   1.258   0.955
 1529HOH     H2 4775   1.562   1.216   0.909
 1530HOH      O 4776   3.548   2.169   2.335
 1530HOH     H1 4777   3.564   2.222   2.413
 1530HOH     H2 4778   3.625   2.183   2.280
 1531HOH      O 4779   3.020   1.051   2.938
 1531HOH     H1 4780   3.113   1.061   2.918
 1531HOH     H2 4781   3.013   0.962   2.973
 1532HOH      O 4782   3.710   0.547   3.648
 1532HOH     H1 4783   3.625   0.590   3.644
 1532HOH     H2 4784   3.707   0.494   3.727
 1533HOH      O 4785   3.786   1.889   0.090
 1533HOH     H1 4786   3.738   1.826   0.144
 1533HOH     H2 4787   3.775   1.857   0.001
 1534HOH      O 4788   3.906   1.479   1.046
 1534HOH     H1 4789   3.838   1.546   1.049
 1534HOH     H2 4790   3.985   1.526   1.019
 1535HOH      O 4791   0.397   0.062   3.253
 1535HOH     H1 4792   0.482   0.029   3.224
 1535HOH     H2 4793   0.335   0.028   3.189
 1536HOH      O 4794   0.426   3.745   2.084
 1536HOH     H1 4795   0.341   3.756   2.042
 1536HOH     H2 4796   0.488   3.783   2.023
 1537HOH      O 4797   1.082   2.492   0.652
 1537HOH     H1 4798   1.052   2.411   0.609
 1537HOH     H2 4799   1.132   2.462   0.727
 1538HOH      O 4800   0.605   1.741   2.445
 1538HOH     H1 4801   0.556   1.791   2.510
 1538HOH     H2 4802   0.697   1.750   2.472
 1539HOH      O 4803   1.723   2.703   2.142
 1539HOH     H1 4804   1.799   2.647   2.160
 1539HOH     H2 4805   1.713   2.755   2.221
 1540HOH      O 4806   2.795   0.310   0.888
 1540HOH     H1 4807   2.792   0.406   0.888
 1540HOH     H2 4808   2.734   0.285   0.957
 1541HOH      O 4809   1.697   1.733   0.609
 1541HOH     H1 4810   1.791   1.753   0.607
 1541HOH     H2 4811   1.656   1.808   0.568
 1542HOH      O 4812   2.000   0.152   2.799
 1542HOH     H1 4813   2.020   0.232   2.847
 1542HOH     H2 4814   2.083   0.127   2.758
 1543HOH      O 4815   2.360   3.841   2.437
 1543HOH     H1 4816   2.329   3.804   2.519
 1543HOH     H2 4817   2.283   3.887   2.402
 1544HOH      O 4818   1.480   0.395   0.183
 1544HOH     H1 4819   1.557   0.431   0.140
 1544HOH     H2 4820   1.492   0.415   0.275
 1545HOH      O 4821   1.802   2.010   2.996
 1545HOH     H1 4822   1.848   2.058   3.065
 1545HOH     H2 4823   1.713   2.002   3.029
 1546HOH      O 4824   0.902   0.135   2.460
 1546HOH     H1 4825   0.950   0.053   2.448
 1546HOH     H2 4826   0.930   0.166   2.546
 1547HOH      O 4827   3.024   3.685   4.051
 1547HOH     H1 4828   3.084   3.687   3.977
 1547HOH     H2 4829   2.941   3.656   4.013
 1548HOH      O 4830   1.480   1.640   3.261
 1548HOH     H1 4831   1.496   1.546   3.255
 1548HOH     H2 4832   1.550   1.672   3.319
 1549HOH      O 4833   1.407   1.807   0.928
 1549HOH     H1 4834   1.337   1.858   0.968
 1549HOH     H2 4835   1.368   1.771   0.849
 1550HOH      O 4836   3.866   0.846   2.552
 1550HOH     H1 4837   3.897   0.877   2.637
 1550HOH     H2 4838   3.801   0.779   2.573
 1551HOH      O 4839   3.305  -0.007   3.210
 1551HOH     H1 4840   3.242  -0.058   3.160
 1551HOH     H2 4841   3.305   0.079   3.168
 1552HOH      O 4842   0.038   1.488   3.440
 1552HOH     H1 4843   0.028   1.580   3.464
 1552HOH     H2 4844   0.130   1.482   3.411
 1553HOH      O 4845   3.009   0.545   3.264
 1553HOH     H1 4846   3.063   0.520   3.188
 1553HOH     H2 4847   2.920   0.521   3.238
 1554HOH      O 4848   1.318   3.543   1.101
 1554HOH     H1 4849   1.384   3.489   1.145
 1554HOH     H2 4850   1.319   3.626   1.149
 1555HOH      O 4851   3.850   2.999   1.671
 1555HOH     H1 4852   3.923   2.997   1.609
 1555HOH     H2 4853   3.855   2.915   1.717
 1556HOH      O 4854   3.430   0.923   1.056
 1556HOH     H1 4855   3.418   1.011   1.093
 1556HOH     H2 4856   3.415   0.935   0.962
 1557HOH      O 4857   3.670   3.739   1.982
 1557HOH     H1 4858   3.710   3.654   1.964
 1557HOH     H2 4859   3.697   3.760   2.071
 1558HOH      O 4860   3.326   0.743   0.053
 1558HOH     H1 4861   3.278   0.821   0.079
 1558HOH     H2 4862   3.322   0.743  -0.043
 1559HOH      O 4863   3.312   3.137   2.679
 1559HOH     H1 4864   3.291   3.080   2.752
 1559HOH     H2 4865   3.295   3.226   2.711
 1560HOH      O 4866   3.258   1.475   3.723
 1560HOH     H1 4867   3.259   1.496   3.630
 1560HOH     H2 4868   3.349   1.456   3.745
 1561HOH      O 4869   2.524   3.167   2.607
 1561HOH     H1 4870   2.572   3.231   2.553
 1561HOH     H2 4871   2.570   3.084   2.592
 1562HOH      O 4872   1.531   1.045   2.777
 1562HOH     H1 4873   1.475   0.992   2.720
 1562HOH     H2 4874   1.593   1.087   2.718
 1563HOH      O 4875   2.613   2.905   0.841
 1563HOH     H1 4876   2.594   2.818   0.807
 1563HOH     H2 4877   2.633   2.892   0.933
 1564HOH      O 4878   0.995   2.455   2.599
 1564HOH     H1 4879   1.090   2.470   2.596
 1564HOH     H2 4880   0.960   2.533   2.642
 1565HOH      O 4881   0.777   0.468   2.723
 1565HOH     H1 4882   0.709   0.408   2.756
 1565HOH     H2 4883   0.859   0.419   2.733
 1566HOH      O 4884   3.638   3.704   2.288
 1566HOH     H1 4885   3.551   3.739   2.274
 1566HOH     H2 4886   3.682   3.768   2.343
 1567HOH      O 4887   3.839   0.184   1.676
 1567HOH     H1 4888   3.853   0.108   1.620
 1567HOH     H2 4889   3.927   0.219   1.691
 1568HOH      O 4890   3.738   0.023   0.755
 1568HOH     H1 4891   3.651   0.049   0.726
 1568HOH     H2 4892   3.725  -0.064   0.794
 1569HOH      O 4893   2.830   1.187   2.815
 1569HOH     H1 4894   2.889   1.147   2.879
 1569HOH     H2 4895   2.877   1.265   2.785
 1570HOH      O 4896   2.641   1.503   1.988
 1570HOH     H1 4897   2.587   1.563   1.937
 1570HOH     H2 4898   2.731   1.526   1.964
 1571HOH      O 4899   1.251   2.388   3.404
 1571HOH     H1 4900   1.330   2.348   3.368
 1571HOH     H2 4901   1.283   2.461   3.457
 1572HOH      O 4902   2.845   1.259   0.550
 1572HOH     H1 4903   2.831   1.178   0.501
 1572HOH     H2 4904   2.786   1.323   0.509
 1573HOH      O 4905   1.029   1.941   2.481
 1573HOH     H1 4906   0.953   1.896   2.518
 1573HOH     H2 4907   1.027   2.028   2.522
 1574HOH      O 4908   3.072   2.238   3.413
 1574HOH     H1 4909   3.094   2.249   3.320
 1574HOH     H2 4910   2.984   2.202   3.413
 1575HOH      O 4911   1.947   2.121   3.206
 1575HOH     H1 4912   1.977   2.199   3.160
 1575HOH     H2 4913   1.925   2.152   3.294
 1576HOH      O 4914   0.172   3.335   3.110
 1576HOH     H1 4915   0.143   3.397   3.043
 1576HOH     H2 4916   0.165   3.250   3.068
 1577HOH      O 4917   0.712   0.095   3.043
 1577HOH     H1 4918   0.702   0.001   3.057
 1577HOH     H2 4919   0.737   0.130   3.128
 1578HOH      O 4920   1.561   0.307   0.437
 1578HOH     H1 4921   1.653   0.298   0.412
 1578HOH     H2 4922   1.560   0.291   0.531
 1579HOH      O 4923   2.311   0.760   3.723
 1579HOH     H1 4924   2.291   0.847   3.756
 1579HOH     H2 4925   2.314   0.770   3.628
 1580HOH      O 4926   2.390   1.693   3.705
 1580HOH     H1 4927   2.480   1.680   3.674
 1580HOH     H2 4928   2.390   1.780   3.744
 1581HOH      O 4929   0.305   3.236   2.155
 1581HOH     H1 4930   0.312   3.332   2.154
 1581HOH     H2 4931   0.231   3.218   2.212
 1582HOH      O 4932   0.803   1.009   2.313
 1582HOH     H1 4933   0.849   1.066   2.251
 1582HOH     H2 4934   0.764   1.068   2.377
 1583HOH      O 4935   3.604   1.347   2.442
 1583HOH     H1 4936   3.654   1.268   2.421
 1583HOH     H2 4937   3.642   1.415   2.387
 1584HOH      O 4938   0.878   1.481   0.806
 1584HOH     H1 4939   0.898   1.411   0.744
 1584HOH     H2 4940   0.843   1.552   0.753
 1585HOH      O 4941   2.327   3.602   3.758
 1585HOH     H1 4942   2.284   3.673   3.806
 1585HOH     H2 4943   2.409   3.640   3.727
 1586HOH      O 4944   3.113   3.091   1.648
 1586HOH     H1 4945   3.028   3.088   1.691
 1586HOH     H2 4946   3.111   3.018   1.586
 1587HOH      O 4947   1.329   3.807   0.319
 1587HOH     H1 4948   1.358   3.764   0.399
 1587HOH     H2 4949   1.409   3.843   0.280
 1588HOH      O 4950   0.088   0.995   0.838
 1588HOH     H1 4951   0.072   1.007   0.744
 1588HOH     H2 4952   0.180   1.018   0.850
 1589HOH      O 4953   1.991   0.940   1.246
 1589HOH     H1 4954   2.081   0.972   1.234
 1589HOH     H2 4955   1.991   0.853   1.207
 1590HOH      O 4956   2.024   0.002   3.603
 1590HOH     H1 4957   2.079   0.038   3.534
 1590HOH     H2 4958   1.940  -0.015   3.560
 1591HOH      O 4959   0.119   3.148   2.361
 1591HOH     H1 4960   0.146   3.057   2.363
 1591HOH     H2 4961   0.067   3.159   2.441
 1592HOH      O 4962   2.228   0.538   0.824
 1592HOH     H1 4963   2.228   0.473   0.894
 1592HOH     H2 4964   2.174   0.610   0.857
 1593HOH      O 4965   3.968   3.919   3.278
 1593HOH     H1 4966   3.924   3.834   3.283
 1593HOH     H2 4967   3.931   3.969   3.351
 1594HOH      O 4968   0.683   1.223   2.558
 1594HOH     H1 4969   0.631   1.299   2.582
 1594HOH     H2 4970   0.621   1.161   2.520
 1595HOH      O 4971   2.810   0.759   3.396
 1595HOH     H1 4972   2.799   0.677   3.347
 1595HOH     H2 4973   2.801   0.828   3.331
 1596HOH      O 4974   2.076   0.933   3.568
 1596HOH     H1 4975   2.115   1.018   3.545
 1596HOH     H2 4976   2.094   0.877   3.492
 1597HOH      O 4977   1.829   1.926   2.354
 1597HOH     H1 4978   1.762   1.991   2.333
 1597HOH     H2 4979   1.836   1.874   2.274
 1598HOH      O 4980   0.331   0.723   0.070
 1598HOH     H1 4981   0.368   0.702  -0.016
 1598HOH     H2 4982   0.277   0.647   0.091
 1599HOH      O 4983   3.545   1.346   0.782
 1599HOH     H1 4984   3.486   1.375   0.712
 1599HOH     H2 4985   3.592   1.426   0.808
 1600HOH      O 4986   2.392   0.130   0.235
 1600HOH     H1 4987   2.418   0.117   0.144
 1600HOH     H2 4988   2.433   0.213   0.260
 1601HOH      O 4989   2.238   2.677   0.915
 1601HOH     H1 4990   2.263   2.761   0.955
 1601HOH     H2 4991   2.312   2.619   0.935
 1602HOH      O 4992   3.094   3.054   0.140
 1602HOH     H1 4993   3.104   3.014   0.053
 1602HOH     H2 4994   3.141   2.995   0.199
 1603HOH      O 4995   3.227   0.668   3.394
 1603HOH     H1 4996   3.286   0.721   3.340
 1603HOH     H2 4997   3.160   0.637   3.334
 1604HOH      O 4998   2.955   2.466   1.572
 1604HOH     H1 4999   3.002   2.462   1.488
 1604HOH     H2 5000   3.006   2.527   1.625
 1605HOH      O 5001   0.148   0.210   1.375
 1605HOH     H1 5002   0.067   0.165   1.353
 1605HOH     H2 5003   0.217   0.157   1.334
 1606HOH      O 5004   3.905   0.203   0.214
 1606HOH     H1 5005   3.855   0.196   0.295
 1606HOH     H2 5006   3.919   0.113   0.186
 1607HOH      O 5007   3.579   3.085   2.212
 1607HOH     H1 5008   3.629   3.114   2.136
 1607HOH     H2 5009   3.511   3.027   2.176
 1608HOH      O 5010   2.982   0.657   2.355
 1608HOH     H1 5011   3.007   0.735   2.404
 1608HOH     H2 5012   2.900   0.680   2.312
 1609HOH      O 5013   2.768   1.551   2.929
 1609HOH     H1 5014   2.733   1.615   2.868
 1609HOH     H2 5015   2.852   1.525   2.891
 1610HOH      O 5016   0.774   2.132   0.340
 1610HOH     H1 5017   0.756   2.225   0.347
 1610HOH     H2 5018   0.726   2.104   0.262
 1611HOH      O 5019   1.591   1.637   1.505
 1611HOH     H1 5020   1.523   1.703   1.496
 1611HOH     H2 5021   1.618   1.618   1.415
 1612HOH      O 5022   0.625   2.388   2.774
 1612HOH     H1 5023   0.693   2.368   2.711
 1612HOH     H2 5024   0.611   2.483   2.766
 1613HOH      O 5025   3.542   3.484   2.878
 1613HOH     H1 5026   3.594   3.464   2.956
 1613HOH     H2 5027   3.600   3.465   2.804
 1614HOH      O 5028   0.893   0.126   1.777
 1614HOH     H1 5029   0.864   0.063   1.843
 1614HOH     H2 5030   0.955   0.182   1.823
 1615HOH      O 5031   0.779   0.161   0.765
 1615HOH     H1 5032   0.836   0.161   0.688
 1615HOH     H2 5033   0.799   0.244   0.809
 1616HOH      O 5034   3.785   3.338   1.311
 1616HOH     H1 5035   3.775   3.261   1.367
 1616HOH     H2 5036   3.781   3.412   1.372
 1617HOH      O 5037   2.757   0.551   1.512
 1617HOH     H1 5038   2.834   0.592   1.552
 1617HOH     H2 5039   2.725   0.490   1.578
 1618HOH      O 5040   2.530   0.994   2.417
 1618HOH     H1 5041   2.534   0.984   2.322
 1618HOH     H2 5042   2.523   1.088   2.432
 1619HOH      O 5043   1.526   2.185   3.601
 1619HOH     H1 5044   1.540   2.263   3.654
 1619HOH     H2 5045   1.549   2.211   3.512
 1620HOH      O 5046   0.625   3.194   1.352
 1620HOH     H1 5047   0.612   3.287   1.367
 1620HOH     H2 5048   0.712   3.188   1.313
 1621HOH      O 5049   2.610   2.884   2.079
 1621HOH     H1 5050   2.638   2.859   2.167
 1621HOH     H2 5051   2.676   2.947   2.050
 1622HOH      O 5052   1.343   2.985   2.968
 1622HOH     H1 5053   1.287   3.045   2.917
 1622HOH     H2 5054   1.297   2.974   3.051
 1623HOH      O 5055   2.181   1.946   1.650
 1623HOH     H1 5056   2.148   2.034   1.668
 1623HOH     H2 5057   2.110   1.904   1.602
 1624HOH      O 5058   1.318   1.510   2.369
 1624HOH     H1 5059   1.360   1.451   2.432
 1624HOH     H2 5060   1.226   1.514   2.398
 1625HOH      O 5061   3.838   1.204   1.164
 1625HOH     H1 5062   3.897   1.258   1.217
 1625HOH     H2 5063   3.751   1.222   1.199
 1626HOH      O 5064   3.177   0.536   2.654
 1626HOH     H1 5065   3.261   0.491   2.663
 1626HOH     H2 5066   3.177   0.600   2.725
 1627HOH      O 5067   0.114   0.989   0.197
 1627HOH     H1 5068   0.194   0.941   0.217
 1627HOH     H2 5069   0.108   0.986   0.101
 1628HOH      O 5070   2.948   3.325   1.888
 1628HOH     H1 5071   2.921   3.396   1.947
 1628HOH     H2 5072   3.042   3.314   1.905
 1629HOH      O 5073   1.759   0.387   3.532
 1629HOH     H1 5074   1.736   0.304   3.572
 1629HOH     H2 5075   1.695   0.399   3.462
 1630HOH      O 5076   1.702   1.741   0.135
 1630HOH     H1 5077   1.764   1.721   0.204
 1630HOH     H2 5078   1.740   1.701   0.056
 1631HOH      O 5079   1.758   0.194   0.961
 1631HOH     H1 5080   1.832   0.138   0.987
 1631HOH     H2 5081   1.766   0.271   1.017
 1632HOH      O 5082   2.570   2.219   3.528
 1632HOH     H1 5083   2.529   2.303   3.548
 1632HOH     H2 5084   2.558   2.168   3.608
 1633HOH      O 5085   3.543   3.617   3.162
 1633HOH     H1 5086   3.490   3.677   3.214
 1633HOH     H2 5087   3.520   3.530   3.194
 1634HOH      O 5088   2.878   1.026   2.543
 1634HOH     H1 5089   2.887   1.030   2.638
 1634HOH     H2 5090   2.926   1.103   2.511
 1635HOH      O 5091   1.408   1.370   1.676
 1635HOH     H1 5092   1.499   1.361   1.703
 1635HOH     H2 5093   1.362   1.399   1.755
 1636HOH      O 5094   2.041   1.481   2.151
 1636HOH     H1 5095   2.097   1.552   2.184
 1636HOH     H2 5096   1.965   1.526   2.115
 1637HOH      O 5097   2.800   2.934   1.565
 1637HOH     H1 5098   2.822   3.003   1.627
 1637HOH     H2 5099   2.883   2.913   1.522
 1638HOH      O 5100   0.932   1.403   2.936
 1638HOH     H1 5101   0.850   1.355   2.922
 1638HOH     H2 5102   0.989   1.340   2.979
 1639HOH      O 5103   0.362   0.623   3.492
 1639HOH     H1 5104   0.362   0.530   3.467
 1639HOH     H2 5105   0.274   0.637   3.528
 1640HOH      O 5106   3.415   3.390   2.455
 1640HOH     H1 5107   3.454   3.346   2.530
 1640HOH     H2 5108   3.420   3.483   2.476
 1641HOH      O 5109   1.547   0.929   2.195
 1641HOH     H1 5110   1.640   0.908   2.194
 1641HOH     H2 5111   1.507   0.858   2.246
 1642HOH      O 5112   2.524   1.248   1.865
 1642HOH     H1 5113   2.600   1.299   1.895
 1642HOH     H2 5114   2.480   1.306   1.803
 1643HOH      O 5115   1.470   3.773   2.588
 1643HOH     H1 5116   1.515   3.738   2.511
 1643HOH     H2 5117   1.538   3.821   2.635
 1644HOH      O 5118   2.085   1.882   0.992
 1644HOH     H1 5119   2.059   1.862   1.082
 1644HOH     H2 5120   2.150   1.815   0.970
 1645HOH      O 5121   0.392   2.308   2.640
 1645HOH     H1 5122   0.469   2.319   2.696
 1645HOH     H2 5123   0.347   2.393   2.644
 1646HOH      O 5124   0.758   3.276   1.624
 1646HOH     H1 5125   0.706   3.276   1.705
 1646HOH     H2 5126   0.693   3.262   1.555
 1647HOH      O 5127   1.741   0.772   1.829
 1647HOH     H1 5128   1.717   0.864   1.841
 1647HOH     H2 5129   1.672   0.723   1.874
 1648HOH      O 5130   3.596   2.536   1.558
 1648HOH     H1 5131   3.663   2.557   1.623
 1648HOH     H2 5132   3.644   2.534   1.475
 1649HOH      O 5133   2.360   1.854   2.903
 1649HOH     H1 5134   2.328   1.774   2.861
 1649HOH     H2 5135   2.372   1.829   2.995
 1650HOH      O 5136   2.408   0.134   0.794
 1650HOH     H1 5137   2.428   0.176   0.711
 1650HOH     H2 5138   2.492   0.099   0.824
 1651HOH      O 5139   1.624   3.233   3.594
 1651HOH     H1 5140   1.634   3.283   3.676
 1651HOH     H2 5141   1.708   3.243   3.550
 1652HOH      O 5142   3.392   2.898   0.948
 1652HOH     H1 5143   3.360   2.812   0.979
 1652HOH     H2 5144   3.435   2.936   1.025
 1653HOH      O 5145   1.760   1.242   1.535
 1653HOH     H1 5146   1.795   1.280   1.615
 1653HOH     H2 5147   1.791   1.151   1.535
 1654HOH      O 5148   0.960   2.706   0.235
 1654HOH     H1 5149   0.909   2.635   0.196
 1654HOH     H2 5150   0.909   2.731   0.313
 1655HOH      O 5151   0.263   2.178   0.789
 1655HOH     H1 5152   0.209   2.208   0.863
 1655HOH     H2 5153   0.210   2.111   0.746
 1656HOH      O 5154   0.533   1.811   0.032
 1656HOH     H1 5155   0.446   1.778   0.055
 1656HOH     H2 5156   0.592   1.738   0.050
 1657HOH      O 5157   3.440   0.296   1.846
 1657HOH     H1 5158   3.360   0.244   1.849
 1657HOH     H2 5159   3.426   0.358   1.774
 1658HOH      O 5160   0.789   2.131   3.890
 1658HOH     H1 5161   0.875   2.089   3.893
 1658HOH     H2 5162   0.807   2.225   3.886
 1659HOH      O 5163   0.061   1.191   0.374
 1659HOH     H1 5164   0.036   1.258   0.310
 1659HOH     H2 5165   0.092   1.117   0.321
 1660HOH      O 5166   1.096   3.221   3.577
 1660HOH     H1 5167   1.136   3.272   3.506
 1660HOH     H2 5168   1.058   3.287   3.635
 1661HOH      O 5169   0.974   2.353   1.948
 1661HOH     H1 5170   0.967   2.439   1.906
 1661HOH     H2 5171   0.992   2.372   2.040
 1662HOH      O 5172   3.616   4.013   2.726
 1662HOH     H1 5173   3.570   3.965   2.794
 1662HOH     H2 5174   3.665   4.081   2.774
 1663HOH      O 5175   1.282   3.510   1.675
 1663HOH     H1 5176   1.207   3.498   1.733
 1663HOH     H2 5177   1.322   3.423   1.670
 1664HOH      O 5178   1.757   4.049   3.969
 1664HOH     H1 5179   1.782   3.957   3.978
 1664HOH     H2 5180   1.674   4.047   3.921
 1665HOH      O 5181   3.079   0.751   0.906
 1665HOH     H1 5182   3.147   0.763   0.840
 1665HOH     H2 5183   3.010   0.702   0.861
 1666HOH      O 5184   0.553   0.760   2.784
 1666HOH     H1 5185   0.513   0.835   2.828
 1666HOH     H2 5186   0.567   0.696   2.854
 1667HOH      O 5187   0.789   2.127   1.600
 1667HOH     H1 5188   0.737   2.064   1.550
 1667HOH     H2 5189   0.871   2.081   1.617
 1668HOH      O 5190   1.119   0.112   3.558
 1668HOH     H1 5191   1.097   0.205   3.561
 1668HOH     H2 5192   1.038   0.069   3.530
 1669HOH      O 5193   1.556   1.213   0.695
 1669HOH     H1 5194   1.577   1.147   0.629
 1669HOH     H2 5195   1.626   1.277   0.687
 1670HOH      O 5196   3.858   3.741   2.871
 1670HOH     H1 5197   3.907   3.818   2.844
 1670HOH     H2 5198   3.778   3.775   2.910
 1671HOH      O 5199   2.966   3.681   2.784
 1671HOH     H1 5200   2.968   3.588   2.809
 1671HOH     H2 5201   3.056   3.701   2.759
 1672HOH      O 5202   0.732   3.610   3.293
 1672HOH     H1 5203   0.782   3.593   3.213
 1672HOH     H2 5204   0.799   3.619   3.361
 1673HOH      O 5205   3.514   0.932   2.440
 1673HOH     H1 5206   3.470   0.998   2.386
 1673HOH     H2 5207   3.608   0.949   2.426
 1674HOH      O 5208   1.374   0.453   1.240
 1674HOH     H1 5209   1.365   0.360   1.260
 1674HOH     H2 5210   1.363   0.496   1.325
 1675HOH      O 5211   1.623   0.577   1.271
 1675HOH     H1 5212   1.601   0.665   1.302
 1675HOH     H2 5213   1.540   0.530   1.272
 1676HOH      O 5214   2.388   2.295   3.994
 1676HOH     H1 5215   2.348   2.381   4.007
 1676HOH     H2 5216   2.318   2.242   3.957
 1677HOH      O 5217   2.356   0.575   2.529
 1677HOH     H1 5218   2.309   0.557   2.448
 1677HOH     H2 5219   2.342   0.668   2.546
 1678HOH      O 5220   1.596   3.255   1.004
 1678HOH     H1 5221   1.687   3.239   0.981
 1678HOH     H2 5222   1.552   3.268   0.919
 1679HOH      O 5223   1.921   1.224   2.185
 1679HOH     H1 5224   1.962   1.165   2.122
 1679HOH     H2 5225   1.967   1.307   2.173
 1680HOH      O 5226   0.550   2.286   3.022
 1680HOH     H1 5227   0.587   2.299   2.935
 1680HOH     H2 5228   0.485   2.356   3.031
 1681HOH      O 5229   2.711   0.818   3.620
 1681HOH     H1 5230   2.699   0.733   3.663
 1681HOH     H2 5231   2.740   0.796   3.532
 1682HOH      O 5232   2.330   0.914   0.949
 1682HOH     H1 5233   2.299   0.928   0.860
 1682HOH     H2 5234   2.409   0.968   0.957
 1683HOH      O 5235   0.388   0.962   2.894
 1683HOH     H1 5236   0.400   0.972   2.988
 1683HOH     H2 5237   0.311   0.906   2.885
 1684HOH      O 5238   1.519   0.416   2.629
 1684HOH     H1 5239   1.426   0.436   2.621
 1684HOH     H2 5240   1.522   0.339   2.685
 1685HOH      O 5241   3.997   2.364   1.384
 1685HOH     H1 5242   4.033   2.429   1.445
 1685HOH     H2 5243   3.970   2.292   1.441
 1686HOH      O 5244   0.140   1.090   3.482
 1686HOH     H1 5245   0.224   1.117   3.445
 1686HOH     H2 5246   0.112   1.165   3.534
 1687HOH      O 5247   1.986   0.567   3.485
 1687HOH     H1 5248   1.905   0.516   3.484
 1687HOH     H2 5249   2.039   0.526   3.554
 1688HOH      O 5250   1.016   2.708   2.072
 1688HOH     H1 5251   1.009   2.714   2.167
 1688HOH     H2 5252   0.979   2.789   2.039
 1689HOH      O 5253   2.346   0.798   3.447
 1689HOH     H1 5254   2.363   0.705   3.439
 1689HOH     H2 5255   2.288   0.818   3.373
 1690HOH      O 5256   0.901   1.919   2.010
 1690HOH     H1 5257   0.821   1.909   1.960
 1690HOH     H2 5258   0.950   1.988   1.966
 1691HOH      O 5259   3.780   1.626   1.832
 1691HOH     H1 5260   3.739   1.711   1.815
 1691HOH     H2 5261   3.842   1.643   1.902
 1692HOH      O 5262   2.680   3.532   0.807
 1692HOH     H1 5263   2.592   3.536   0.769
 1692HOH     H2 5264   2.736   3.503   0.735
 1693HOH      O 5265   3.575   0.089   3.934
 1693HOH     H1 5266   3.564   0.082   4.029
 1693HOH     H2 5267   3.531   0.170   3.910
 1694HOH      O 5268   0.798   1.070   3.846
 1694HOH     H1 5269   0.887   1.042   3.826
 1694HOH     H2 5270   0.807   1.161   3.875
 1695HOH      O 5271   3.925   3.802   2.095
 1695HOH     H1 5272   3.883   3.885   2.120
 1695HOH     H2 5273   3.976   3.824   2.018
 1696HOH      O 5274   0.654   2.620   2.400
 1696HOH     H1 5275   0.700   2.682   2.457
 1696HOH     H2 5276   0.720   2.555   2.377
 1697HOH      O 5277   2.310   1.115   1.200
 1697HOH     H1 5278   2.378   1.157   1.252
 1697HOH     H2 5279   2.347   1.031   1.174
 1698HOH      O 5280   3.485   3.620   1.162
 1698HOH     H1 5281   3.421   3.661   1.103
 1698HOH     H2 5282   3.537   3.563   1.105
 1699HOH      O 5283   3.810   1.767   0.879
 1699HOH     H1 5284   3.898   1.733   0.869
 1699HOH     H2 5285   3.819   1.862   0.867
 1700HOH      O 5286   0.293   1.644   3.752
 1700HOH     H1 5287   0.306   1.735   3.727
 1700HOH     H2 5288   0.331   1.637   3.840
 1701HOH      O 5289   2.837   1.741   2.339
 1701HOH     H1 5290   2.770   1.761   2.406
 1701HOH     H2 5291   2.828   1.812   2.275
 1702HOH      O 5292   3.744   3.067   2.446
 1702HOH     H1 5293   3.806   2.997   2.467
 1702HOH     H2 5294   3.714   3.047   2.358
 1703HOH      O 5295   2.010   0.424   3.253
 1703HOH     H1 5296   2.011   0.477   3.332
 1703HOH     H2 5297   2.023   0.487   3.182
 1704HOH      O 5298   0.585   3.133   2.632
 1704HOH     H1 5299   0.576   3.205   2.570
 1704HOH     H2 5300   0.495   3.101   2.644
 1705HOH      O 5301   1.518   1.411   0.131
 1705HOH     H1 5302   1.561   1.432   0.214
 1705HOH     H2 5303   1.513   1.495   0.086
 1706HOH      O 5304   2.153   1.988   2.019
 1706HOH     H1 5305   2.123   1.973   2.109
 1706HOH     H2 5306   2.135   2.081   2.003
 1707HOH      O 5307   2.587   0.430   2.520
 1707HOH     H1 5308   2.506   0.481   2.526
 1707HOH     H2 5309   2.573   0.369   2.448
 1708HOH      O 5310   0.913   2.372   3.862
 1708HOH     H1 5311   0.995   2.371   3.911
 1708HOH     H2 5312   0.894   2.464   3.849
 1709HOH      O 5313   0.196   0.029   2.448
 1709HOH     H1 5314   0.134  -0.037   2.415
 1709HOH     H2 5315   0.220   0.080   2.371
 1710HOH      O 5316   3.250   0.157   0.551
 1710HOH     H1 5317   3.213   0.093   0.490
 1710HOH     H2 5318   3.230   0.242   0.512
 1711HOH      O 5319   2.376   2.435   3.082
 1711HOH     H1 5320   2.389   2.344   3.055
 1711HOH     H2 5321   2.374   2.484   3.000
 1712HOH      O 5322   3.868   2.487   0.079
 1712HOH     H1 5323   3.921   2.552   0.126
 1712HOH     H2 5324   3.784   2.487   0.123
 1713HOH      O 5325   1.010   3.890   4.004
 1713HOH     H1 5326   0.981   3.867   4.092
 1713HOH     H2 5327   0.995   3.810   3.953
 1714HOH      O 5328   1.200   0.678   1.620
 1714HOH     H1 5329   1.183   0.771   1.604
 1714HOH     H2 5330   1.118   0.634   1.600
 1715HOH      O 5331   2.666   3.755   1.253
 1715HOH     H1 5332   2.704   3.722   1.172
 1715HOH     H2 5333   2.582   3.792   1.228
 1716HOH      O 5334   3.691   0.528   0.953
 1716HOH     H1 5335   3.695   0.616   0.914
 1716HOH     H2 5336   3.781   0.509   0.979
 1717HOH      O 5337   3.357   0.483   1.344
 1717HOH     H1 5338   3.309   0.476   1.261
 1717HOH     H2 5339   3.447   0.461   1.321
 1718HOH      O 5340   3.919   1.225   0.878
 1718HOH     H1 5341   3.887   1.209   0.967
 1718HOH     H2 5342   3.960   1.311   0.883
 1719HOH      O 5343   0.801   3.878   0.613
 1719HOH     H1 5344   0.890   3.868   0.580
 1719HOH     H2 5345   0.750   3.903   0.536
 1720HOH      O 5346   0.907   0.828   1.714
 1720HOH     H1 5347   0.931   0.767   1.644
 1720HOH     H2 5348   0.857   0.775   1.775
 1721HOH      O 5349   2.092   3.023   0.912
 1721HOH     H1 5350   2.011   3.041   0.961
 1721HOH     H2 5351   2.076   3.062   0.826
 1722HOH      O 5352   0.391   2.172   0.118
 1722HOH     H1 5353   0.306   2.213   0.133
 1722HOH     H2 5354   0.379   2.118   0.040
 1723HOH      O 5355   2.253   3.112   2.502
 1723HOH     H1 5356   2.338   3.153   2.516
 1723HOH     H2 5357   2.271   3.041   2.440
 1724HOH      O 5358   2.808   2.078   1.641
 1724HOH     H1 5359   2.759   2.017   1.697
 1724HOH     H2 5360   2.761   2.161   1.650
 1725HOH      O 5361   0.411   1.552  -0.007
 1725HOH     H1 5362   0.362   1.479  -0.044
 1725HOH     H2 5363   0.410   1.536   0.088
 1726HOH      O 5364   1.869   1.170   0.274
 1726HOH     H1 5365   1.873   1.259   0.311
 1726HOH     H2 5366   1.826   1.118   0.342
 1727HOH      O 5367   0.455   0.611   3.865
 1727HOH     H1 5368   0.441   0.685   3.806
 1727HOH     H2 5369   0.541   0.576   3.840
 1728HOH      O 5370   0.511   1.927   2.844
 1728HOH     H1 5371   0.497   1.933   2.749
 1728HOH     H2 5372   0.601   1.955   2.857
 1729HOH      O 5373   1.794   0.161   1.924
 1729HOH     H1 5374   1.786   0.227   1.855
 1729HOH     H2 5375   1.714   0.109   1.916
 1730HOH      O 5376   1.649   2.834   0.887
 1730HOH     H1 5377   1.695   2.857   0.968
 1730HOH     H2 5378   1.696   2.757   0.854
 1731HOH      O 5379   1.892   3.599   2.182
 1731HOH     H1 5380   1.962   3.585   2.246
 1731HOH     H2 5381   1.814   3.565   2.226
 1732HOH      O 5382   3.774   3.736   3.326
 1732HOH     H1 5383   3.789   3.664   3.264
 1732HOH     H2 5384   3.679   3.748   3.326
 1733HOH      O 5385   0.584   1.463   1.812
 1733HOH     H1 5386   0.620   1.437   1.896
 1733HOH     H2 5387   0.624   1.403   1.749
 1734HOH      O 5388   1.950   3.124   2.231
 1734HOH     H1 5389   1.855   3.139   2.229
 1734HOH     H2 5390   1.972   3.097   2.142
 1735HOH      O 5391   0.657   3.336   1.896
 1735HOH     H1 5392   0.647   3.428   1.873
 1735HOH     H2 5393   0.571   3.297   1.878
 1736HOH      O 5394   1.279   3.601   3.346
 1736HOH     H1 5395   1.371   3.573   3.336
 1736HOH     H2 5396   1.271   3.676   3.287
 1737HOH      O 5397   3.746   3.499   1.891
 1737HOH     H1 5398   3.805   3.424   1.887
 1737HOH     H2 5399   3.680   3.481   1.823
 1738HOH      O 5400   2.721   2.341   1.614
 1738HOH     H1 5401   2.686   2.415   1.664
 1738HOH     H2 5402   2.804   2.372   1.579
 1739HOH      O 5403   3.769   1.178   0.666
 1739HOH     H1 5404   3.683   1.193   0.706
 1739HOH     H2 5405   3.830   1.182   0.740
 1740HOH      O 5406   1.585   2.176   3.953
 1740HOH     H1 5407   1.542   2.202   4.035
 1740HOH     H2 5408   1.592   2.081   3.958
 1741HOH      O 5409   2.022   3.363   0.171
 1741HOH     H1 5410   1.947   3.359   0.230
 1741HOH     H2 5411   1.986   3.396   0.089
 1742HOH      O 5412   1.457   0.897   3.240
 1742HOH     H1 5413   1.404   0.860   3.311
 1742HOH     H2 5414   1.445   0.991   3.249
 1743HOH      O 5415   2.981   2.222   0.893
 1743HOH     H1 5416   2.891   2.190   0.898
 1743HOH     H2 5417   3.016   2.210   0.981
 1744HOH      O 5418   1.271   2.988   2.523
 1744HOH     H1 5419   1.306   2.898   2.523
 1744HOH     H2 5420   1.214   2.992   2.600
 1745HOH      O 5421   3.445   3.969   0.413
 1745HOH     H1 5422   3.479   4.022   0.485
 1745HOH     H2 5423   3.350   3.981   0.418
 1746HOH      O 5424   0.998   0.278   2.673
 1746HOH     H1 5425   1.061   0.339   2.711
 1746HOH     H2 5426   0.988   0.209   2.738
 1747HOH      O 5427   0.712   3.751   1.413
 1747HOH     H1 5428   0.683   3.842   1.404
 1747HOH     H2 5429   0.631   3.702   1.427
 1748HOH      O 5430   1.538   3.946   0.204
 1748HOH     H1 5431   1.514   4.023   0.151
 1748HOH     H2 5432   1.594   3.894   0.147
 1749HOH      O 5433   0.344   3.029   2.663
 1749HOH     H1 5434   0.323   3.072   2.746
 1749HOH     H2 5435   0.264   3.036   2.611
 1750HOH      O 5436   0.518   2.970   0.426
 1750HOH     H1 5437   0.557   2.942   0.343
 1750HOH     H2 5438   0.592   2.975   0.487
 1751HOH      O 5439   2.058   1.670   0.212
 1751HOH     H1 5440   2.132   1.721   0.179
 1751HOH     H2 5441   2.026   1.622   0.135
 1752HOH      O 5442   0.936   3.777   3.110
 1752HOH     H1 5443   1.013   3.752   3.059
 1752HOH     H2 5444   0.863   3.764   3.049
 1753HOH      O 5445   3.199   1.658   0.435
 1753HOH     H1 5446   3.245   1.578   0.460
 1753HOH     H2 5447   3.107   1.633   0.432
 1754HOH      O 5448   0.107   1.124   2.537
 1754HOH     H1 5449   0.042   1.114   2.606
 1754HOH     H2 5450   0.106   1.218   2.518
 1755HOH      O 5451   1.833   2.290   1.597
 1755HOH     H1 5452   1.786   2.356   1.546
 1755HOH     H2 5453   1.884   2.240   1.532
 1756HOH      O 5454   0.370   3.905   0.269
 1756HOH     H1 5455   0.327   3.969   0.327
 1756HOH     H2 5456   0.456   3.891   0.309
 1757HOH      O 5457   1.105   2.862   3.849
 1757HOH     H1 5458   1.013   2.889   3.843
 1757HOH     H2 5459   1.126   2.870   3.942
 1758HOH      O 5460   0.417   3.682   2.940
 1758HOH     H1 5461   0.499   3.643   2.910
 1758HOH     H2 5462   0.413   3.767   2.896
 1759HOH      O 5463   3.933   3.755   0.693
 1759HOH     H1 5464   3.989   3.681   0.668
 1759HOH     H2 5465   3.977   3.832   0.657
 1760HOH      O 5466   0.165   0.901   3.984
 1760HOH     H1 5467   0.156   0.920   3.891
 1760HOH     H2 5468   0.237   0.838   3.989
 1761HOH      O 5469   1.285   2.296   3.852
 1761HOH     H1 5470   1.308   2.208   3.883
 1761HOH     H2 5471   1.252   2.340   3.930
 1762HOH      O 5472   1.275   3.802   1.203
 1762HOH     H1 5473   1.310   3.862   1.269
 1762HOH     H2 5474   1.205   3.755   1.248
 1763HOH      O 5475   0.688   2.863   3.497
 1763HOH     H1 5476   0.740   2.943   3.511
 1763HOH     H2 5477   0.633   2.857   3.574
 1764HOH      O 5478   3.476   1.821   0.640
 1764HOH     H1 5479   3.565   1.829   0.604
 1764HOH     H2 5480   3.459   1.907   0.680
 1765HOH      O 5481   1.515   1.200   3.023
 1765HOH     H1 5482   1.443   1.261   3.006
 1765HOH     H2 5483   1.550   1.180   2.936
 1766HOH      O 5484   0.034   3.036   1.503
 1766HOH     H1 5485   0.048   3.126   1.472
 1766HOH     H2 5486   0.068   2.981   1.432
 1767HOH      O 5487   3.990   1.816   1.497
 1767HOH     H1 5488   3.901   1.811   1.533
 1767HOH     H2 5489   4.044   1.766   1.559
 1768HOH      O 5490   1.527   4.020   3.820
 1768HOH     H1 5491   1.437   4.053   3.821
 1768HOH     H2 5492   1.518   3.925   3.824
 1769HOH      O 5493   4.060   3.608   3.417
 1769HOH     H1 5494   3.994   3.643   3.476
 1769HOH     H2 5495   4.013   3.592   3.335
 1770HOH      O 5496   2.028   1.427   0.835
 1770HOH     H1 5497   2.084   1.501   0.858
 1770HOH     H2 5498   2.039   1.366   0.908
 1771HOH      O 5499   1.097   1.568   0.969
 1771HOH     H1 5500   1.113   1.661   0.955
 1771HOH     H2 5501   1.017   1.550   0.920
 1772HOH      O 5502   2.466   3.235   0.984
 1772HOH     H1 5503   2.395   3.286   1.022
 1772HOH     H2 5504   2.517   3.206   1.060
 1773HOH      O 5505   3.989   1.127   2.166
 1773HOH     H1 5506   3.990   1.190   2.094
 1773HOH     H2 5507   3.995   1.042   2.123
 1774HOH      O 5508   3.738   1.601   3.693
 1774HOH     H1 5509   3.709   1.611   3.602
 1774HOH     H2 5510   3.832   1.586   3.688
 1775HOH      O 5511   0.869   1.403   3.384
 1775HOH     H1 5512   0.944   1.346   3.365
 1775HOH     H2 5513   0.907   1.475   3.435
 1776HOH      O 5514   0.801   1.328   1.056
 1776HOH     H1 5515   0.793   1.414   1.016
 1776HOH     H2 5516   0.892   1.303   1.041
 1777HOH      O 5517   2.201   2.109   3.921
 1777HOH     H1 5518   2.129   2.079   3.976
 1777HOH     H2 5519   2.157   2.149   3.845
 1778HOH      O 5520   3.453   0.144   0.921
 1778HOH     H1 5521   3.365   0.110   0.905
 1778HOH     H2 5522   3.501   0.069   0.956
 1779HOH      O 5523   2.500   3.952   1.867
 1779HOH     H1 5524   2.483   4.040   1.832
 1779HOH     H2 5525   2.569   3.966   1.933
 1780HOH      O 5526   1.753   1.897   1.445
 1780HOH     H1 5527   1.737   1.884   1.352
 1780HOH     H2 5528   1.792   1.984   1.451
 1781HOH      O 5529   2.910   0.575   1.894
 1781HOH     H1 5530   2.977   0.510   1.915
 1781HOH     H2 5531   2.867   0.592   1.977
 1782HOH      O 5532   2.803   0.325   2.179
 1782HOH     H1 5533   2.756   0.376   2.113
 1782HOH     H2 5534   2.883   0.296   2.136
 1783HOH      O 5535   3.971   1.860   0.291
 1783HOH     H1 5536   3.996   1.947   0.321
 1783HOH     H2 5537   3.926   1.875   0.208
 1784HOH      O 5538   1.711   3.578   1.180
 1784HOH     H1 5539   1.772   3.505   1.182
 1784HOH     H2 5540   1.704   3.602   1.088
 1785HOH      O 5541   3.011   3.900   3.739
 1785HOH     H1 5542   3.100   3.929   3.759
 1785HOH     H2 5543   3.012   3.882   3.646
 1786HOH      O 5544   3.438   1.795   3.547
 1786HOH     H1 5545   3.472   1.834   3.467
 1786HOH     H2 5546   3.497   1.826   3.616
 1787HOH      O 5547   1.051   3.343   2.019
 1787HOH     H1 5548   0.994   3.411   2.054
 1787HOH     H2 5549   1.060   3.364   1.926
 1788HOH      O 5550   0.993   0.798   2.351
 1788HOH     H1 5551   1.054   0.826   2.283
 1788HOH     H2 5552   0.925   0.865   2.350
 1789HOH      O 5553   3.302   0.266   3.148
 1789HOH     H1 5554   3.385   0.312   3.155
 1789HOH     H2 5555   3.239   0.333   3.124
 1790HOH      O 5556   0.550   0.209   0.233
 1790HOH     H1 5557   0.641   0.224   0.261
 1790HOH     H2 5558   0.497   0.248   0.302
 1791HOH      O 5559   1.583   2.090   0.967
 1791HOH     H1 5560   1.532   2.084   1.048
 1791HOH     H2 5561   1.526   2.053   0.900
 1792HOH      O 5562   3.317   1.027   0.413
 1792HOH     H1 5563   3.286   1.085   0.344
 1792HOH     H2 5564   3.264   1.051   0.490
 1793HOH      O 5565   3.742   0.395   0.043
 1793HOH     H1 5566   3.734   0.324   0.107
 1793HOH     H2 5567   3.830   0.430   0.058
 1794HOH      O 5568   3.957   1.475   0.678
 1794HOH     H1 5569   3.918   1.491   0.592
 1794HOH     H2 5570   3.935   1.384   0.698
 1795HOH      O 5571   1.000   3.120   1.520
 1795HOH     H1 5572   0.952   3.165   1.588
 1795HOH     H2 5573   0.984   3.027   1.537
 1796HOH      O 5574   2.069   0.259   3.932
 1796HOH     H1 5575   2.011   0.237   3.859
 1796HOH     H2 5576   2.104   0.345   3.909
 1797HOH      O 5577   0.499   3.197   3.860
 1797HOH     H1 5578   0.419   3.246   3.876
 1797HOH     H2 5579   0.501   3.131   3.930
 1798HOH      O 5580   3.805   2.033   0.836
 1798HOH     H1 5581   3.817   2.054   0.929
 1798HOH     H2 5582   3.790   2.118   0.794
 1799HOH      O 5583   1.379   2.895  -0.036
 1799HOH     H1 5584   1.346   2.818   0.011
 1799HOH     H2 5585   1.379   2.965   0.028
 1800HOH      O 5586   2.561   0.711   3.114
 1800HOH     H1 5587   2.483   0.753   3.150
 1800HOH     H2 5588   2.621   0.783   3.098
 1801HOH      O 5589   2.537   0.880   0.387
 1801HOH     H1 5590   2.522   0.871   0.481
 1801HOH     H2 5591   2.498   0.964   0.365
 1802HOH      O 5592   2.675   3.831   0.063
 1802HOH     H1 5593   2.612   3.770   0.027
 1802HOH     H2 5594   2.759   3.805   0.025
 1803HOH      O 5595   1.780   2.474   1.893
 1803HOH     H1 5596   1.695   2.509   1.920
 1803HOH     H2 5597   1.779   2.383   1.921
 1804HOH      O 5598   1.180   2.431   0.027
 1804HOH     H1 5599   1.165   2.381   0.108
 1804HOH     H2 5600   1.210   2.517   0.057
 1805HOH      O 5601   0.395   0.895   1.113
 1805HOH     H1 5602   0.477   0.944   1.103
 1805HOH     H2 5603   0.332   0.943   1.058
 1806HOH      O 5604   0.305   2.111   0.361
 1806HOH     H1 5605   0.317   2.184   0.422
 1806HOH     H2 5606   0.368   2.129   0.291
 1807HOH      O 5607   2.641   1.021   4.039
 1807HOH     H1 5608   2.648   1.047   3.947
 1807HOH     H2 5609   2.656   1.103   4.087
 1808HOH      O 5610   0.796   2.601   3.506
 1808HOH     H1 5611   0.778   2.694   3.490
 1808HOH     H2 5612   0.720   2.556   3.470
 1809HOH      O 5613   3.275   3.748   2.175
 1809HOH     H1 5614   3.205   3.812   2.164
 1809HOH     H2 5615   3.230   3.664   2.179
 1810HOH      O 5616   0.725  -0.014   2.320
 1810HOH     H1 5617   0.772   0.038   2.385
 1810HOH     H2 5618   0.647   0.038   2.301
 1811HOH      O 5619   2.135   1.210   0.989
 1811HOH     H1 5620   2.174   1.169   1.066
 1811HOH     H2 5621   2.142   1.143   0.921
 1812HOH      O 5622   1.636   3.871   0.918
 1812HOH     H1 5623   1.547   3.850   0.946
 1812HOH     H2 5624   1.625   3.939   0.852
 1813HOH      O 5625   0.058   1.710   0.479
 1813HOH     H1 5626  -0.003   1.752   0.418
 1813HOH     H2 5627   0.058   1.618   0.454
 1814HOH      O 5628   1.455   3.205   2.675
 1814HOH     H1 5629   1.495   3.266   2.737
 1814HOH     H2 5630   1.512   3.127   2.678
 1815HOH      O 5631   0.463   2.579   1.006
 1815HOH     H1 5632   0.479   2.486   1.021
 1815HOH     H2 5633   0.503   2.597   0.921
 1816HOH      O 5634   2.076   1.763   1.866
 1816HOH     H1 5635   2.034   1.805   1.792
 1816HOH     H2 5636   2.114   1.835   1.917
 1817HOH      O 5637   3.528   0.948   3.622
 1817HOH     H1 5638   3.532   0.853   3.634
 1817HOH     H2 5639   3.572   0.983   3.700
 1818HOH      O 5640   2.085   0.649   1.966
 1818HOH     H1 5641   2.006   0.595   1.965
 1818HOH     H2 5642   2.076   0.706   1.889
 1819HOH      O 5643   0.860   1.521   2.280
 1819HOH     H1 5644   0.774   1.549   2.311
 1819HOH     H2 5645   0.846   1.496   2.188
 1820HOH      O 5646   0.816   0.569   3.480
 1820HOH     H1 5647   0.765   0.492   3.503
 1820HOH     H2 5648   0.892   0.534   3.434
 1821HOH      O 5649   0.995   0.497   3.910
 1821HOH     H1 5650   1.016   0.526   3.998
 1821HOH     H2 5651   1.005   0.402   3.913
 1822HOH      O 5652   0.217   3.929   3.886
 1822HOH     H1 5653   0.277   3.988   3.930
 1822HOH     H2 5654   0.208   3.855   3.946
 1823HOH      O 5655   2.647   2.139   2.700
 1823HOH     H1 5656   2.730   2.142   2.653
 1823HOH     H2 5657   2.625   2.231   2.718
 1824HOH      O 5658   1.989   3.578   3.031
 1824HOH     H1 5659   2.074   3.610   3.060
 1824HOH     H2 5660   1.983   3.490   3.068
 1825HOH      O 5661   0.053   0.827   3.486
 1825HOH     H1 5662   0.085   0.785   3.566
 1825HOH     H2 5663   0.095   0.913   3.487
 1826HOH      O 5664   0.417   0.831   2.091
 1826HOH     H1 5665   0.430   0.872   2.176
 1826HOH     H2 5666   0.440   0.899   2.027
 1827HOH      O 5667   2.176   3.019   2.734
 1827HOH     H1 5668   2.113   3.076   2.778
 1827HOH     H2 5669   2.175   3.049   2.643
 1828HOH      O 5670   3.426   2.759   0.519
 1828HOH     H1 5671   3.475   2.782   0.440
 1828HOH     H2 5672   3.480   2.694   0.563
 1829HOH      O 5673   3.301   1.090   2.575
 1829HOH     H1 5674   3.231   1.093   2.511
 1829HOH     H2 5675   3.362   1.024   2.542
 1830HOH      O 5676   0.578   2.055   2.164
 1830HOH     H1 5677   0.632   2.048   2.085
 1830HOH     H2 5678   0.580   2.148   2.186
 1831HOH      O 5679   0.242   3.782   3.324
 1831HOH     H1 5680   0.191   3.793   3.244
 1831HOH     H2 5681   0.177   3.782   3.394
 1832HOH      O 5682   3.822   4.022   3.511
 1832HOH     H1 5683   3.750   4.002   3.572
 1832HOH     H2 5684   3.900   4.020   3.566
 1833HOH      O 5685   2.743   2.581   0.206
 1833HOH     H1 5686   2.800   2.652   0.177
 1833HOH     H2 5687   2.774   2.504   0.158
 1834HOH      O 5688   1.036   1.190   1.056
 1834HOH     H1 5689   1.116   1.223   1.097
 1834HOH     H2 5690   1.058   1.102   1.028
 1835HOH      O 5691   1.137   3.228   3.875
 1835HOH     H1 5692   1.196   3.198   3.805
 1835HOH     H2 5693   1.083   3.295   3.833
 1836HOH      O 5694   0.247   2.003   1.180
 1836HOH     H1 5695   0.175   1.943   1.159
 1836HOH     H2 5696   0.244   2.012   1.275
 1837HOH      O 5697   0.577   2.035   1.261
 1837HOH     H1 5698   0.512   1.995   1.203
 1837HOH     H2 5699   0.526   2.098   1.313
 1838HOH      O 5700   0.083   0.819   3.137
 1838HOH     H1 5701   0.058   0.911   3.149
 1838HOH     H2 5702   0.021   0.770   3.190
 1839HOH      O 5703   1.219   3.821   2.708
 1839HOH     H1 5704   1.144   3.833   2.650
 1839HOH     H2 5705   1.292   3.803   2.648
 1840HOH      O 5706   2.654   3.916   0.349
 1840HOH     H1 5707   2.663   3.921   0.254
 1840HOH     H2 5708   2.734   3.957   0.383
 1841HOH      O 5709   2.887   1.545   3.624
 1841HOH     H1 5710   2.943   1.565   3.699
 1841HOH     H2 5711   2.947   1.531   3.552
 1842HOH      O 5712   3.426   2.637   2.028
 1842HOH     H1 5713   3.349   2.632   2.085
 1842HOH     H2 5714   3.435   2.548   1.993
 1843HOH      O 5715   2.101   0.158   1.949
 1843HOH     H1 5716   2.101   0.089   1.883
 1843HOH     H2 5717   2.008   0.177   1.964
 1844HOH      O 5718   1.665   2.245   0.387
 1844HOH     H1 5719   1.751   2.288   0.390
 1844HOH     H2 5720   1.621   2.276   0.467
 1845HOH      O 5721   4.005   0.958   2.802
 1845HOH     H1 5722   4.011   1.049   2.830
 1845HOH     H2 5723   3.927   0.924   2.846
 1846HOH      O 5724   3.259   1.946   3.684
 1846HOH     H1 5725   3.312   1.955   3.764
 1846HOH     H2 5726   3.304   1.880   3.632
 1847HOH      O 5727   1.622   3.847   1.742
 1847HOH     H1 5728   1.674   3.771   1.768
 1847HOH     H2 5729   1.605   3.895   1.823
 1848HOH      O 5730   2.378   0.986   0.049
 1848HOH     H1 5731   2.473   0.984   0.043
 1848HOH     H2 5732   2.348   0.986  -0.042
 1849HOH      O 5733   3.645   2.547   2.358
 1849HOH     H1 5734   3.563   2.596   2.359
 1849HOH     H2 5735   3.691   2.574   2.437
 1850HOH      O 5736   0.623   2.668   0.783
 1850HOH     H1 5737   0.605   2.761   0.776
 1850HOH     H2 5738   0.706   2.663   0.831
 1851HOH      O 5739   2.459   0.175   1.741
 1851HOH     H1 5740   2.460   0.269   1.762
 1851HOH     H2 5741   2.542   0.160   1.697
 1852HOH      O 5742   1.876   3.368   0.707
 1852HOH     H1 5743   1.913   3.437   0.652
 1852HOH     H2 5744   1.948   3.306   0.719
 1853HOH      O 5745   1.969   1.530   4.038
 1853HOH     H1 5746   2.003   1.518   3.949
 1853HOH     H2 5747   1.877   1.551   4.026
 1854HOH      O 5748   0.878   1.733   0.629
 1854HOH     H1 5749   0.839   1.817   0.605
 1854HOH     H2 5750   0.965   1.736   0.590
 1855HOH      O 5751   3.547   0.082   0.182
 1855HOH     H1 5752   3.527   0.014   0.246
 1855HOH     H2 5753   3.592   0.149   0.232
 1856HOH      O 5754   3.468   2.052   0.764
 1856HOH     H1 5755   3.504   2.140   0.780
 1856HOH     H2 5756   3.412   2.035   0.840
 1857HOH      O 5757   3.821   3.578   1.023
 1857HOH     H1 5758   3.900   3.631   1.032
 1857HOH     H2 5759   3.773   3.618   0.951
 1858HOH      O 5760   3.293   2.446   0.815
 1858HOH     H1 5761   3.224   2.471   0.876
 1858HOH     H2 5762   3.269   2.487   0.732
 1859HOH      O 5763   2.898   0.507   3.968
 1859HOH     H1 5764   2.926   0.591   3.931
 1859HOH     H2 5765   2.812   0.526   4.007
 1860HOH      O 5766   2.799   3.962   1.385
 1860HOH     H1 5767   2.770   4.042   1.343
 1860HOH     H2 5768   2.752   3.892   1.339
 1861HOH      O 5769   0.354   0.852   2.356
 1861HOH     H1 5770   0.269   0.867   2.396
 1861HOH     H2 5771   0.348   0.765   2.316
 1862HOH      O 5772   0.076   3.232   1.906
 1862HOH     H1 5773   0.111   3.273   1.985
 1862HOH     H2 5774  -0.019   3.241   1.914
 1863HOH      O 5775   3.750   1.878   0.567
 1863HOH     H1 5776   3.754   1.922   0.652
 1863HOH     H2 5777   3.841   1.862   0.544
 1864HOH      O 5778   0.386   2.305   0.545
 1864HOH     H1 5779   0.333   2.284   0.622
 1864HOH     H2 5780   0.402   2.399   0.551
 1865HOH      O 5781   0.916   0.589   1.201
 1865HOH     H1 5782   0.938   0.500   1.228
 1865HOH     H2 5783   0.958   0.600   1.116
 1866HOH      O 5784   2.959   1.866   2.670
 1866HOH     H1 5785   3.051   1.862   2.644
 1866HOH     H2 5786   2.930   1.954   2.646
 1867HOH      O 5787   1.182   0.383   2.315
 1867HOH     H1 5788   1.236   0.413   2.242
 1867HOH     H2 5789   1.118   0.324   2.276
 1868HOH      O 5790   2.103   1.894   1.269
 1868HOH     H1 5791   2.024   1.913   1.319
 1868HOH     H2 5792   2.158   1.845   1.330
 1869HOH      O 5793   0.203   3.918   1.243
 1869HOH     H1 5794   0.117   3.951   1.267
 1869HOH     H2 5795   0.195   3.823   1.248
 1870HOH      O 5796   2.928   2.691   1.282
 1870HOH     H1 5797   2.950   2.729   1.197
 1870HOH     H2 5798   2.944   2.761   1.345
 1871HOH      O 5799   3.069   1.411   2.366
 1871HOH     H1 5800   3.101   1.482   2.310
 1871HOH     H2 5801   2.976   1.403   2.343
 1872HOH      O 5802   2.785   1.008   0.416
 1872HOH     H1 5803   2.698   0.977   0.392
 1872HOH     H2 5804   2.843   0.934   0.398
 1873HOH      O 5805   2.989   1.356   2.655
 1873HOH     H1 5806   2.997   1.332   2.563
 1873HOH     H2 5807   2.949   1.443   2.654
 1874HOH      O 5808   1.455   2.558   1.023
 1874HOH     H1 5809   1.523   2.601   1.075
 1874HOH     H2 5810   1.443   2.616   0.948
 1875HOH      O 5811   3.095   1.140   2.373
 1875HOH     H1 5812   3.072   1.098   2.290
 1875HOH     H2 5813   3.107   1.232   2.352
 1876HOH      O 5814   1.711   0.180   0.653
 1876HOH     H1 5815   1.705   0.139   0.740
 1876HOH     H2 5816   1.801   0.214   0.650
 1877HOH      O 5817   3.459   0.431   2.660
 1877HOH     H1 5818   3.441   0.355   2.715
 1877HOH     H2 5819   3.412   0.414   2.578
 1878HOH      O 5820   2.095   0.810   2.179
 1878HOH     H1 5821   2.110   0.746   2.110
 1878HOH     H2 5822   2.033   0.769   2.238
 1879HOH      O 5823   0.227   0.673   1.584
 1879HOH     H1 5824   0.200   0.635   1.668
 1879HOH     H2 5825   0.182   0.621   1.518
 1880HOH      O 5826   2.387   0.519   1.707
 1880HOH     H1 5827   2.415   0.610   1.712
 1880HOH     H2 5828   2.320   0.511   1.775
 1881HOH      O 5829   0.157   2.043   3.570
 1881HOH     H1 5830   0.164   1.954   3.535
 1881HOH     H2 5831   0.133   2.096   3.494
 1882HOH      O 5832   2.783   3.563   2.493
 1882HOH     H1 5833   2.836   3.548   2.571
 1882HOH     H2 5834   2.737   3.646   2.511
 1883HOH      O 5835   1.699   3.397   2.285
 1883HOH     H1 5836   1.728   3.361   2.369
 1883HOH     H2 5837   1.720   3.329   2.221
 1884HOH      O 5838   2.225   3.715   3.138
 1884HOH     H1 5839   2.263   3.788   3.089
 1884HOH     H2 5840   2.172   3.756   3.206
 1885HOH      O 5841   0.300   0.124   0.792
 1885HOH     H1 5842   0.306   0.065   0.867
 1885HOH     H2 5843   0.387   0.161   0.783
 1886HOH      O 5844   1.159   2.040   1.342
 1886HOH     H1 5845   1.129   2.039   1.433
 1886HOH     H2 5846   1.170   1.948   1.319
 1887HOH      O 5847   1.077   3.509   1.004
 1887HOH     H1 5848   1.171   3.516   1.018
 1887HOH     H2 5849   1.041   3.590   1.040
 1888HOH      O 5850   0.257   2.266   1.055
 1888HOH     H1 5851   0.256   2.181   1.098
 1888HOH     H2 5852   0.341   2.269   1.009
 1889HOH      O 5853   1.651   1.599   1.783
 1889HOH     H1 5854   1.605   1.596   1.699
 1889HOH     H2 5855   1.581   1.618   1.846
 1890HOH      O 5856   3.561   3.899   1.022
 1890HOH     H1 5857   3.472   3.863   1.015
 1890HOH     H2 5858   3.615   3.836   0.974
 1891HOH      O 5859   0.408   1.229   0.088
 1891HOH     H1 5860   0.454   1.146   0.082
 1891HOH     H2 5861   0.471   1.289   0.126
 1892HOH      O 5862   0.540   1.171   1.661
 1892HOH     H1 5863   0.571   1.093   1.614
 1892HOH     H2 5864   0.487   1.218   1.597
 1893HOH      O 5865   2.438   1.214   3.703
 1893HOH     H1 5866   2.382   1.284   3.671
 1893HOH     H2 5867   2.526   1.238   3.675
 1894HOH      O 5868   2.417   0.150   2.294
 1894HOH     H1 5869   2.505   0.179   2.317
 1894HOH     H2 5870   2.371   0.143   2.377
 1895HOH      O 5871   1.836   1.386   3.089
 1895HOH     H1 5872   1.856   1.341   3.171
 1895HOH     H2 5873   1.746   1.359   3.069
 1896HOH      O 5874   2.542   0.377   1.005
 1896HOH     H1 5875   2.505   0.365   1.093
 1896HOH     H2 5876   2.550   0.472   0.995
 1897HOH      O 5877   4.005   0.748   0.932
 1897HOH     H1 5878   4.041   0.819   0.880
 1897HOH     H2 5879   3.913   0.743   0.907
 1898HOH      O 5880   0.543   2.317   1.056
 1898HOH     H1 5881   0.593   2.257   1.001
 1898HOH     H2 5882   0.597   2.330   1.134
 1899HOH      O 5883   2.751   2.634   0.965
 1899HOH     H1 5884   2.803   2.554   0.963
 1899HOH     H2 5885   2.660   2.604   0.960
 1900HOH      O 5886   2.944   2.483   2.648
 1900HOH     H1 5887   3.030   2.466   2.609
 1900HOH     H2 5888   2.956   2.468   2.741
 1901HOH      O 5889   1.564   2.378   1.396
 1901HOH     H1 5890   1.560   2.463   1.440
 1901HOH     H2 5891   1.639   2.385   1.338
 1902HOH      O 5892   0.578   3.921   3.818
 1902HOH     H1 5893   0.531   3.970   3.886
 1902HOH     H2 5894   0.553   3.830   3.831
 1903HOH      O 5895   1.172   2.354   0.289
 1903HOH     H1 5896   1.190   2.317   0.376
 1903HOH     H2 5897   1.185   2.448   0.300
 1904HOH      O 5898   2.545   3.376   0.303
 1904HOH     H1 5899   2.576   3.455   0.349
 1904HOH     H2 5900   2.454   3.394   0.283
 1905HOH      O 5901   2.041   3.906   2.483
 1905HOH     H1 5902   2.028   4.001   2.485
 1905HOH     H2 5903   2.039   3.884   2.390
 1906HOH      O 5904   0.900   3.568   0.523
 1906HOH     H1 5905   0.956   3.645   0.511
 1906HOH     H2 5906   0.850   3.587   0.602
 1907HOH      O 5907   3.906   3.599   1.391
 1907HOH     H1 5908   3.846   3.672   1.373
 1907HOH     H2 5909   3.862   3.550   1.461
 1908HOH      O 5910   0.063   3.964   0.620
 1908HOH     H1 5911   0.061   4.056   0.648
 1908HOH     H2 5912   0.154   3.937   0.634
 1909HOH      O 5913   3.667   0.377   2.406
 1909HOH     H1 5914   3.623   0.350   2.325
 1909HOH     H2 5915   3.664   0.473   2.404
 1910HOH      O 5916   0.822  -0.015   2.047
 1910HOH     H1 5917   0.793  -0.037   2.135
 1910HOH     H2 5918   0.818   0.080   2.043
 1911HOH      O 5919   3.899   1.542   0.348
 1911HOH     H1 5920   3.834   1.475   0.327
 1911HOH     H2 5921   3.852   1.625   0.337
 1912HOH      O 5922   0.806   1.369   1.606
 1912HOH     H1 5923   0.756   1.313   1.547
 1912HOH     H2 5924   0.892   1.378   1.564
 1913HOH      O 5925   1.678   0.180   2.388
 1913HOH     H1 5926   1.584   0.164   2.397
 1913HOH     H2 5927   1.700   0.147   2.301
 1914HOH      O 5928   0.749   3.596   1.840
 1914HOH     H1 5929   0.780   3.597   1.749
 1914HOH     H2 5930   0.707   3.681   1.851
 1915HOH      O 5931   0.699   0.787   3.296
 1915HOH     H1 5932   0.686   0.788   3.391
 1915HOH     H2 5933   0.646   0.713   3.266
 1916HOH      O 5934   0.434   0.267   1.803
 1916HOH     H1 5935   0.511   0.324   1.797
 1916HOH     H2 5936   0.454   0.193   1.746
 1917HOH      O 5937   1.891   2.317   2.964
 1917HOH     H1 5938   1.812   2.304   2.911
 1917HOH     H2 5939   1.930   2.397   2.929
 1918HOH      O 5940   0.710   1.955   0.562
 1918HOH     H1 5941   0.653   2.014   0.612
 1918HOH     H2 5942   0.742   2.009   0.490
 1919HOH      O 5943   3.627   3.002   0.448
 1919HOH     H1 5944   3.599   3.076   0.394
 1919HOH     H2 5945   3.627   2.927   0.388
 1920HOH      O 5946   3.916   2.728   1.218
 1920HOH     H1 5947   3.878   2.816   1.217
 1920HOH     H2 5948   4.010   2.742   1.210
 1921HOH      O 5949   0.326   2.051   2.272
 1921HOH     H1 5950   0.409   2.051   2.224
 1921HOH     H2 5951   0.352   2.068   2.363
 1922HOH      O 5952   1.590   3.327   1.747
 1922HOH     H1 5953   1.506   3.286   1.724
 1922HOH     H2 5954   1.637   3.258   1.795
 1923HOH      O 5955   2.656   2.189   0.532
 1923HOH     H1 5956   2.583   2.209   0.474
 1923HOH     H2 5957   2.734   2.217   0.484
 1924HOH      O 5958   2.748   0.728   2.857
 1924HOH     H1 5959   2.751   0.716   2.762
 1924HOH     H2 5960   2.666   0.688   2.884
 1925HOH      O 5961   3.060   1.081   0.646
 1925HOH     H1 5962   3.090   1.091   0.736
 1925HOH     H2 5963   2.994   1.150   0.634
 1926HOH      O 5964   0.034   3.055   0.344
 1926HOH     H1 5965   0.111   3.055   0.401
 1926HOH     H2 5966  -0.026   3.117   0.385
 1927HOH      O 5967   0.667   0.757   2.277
 1927HOH     H1 5968   0.642   0.697   2.348
 1927HOH     H2 5969   0.696   0.836   2.322
 1928HOH      O 5970   0.007   2.479   2.651
 1928HOH     H1 5971   0.077   2.487   2.715
 1928HOH     H2 5972  -0.070   2.455   2.703
 1929HOH      O 5973   1.486   0.150   0.067
 1929HOH     H1 5974   1.553   0.157  -0.000
 1929HOH     H2 5975   1.484   0.236   0.109
 1930HOH      O 5976   0.831   2.870   3.251
 1930HOH     H1 5977   0.836   2.781   3.215
 1930HOH     H2 5978   0.855   2.859   3.343
 1931HOH      O 5979   0.156   3.645   1.345
 1931HOH     H1 5980   0.173   3.569   1.289
 1931HOH     H2 5981   0.062   3.642   1.361
 1932HOH      O 5982   2.465   2.187   2.992
 1932HOH     H1 5983   2.550   2.217   2.960
 1932HOH     H2 5984   2.484   2.143   3.075
 1933HOH      O 5985   0.098   2.152   3.890
 1933HOH     H1 5986   0.104   2.057   3.886
 1933HOH     H2 5987   0.072   2.171   3.981
 1934HOH      O 5988   1.305   2.196   1.880
 1934HOH     H1 5989   1.379   2.135   1.873
 1934HOH     H2 5990   1.341   2.270   1.929
 1935HOH      O 5991   1.483   1.359   3.237
 1935HOH     H1 5992   1.466   1.310   3.317
 1935HOH     H2 5993   1.504   1.291   3.172
 1936HOH      O 5994   2.055   2.771   2.696
 1936HOH     H1 5995   2.064   2.718   2.618
 1936HOH     H2 5996   2.099   2.854   2.674
 1937HOH      O 5997   3.166   1.632   0.826
 1937HOH     H1 5998   3.129   1.590   0.749
 1937HOH     H2 5999   3.157   1.726   0.808
 1938HOH      O 6000   1.580   2.108   2.401
 1938HOH     H1 6001   1.605   2.121   2.493
 1938HOH     H2 6002   1.485   2.109   2.401
 1939HOH      O 6003   0.958   3.403   3.771
 1939HOH     H1 6004   0.867   3.375   3.781
 1939HOH     H2 6005   0.953   3.483   3.717
 1940HOH      O 6006   3.259   0.067   1.636
 1940HOH     H1 6007   3.281  -0.023   1.611
 1940HOH     H2 6008   3.191   0.093   1.574
 1941HOH      O 6009   3.081   3.620   3.612
 1941HOH     H1 6010   3.111   3.640   3.701
 1941HOH     H2 6011   3.019   3.689   3.592
 1942HOH      O 6012   3.783   2.819   2.313
 1942HOH     H1 6013   3.713   2.810   2.249
 1942HOH     H2 6014   3.824   2.732   2.317
 1943HOH      O 6015   2.037   3.818   2.734
 1943HOH     H1 6016   2.096   3.744   2.746
 1943HOH     H2 6017   2.061   3.854   2.649
 1944HOH      O 6018   2.023   3.488   1.974
 1944HOH     H1 6019   2.099   3.442   2.010
 1944HOH     H2 6020   1.989   3.541   2.046
 1945HOH      O 6021   1.813   2.642   1.380
 1945HOH     H1 6022   1.895   2.687   1.403
 1945HOH     H2 6023   1.766   2.634   1.463
 1946HOH      O 6024   2.412   1.396   1.682
 1946HOH     H1 6025   2.361   1.476   1.697
 1946HOH     H2 6026   2.470   1.417   1.609
 1947HOH      O 6027   1.593   3.744   2.107
 1947HOH     H1 6028   1.668   3.800   2.084
 1947HOH     H2 6029   1.612   3.713   2.195
 1948HOH      O 6030   1.237   1.251   1.990
 1948HOH     H1 6031   1.259   1.339   1.958
 1948HOH     H2 6032   1.317   1.200   1.978
 1949HOH      O 6033   2.733   2.537   2.151
 1949HOH     H1 6034   2.764   2.471   2.088
 1949HOH     H2 6035   2.776   2.512   2.233
 1950HOH      O 6036  -0.006   0.226   3.539
 1950HOH     H1 6037   0.064   0.175   3.498
 1950HOH     H2 6038  -0.020   0.184   3.624
 1951HOH      O 6039   0.932   2.299   0.559
 1951HOH     H1 6040   0.894   2.268   0.641
 1951HOH     H2 6041   0.859   2.300   0.497
 1952HOH      O 6042   2.315   3.087   0.730
 1952HOH     H1 6043   2.309   2.997   0.699
 1952HOH     H2 6044   2.407   3.111   0.715
 1953HOH      O 6045   1.753   0.715   4.030
 1953HOH     H1 6046   1.765   0.625   4.062
 1953HOH     H2 6047   1.833   0.733   3.981
 1954HOH      O 6048   1.435   2.995   0.772
 1954HOH     H1 6049   1.371   3.049   0.817
 1954HOH     H2 6050   1.518   3.013   0.818
 1955HOH      O 6051   3.752   1.307   0.114
 1955HOH     H1 6052   3.704   1.247   0.172
 1955HOH     H2 6053   3.835   1.322   0.160
 1956HOH      O 6054   4.020   0.286   2.562
 1956HOH     H1 6055   3.984   0.221   2.502
 1956HOH     H2 6056   3.962   0.362   2.552
 1957HOH      O 6057   3.160   2.160   0.675
 1957HOH     H1 6058   3.224   2.230   0.689
 1957HOH     H2 6059   3.083   2.187   0.726
 1958HOH      O 6060   1.203   0.605   3.603
 1958HOH     H1 6061   1.114   0.620   3.632
 1958HOH     H2 6062   1.246   0.561   3.676
 1959HOH      O 6063   0.879   3.117   2.315
 1959HOH     H1 6064   0.840   3.204   2.311
 1959HOH     H2 6065   0.973   3.133   2.305
 1960HOH      O 6066   1.806   3.356   0.348
 1960HOH     H1 6067   1.781   3.281   0.401
 1960HOH     H2 6068   1.732   3.370   0.289
 1961HOH      O 6069   3.472   0.319   3.832
 1961HOH     H1 6070   3.498   0.394   3.886
 1961HOH     H2 6071   3.409   0.355   3.770
 1962HOH      O 6072   3.691   3.804   1.395
 1962HOH     H1 6073   3.679   3.777   1.486
 1962HOH     H2 6074   3.615   3.769   1.349
 1963HOH      O 6075   1.006   3.822   2.551
 1963HOH     H1 6076   1.041   3.876   2.479
 1963HOH     H2 6077   0.985   3.738   2.510
 1964HOH      O 6078   2.330   2.949   0.981
 1964HOH     H1 6079   2.246   2.975   0.944
 1964HOH     H2 6080   2.395   2.997   0.929
 1965HOH      O 6081   3.789   1.575   2.526
 1965HOH     H1 6082   3.859   1.577   2.591
 1965HOH     H2 6083   3.710   1.599   2.575
 1966HOH      O 6084   3.604   3.770   2.949
 1966HOH     H1 6085   3.568   3.704   2.889
 1966HOH     H2 6086   3.581   3.738   3.036
 1967HOH      O 6087   0.578   1.158   2.063
 1967HOH     H1 6088   0.528   1.163   2.145
 1967HOH     H2 6089   0.669   1.165   2.090
 1968HOH      O 6090   3.660   3.529   4.017
 1968HOH     H1 6091   3.725   3.579   3.967
 1968HOH     H2 6092   3.684   3.437   4.003
 1969HOH      O 6093   3.942   2.649   0.538
 1969HOH     H1 6094   3.981   2.687   0.459
 1969HOH     H2 6095   3.847   2.651   0.522
 1970HOH      O 6096   3.775   1.092   2.347
 1970HOH     H1 6097   3.864   1.123   2.329
 1970HOH     H2 6098   3.730   1.098   2.262
 1971HOH      O 6099   1.994   2.823   2.963
 1971HOH     H1 6100   2.037   2.813   2.878
 1971HOH     H2 6101   2.065   2.833   3.026
 1972HOH      O 6102   1.091   0.929   3.973
 1972HOH     H1 6103   1.079   0.932   3.879
 1972HOH     H2 6104   1.184   0.910   3.986
 1973HOH      O 6105   1.048   2.514   1.336
 1973HOH     H1 6106   1.120   2.572   1.359
 1973HOH     H2 6107   1.040   2.455   1.411
 1974HOH      O 6108   2.093   1.985   2.309
 1974HOH     H1 6109   2.154   1.934   2.363
 1974HOH     H2 6110   2.008   1.969   2.348
 1975HOH      O 6111   2.548   3.208   3.786
 1975HOH     H1 6112   2.532   3.291   3.830
 1975HOH     H2 6113   2.634   3.218   3.745
 1976HOH      O 6114   2.327   2.843   2.848
 1976HOH     H1 6115   2.411   2.867   2.808
 1976HOH     H2 6116   2.266   2.908   2.814
 1977HOH      O 6117   2.639   3.290   1.958
 1977HOH     H1 6118   2.704   3.297   1.888
 1977HOH     H2 6119   2.559   3.324   1.919
 1978HOH      O 6120   0.649   0.732   1.795
 1978HOH     H1 6121   0.611   0.818   1.809
 1978HOH     H2 6122   0.637   0.716   1.701
 1979HOH      O 6123   1.330   2.088   2.474
 1979HOH     H1 6124   1.249   2.091   2.422
 1979HOH     H2 6125   1.359   1.997   2.466
 1980HOH      O 6126   0.673   2.074   0.106
 1980HOH     H1 6127   0.695   2.086   0.014
 1980HOH     H2 6128   0.613   1.999   0.106
 1981HOH      O 6129   2.951   1.010   1.387
 1981HOH     H1 6130   3.005   0.931   1.400
 1981HOH     H2 6131   2.990   1.075   1.445
 1982HOH      O 6132   1.728   1.813   3.836
 1982HOH     H1 6133   1.667   1.739   3.835
 1982HOH     H2 6134   1.710   1.860   3.754
 1983HOH      O 6135   1.337   3.231   1.698
 1983HOH     H1 6136   1.300   3.159   1.750
 1983HOH     H2 6137   1.322   3.205   1.607
 1984HOH      O 6138   1.986   3.579   3.705
 1984HOH     H1 6139   1.951   3.585   3.616
 1984HOH     H2 6140   2.025   3.665   3.721
 1985HOH      O 6141   1.889   2.276   2.400
 1985HOH     H1 6142   1.956   2.219   2.438
 1985HOH     H2 6143   1.809   2.224   2.403
 1986HOH      O 6144   0.180   1.733   2.565
 1986HOH     H1 6145   0.162   1.703   2.476
 1986HOH     H2 6146   0.108   1.792   2.585
 1987HOH      O 6147   1.059   1.161   2.626
 1987HOH     H1 6148   0.989   1.107   2.663
 1987HOH     H2 6149   1.014   1.229   2.576
 1988HOH      O 6150   0.941   3.318   0.435
 1988HOH     H1 6151   0.940   3.265   0.515
 1988HOH     H2 6152   0.936   3.409   0.466
 1989HOH      O 6153   3.814   2.388   1.149
 1989HOH     H1 6154   3.857   2.428   1.074
 1989HOH     H2 6155   3.882   2.385   1.216
 1990HOH      O 6156   0.580   2.187   0.712
 1990HOH     H1 6157   0.598   2.249   0.641
 1990HOH     H2 6158   0.488   2.162   0.699
 1991HOH      O 6159   0.065   3.150   2.639
 1991HOH     H1 6160   0.055   3.126   2.731
 1991HOH     H2 6161   0.050   3.245   2.637
 1992HOH      O 6162   2.147   1.534   2.454
 1992HOH     H1 6163   2.186   1.582   2.380
 1992HOH     H2 6164   2.162   1.442   2.433
 1993HOH      O 6165   3.615   2.164   0.245
 1993HOH     H1 6166   3.649   2.079   0.275
 1993HOH     H2 6167   3.548   2.186   0.310
 1994HOH      O 6168   3.348   0.395   2.192
 1994HOH     H1 6169   3.290   0.456   2.147
 1994HOH     H2 6170   3.435   0.415   2.159
 1995HOH      O 6171   3.537   2.615   1.091
 1995HOH     H1 6172   3.587   2.647   1.166
 1995HOH     H2 6173   3.514   2.525   1.115
 1996HOH      O 6174   3.142   0.803   1.435
 1996HOH     H1 6175   3.119   0.717   1.469
 1996HOH     H2 6176   3.159   0.789   1.342
 1997HOH      O 6177   3.148   1.881   0.244
 1997HOH     H1 6178   3.086   1.869   0.316
 1997HOH     H2 6179   3.194   1.797   0.239
 1998HOH      O 6180   0.488   0.312   0.512
 1998HOH     H1 6181   0.422   0.350   0.570
 1998HOH     H2 6182   0.558   0.377   0.509
 1999HOH      O 6183   0.460   2.124   3.459
 1999HOH     H1 6184   0.379   2.073   3.463
 1999HOH     H2 6185   0.497   2.118   3.547
 2000HOH      O 6186   0.240   1.408   1.399
 2000HOH     H1 6187   0.146   1.406   1.382
 2000HOH     H2 6188   0.248   1.388   1.493
 2001HOH      O 6189   0.959   1.752   1.750
 2001HOH     H1 6190   0.869   1.762   1.721
 2001HOH     H2 6191   0.955   1.754   1.846
 2002HOH      O 6192   0.289   2.609   1.521
 2002HOH     H1 6193   0.268   2.540   1.458
 2002HOH     H2 6194   0.368   2.651   1.485
 2003HOH      O 6195   1.235   3.267   0.615
 2003HOH     H1 6196   1.274   3.350   0.643
 2003HOH     H2 6197   1.230   3.215   0.695
 2004HOH      O 6198   1.357   0.164   1.346
 2004HOH     H1 6199   1.452   0.163   1.359
 2004HOH     H2 6200   1.325   0.092   1.400
 2005HOH      O 6201   3.307   2.228   2.179
 2005HOH     H1 6202   3.383   2.208   2.233
 2005HOH     H2 6203   3.232   2.197   2.231
 2006HOH      O 6204   1.186   2.184   0.493
 2006HOH     H1 6205   1.093   2.207   0.504
 2006HOH     H2 6206   1.215   2.158   0.581
 2007HOH      O 6207   3.541   1.396   3.752
 2007HOH     H1 6208   3.616   1.455   3.753
 2007HOH     H2 6209   3.558   1.336   3.680
 2008HOH      O 6210   0.505   2.031   1.769
 2008HOH     H1 6211   0.497   2.029   1.673
 2008HOH     H2 6212   0.539   1.944   1.791
 2009HOH      O 6213   3.265   1.109   3.251
 2009HOH     H1 6214   3.264   1.157   3.168
 2009HOH     H2 6215   3.174   1.079   3.263
 2010HOH      O 6216   3.422   1.847   1.889
 2010HOH     H1 6217   3.353   1.823   1.827
 2010HOH     H2 6218   3.394   1.810   1.972
 2011HOH      O 6219   3.162   3.482   1.378
 2011HOH     H1 6220   3.174   3.434   1.296
 2011HOH     H2 6221   3.074   3.519   1.370
 2012HOH      O 6222   0.805   0.752   2.663
 2012HOH     H1 6223   0.797   0.656   2.661
 2012HOH     H2 6224   0.731   0.780   2.716
 2013HOH      O 6225   2.042   0.497   0.515
 2013HOH     H1 6226   2.067   0.451   0.435
 2013HOH     H2 6227   2.124   0.536   0.548
 2014HOH      O 6228   1.625   2.698   3.685
 2014HOH     H1 6229   1.598   2.786   3.711
 2014HOH     H2 6230   1.569   2.640   3.737
 2015HOH      O 6231   1.049   2.105   1.863
 2015HOH     H1 6232   1.144   2.104   1.875
 2015HOH     H2 6233   1.022   2.194   1.887
 2016HOH      O 6234   0.225   3.607   0.876
 2016HOH     H1 6235   0.276   3.541   0.829
 2016HOH     H2 6236   0.289   3.653   0.929
 2017HOH      O 6237   2.378   1.727   3.177
 2017HOH     H1 6238   2.469   1.707   3.196
 2017HOH     H2 6239   2.350   1.784   3.249
 2018HOH      O 6240   2.842   0.874   1.635
 2018HOH     H1 6241   2.923   0.824   1.623
 2018HOH     H2 6242   2.870   0.954   1.681
 2019HOH      O 6243   0.317   0.611   1.213
 2019HOH     H1 6244   0.346   0.676   1.277
 2019HOH     H2 6245   0.222   0.622   1.209
 2020HOH      O 6246   3.482   1.237   1.678
 2020HOH     H1 6247   3.414   1.280   1.626
 2020HOH     H2 6248   3.497   1.297   1.752
 2021HOH      O 6249   1.500   1.956   0.695
 2021HOH     H1 6250   1.575   1.948   0.754
 2021HOH     H2 6251   1.539   1.955   0.608
 2022HOH      O 6252   1.022   2.556   3.270
 2022HOH     H1 6253   1.103   2.515   3.301
 2022HOH     H2 6254   0.999   2.618   3.340
 2023HOH      O 6255   2.924   3.659   1.810
 2023HOH     H1 6256   2.939   3.587   1.749
 2023HOH     H2 6257   2.895   3.616   1.890
 2024HOH      O 6258   0.287   2.345   3.758
 2024HOH     H1 6259   0.216   2.281   3.764
 2024HOH     H2 6260   0.367   2.292   3.762
 2025HOH      O 6261   1.007   1.891   1.061
 2025HOH     H1 6262   0.937   1.901   1.126
 2025HOH     H2 6263   0.970   1.831   0.996
 2026HOH      O 6264   2.948   1.111   3.620
 2026HOH     H1 6265   3.018   1.176   3.612
 2026HOH     H2 6266   2.959   1.054   3.544
 2027HOH      O 6267   2.659   0.623   3.915
 2027HOH     H1 6268   2.594   0.694   3.917
 2027HOH     H2 6269   2.651   0.586   3.827
 2028HOH      O 6270   2.138   2.254   1.991
 2028HOH     H1 6271   2.052   2.284   2.022
 2028HOH     H2 6272   2.149   2.296   1.906
 2029HOH      O 6273   2.304   2.197   0.903
 2029HOH     H1 6274   2.344   2.243   0.976
 2029HOH     H2 6275   2.233   2.146   0.942
 2030HOH      O 6276   1.880   2.288   2.045
 2030HOH     H1 6277   1.859   2.268   2.137
 2030HOH     H2 6278   1.846   2.212   1.997
 2031HOH      O 6279   0.854   3.027   3.816
 2031HOH     H1 6280   0.830   3.063   3.731
 2031HOH     H2 6281   0.894   3.099   3.863
 2032HOH      O 6282   3.949   2.427   0.913
 2032HOH     H1 6283   4.015   2.434   0.844
 2032HOH     H2 6284   3.870   2.463   0.873
 2033HOH      O 6285   2.210   2.512   0.451
 2033HOH     H1 6286   2.246   2.479   0.368
 2033HOH     H2 6287   2.227   2.441   0.513
 2034HOH      O 6288   3.810   3.126   0.634
 2034HOH     H1 6289   3.745   3.080   0.580
 2034HOH     H2 6290   3.847   3.192   0.576
 2035HOH      O 6291   3.447   1.610   0.108
 2035HOH     H1 6292   3.453   1.603   0.204
 2035HOH     H2 6293   3.536   1.626   0.079
 2036HOH      O 6294   1.866   0.345   0.357
 2036HOH     H1 6295   1.953   0.322   0.327
 2036HOH     H2 6296   1.875   0.352   0.452
 2037HOH      O 6297   3.927   0.115   3.111
 2037HOH     H1 6298   3.949   0.049   3.176
 2037HOH     H2 6299   4.001   0.175   3.112
 2038HOH      O 6300   1.634   3.648   2.367
 2038HOH     H1 6301   1.687   3.661   2.446
 2038HOH     H2 6302   1.627   3.553   2.359
 2039HOH      O 6303   3.407   2.678   1.726
 2039HOH     H1 6304   3.446   2.740   1.788
 2039HOH     H2 6305   3.468   2.605   1.724
 2040HOH      O 6306   2.226   0.244   3.482
 2040HOH     H1 6307   2.245   0.305   3.554
 2040HOH     H2 6308   2.312   0.224   3.445
 2041HOH      O 6309   3.701   0.757   2.982
 2041HOH     H1 6310   3.697   0.697   3.056
 2041HOH     H2 6311   3.755   0.712   2.917
 2042HOH      O 6312   3.504   2.671   0.834
 2042HOH     H1 6313   3.505   2.645   0.926
 2042HOH     H2 6314   3.483   2.765   0.836
 2043HOH      O 6315   0.731   0.272   3.735
 2043HOH     H1 6316   0.757   0.204   3.797
 2043HOH     H2 6317   0.696   0.224   3.660
 2044HOH      O 6318   1.957   0.736   2.791
 2044HOH     H1 6319   1.885   0.798   2.797
 2044HOH     H2 6320   1.914   0.651   2.781
 2045HOH      O 6321   3.499   3.992   2.283
 2045HOH     H1 6322   3.424   4.024   2.233
 2045HOH     H2 6323   3.512   4.057   2.352
 2046HOH      O 6324   0.506   0.207   2.554
 2046HOH     H1 6325   0.427   0.261   2.555
 2046HOH     H2 6326   0.499   0.152   2.631
 2047HOH      O 6327   1.030   1.491   1.778
 2047HOH     H1 6328   1.018   1.583   1.755
 2047HOH     H2 6329   1.033   1.446   1.693
 2048HOH      O 6330   0.787   2.414   0.357
 2048HOH     H1 6331   0.723   2.482   0.379
 2048HOH     H2 6332   0.814   2.434   0.268
 2049HOH      O 6333   2.563   2.984   1.415
 2049HOH     H1 6334   2.645   2.976   1.464
 2049HOH     H2 6335   2.495   2.965   1.480
 2050HOH      O 6336   1.955   2.537   2.196
 2050HOH     H1 6337   1.943   2.444   2.175
 2050HOH     H2 6338   2.036   2.562   2.152
 2051HOH      O 6339   3.162   0.587   2.139
 2051HOH     H1 6340   3.217   0.665   2.149
 2051HOH     H2 6341   3.097   0.595   2.208
 2052HOH      O 6342   1.959   3.534   0.509
 2052HOH     H1 6343   1.931   3.495   0.426
 2052HOH     H2 6344   1.928   3.624   0.504
 2053HOH      O 6345   1.233   0.005   0.478
 2053HOH     H1 6346   1.301  -0.059   0.458
 2053HOH     H2 6347   1.281   0.085   0.499
 2054HOH      O 6348   0.998   3.576   3.988
 2054HOH     H1 6349   1.060   3.609   3.924
 2054HOH     H2 6350   1.045   3.577   4.071
 2055HOH      O 6351   3.485   3.508   0.446
 2055HOH     H1 6352   3.449   3.564   0.378
 2055HOH     H2 6353   3.570   3.480   0.411
 2056HOH      O 6354   1.634   2.169   2.151
 2056HOH     H1 6355   1.606   2.127   2.232
 2056HOH     H2 6356   1.602   2.111   2.082
 2057HOH      O 6357   0.083   2.386   1.884
 2057HOH     H1 6358   0.122   2.307   1.923
 2057HOH     H2 6359   0.143   2.410   1.814
 2058HOH      O 6360   2.237   2.079   2.836
 2058HOH     H1 6361   2.241   1.988   2.865
 2058HOH     H2 6362   2.301   2.125   2.891
 2059HOH      O 6363   0.049   1.708   0.938
 2059HOH     H1 6364   0.102   1.735   0.863
 2059HOH     H2 6365   0.112   1.676   1.002
 2060HOH      O 6366   0.818   2.842   2.441
 2060HOH     H1 6367   0.795   2.912   2.379
 2060HOH     H2 6368   0.897   2.802   2.405
 2061HOH      O 6369   2.062   0.579   3.051
 2061HOH     H1 6370   1.980   0.629   3.056
 2061HOH     H2 6371   2.129   0.644   3.032
 2062HOH      O 6372   3.144   3.237   0.921
 2062HOH     H1 6373   3.084   3.170   0.888
 2062HOH     H2 6374   3.111   3.319   0.885
 2063HOH      O 6375   1.828   0.426   2.152
 2063HOH     H1 6376   1.756   0.363   2.152
 2063HOH     H2 6377   1.844   0.444   2.059
 2064HOH      O 6378   3.041   0.212   2.973
 2064HOH     H1 6379   2.996   0.171   3.047
 2064HOH     H2 6380   2.996   0.296   2.962
 2065HOH      O 6381   0.289   3.785   2.601
 2065HOH     H1 6382   0.355   3.718   2.584
 2065HOH     H2 6383   0.281   3.833   2.518
 2066HOH      O 6384   2.882   2.648   2.425
 2066HOH     H1 6385   2.878   2.576   2.487
 2066HOH     H2 6386   2.975   2.657   2.404
 2067HOH      O 6387   3.860   1.281   3.405
 2067HOH     H1 6388   3.924   1.343   3.440
 2067HOH     H2 6389   3.795   1.272   3.474
 2068HOH      O 6390   0.998   3.931   0.836
 2068HOH     H1 6391   0.928   3.930   0.770
 2068HOH     H2 6392   0.956   3.895   0.914
 2069HOH      O 6393   0.335   0.008   1.043
 2069HOH     H1 6394   0.337   0.087   1.097
 2069HOH     H2 6395   0.263  -0.043   1.079
 2070HOH      O 6396   2.568   1.077   1.012
 2070HOH     H1 6397   2.609   1.099   0.929
 2070HOH     H2 6398   2.638   1.041   1.066
 2071HOH      O 6399   0.582   2.322   2.197
 2071HOH     H1 6400   0.647   2.386   2.226
 2071HOH     H2 6401   0.511   2.374   2.161
 2072HOH      O 6402   1.929   1.827   3.265
 2072HOH     H1 6403   1.905   1.824   3.172
 2072HOH     H2 6404   1.944   1.920   3.283
 2073HOH      O 6405   3.706   3.743   0.845
 2073HOH     H1 6406   3.666   3.660   0.821
 2073HOH     H2 6407   3.790   3.744   0.799
 2074HOH      O 6408   0.777   3.411   1.112
 2074HOH     H1 6409   0.763   3.417   1.018
 2074HOH     H2 6410   0.778   3.317   1.130
 2075HOH      O 6411   1.220   1.255   1.229
 2075HOH     H1 6412   1.303   1.209   1.220
 2075HOH     H2 6413   1.242   1.336   1.275
 2076HOH      O 6414   3.425   2.737   2.386
 2076HOH     H1 6415   3.404   2.821   2.346
 2076HOH     H2 6416   3.340   2.698   2.408
 2077HOH      O 6417   1.856   0.516   1.902
 2077HOH     H1 6418   1.772   0.558   1.886
 2077HOH     H2 6419   1.879   0.475   1.819
 2078HOH      O 6420   2.600   2.457   0.692
 2078HOH     H1 6421   2.597   2.523   0.623
 2078HOH     H2 6422   2.692   2.451   0.716
 2079HOH      O 6423   0.468   1.460   3.644
 2079HOH     H1 6424   0.538   1.525   3.643
 2079HOH     H2 6425   0.387   1.511   3.648
 2080HOH      O 6426   3.197   3.705   3.861
 2080HOH     H1 6427   3.281   3.674   3.894
 2080HOH     H2 6428   3.217   3.790   3.821
 2081HOH      O 6429   3.194   0.053   3.952
 2081HOH     H1 6430   3.245   0.004   3.887
 2081HOH     H2 6431   3.145   0.117   3.901
 2082HOH      O 6432   1.078   0.562   0.388
 2082HOH     H1 6433   1.036   0.494   0.336
 2082HOH     H2 6434   1.163   0.526   0.411
 2083HOH      O 6435   0.077   2.457   0.686
 2083HOH     H1 6436   0.162   2.494   0.712
 2083HOH     H2 6437   0.027   2.532   0.655
 2084HOH      O 6438   0.692   1.636   1.608
 2084HOH     H1 6439   0.690   1.544   1.632
 2084HOH     H2 6440   0.719   1.636   1.516
 2085HOH      O 6441   2.471   0.261   3.817
 2085HOH     H1 6442   2.434   0.178   3.847
 2085HOH     H2 6443   2.556   0.238   3.778
 2086HOH      O 6444   1.347   2.597   0.613
 2086HOH     H1 6445   1.256   2.568   0.610
 2086HOH     H2 6446   1.355   2.658   0.539
 2087HOH      O 6447   1.515   0.095   0.855
 2087HOH     H1 6448   1.454   0.046   0.910
 2087HOH     H2 6449   1.576   0.136   0.917
 2088HOH      O 6450   4.010   4.027   3.707
 2088HOH     H1 6451   4.100   4.003   3.728
 2088HOH     H2 6452   3.966   4.032   3.791
 2089HOH      O 6453   0.332   1.317   3.829
 2089HOH     H1 6454   0.400   1.265   3.871
 2089HOH     H2 6455   0.374   1.352   3.750
 2090HOH      O 6456   2.166   1.363   3.109
 2090HOH     H1 6457   2.122   1.298   3.054
 2090HOH     H2 6458   2.213   1.312   3.174
 2091HOH      O 6459   1.035   2.706   2.336
 2091HOH     H1 6460   1.018   2.613   2.343
 2091HOH     H2 6461   1.101   2.723   2.404
 2092HOH      O 6462   3.591   1.444   1.829
 2092HOH     H1 6463   3.667   1.502   1.828
 2092HOH     H2 6464   3.516   1.503   1.840
 2093HOH      O 6465   1.986   2.581   0.997
 2093HOH     H1 6466   2.069   2.624   0.980
 2093HOH     H2 6467   1.931   2.605   0.923
 2094HOH      O 6468   2.957   0.405   2.426
 2094HOH     H1 6469   2.982   0.497   2.420
 2094HOH     H2 6470   2.898   0.392   2.352
 2095HOH      O 6471   0.665   0.386   1.530
 2095HOH     H1 6472   0.627   0.366   1.444
 2095HOH     H2 6473   0.637   0.476   1.548
 2096HOH      O 6474   1.075   2.189   3.245
 2096HOH     H1 6475   1.091   2.253   3.315
 2096HOH     H2 6476   0.995   2.144   3.272
 2097HOH      O 6477   2.168   2.818   3.351
 2097HOH     H1 6478   2.255   2.794   3.383
 2097HOH     H2 6479   2.178   2.823   3.256
 2098HOH      O 6480   3.202   1.713   0.008
 2098HOH     H1 6481   3.284   1.669   0.032
 2098HOH     H2 6482   3.217   1.805   0.029
 2099HOH      O 6483   1.644   2.539   0.376
 2099HOH     H1 6484   1.590   2.547   0.297
 2099HOH     H2 6485   1.591   2.485   0.435
 2100HOH      O 6486   3.038   0.806   0.519
 2100HOH     H1 6487   3.046   0.809   0.423
 2100HOH     H2 6488   3.054   0.896   0.547
 2101HOH      O 6489   1.003   2.862   1.191
 2101HOH     H1 6490   1.079   2.811   1.160
 2101HOH     H2 6491   1.039   2.917   1.260
 2102HOH      O 6492   0.708   2.820   2.173
 2102HOH     H1 6493   0.628   2.868   2.194
 2102HOH     H2 6494   0.697   2.735   2.216
 2103HOH      O 6495   0.769   0.908   0.463
 2103HOH     H1 6496   0.709   0.921   0.537
 2103HOH     H2 6497   0.727   0.954   0.390
 2104HOH      O 6498   2.818   0.228   0.630
 2104HOH     H1 6499   2.819   0.227   0.726
 2104HOH     H2 6500   2.726   0.211   0.608
 2105HOH      O 6501   2.734   3.797   2.618
 2105HOH     H1 6502   2.824   3.827   2.630
 2105HOH     H2 6503   2.682   3.857   2.672
 2106HOH      O 6504   0.872   1.074   3.480
 2106HOH     H1 6505   0.779   1.057   3.468
 2106HOH     H2 6506   0.875   1.149   3.540
 2107HOH      O 6507   3.296   0.130   1.270
 2107HOH     H1 6508   3.269   0.221   1.259
 2107HOH     H2 6509   3.371   0.133   1.328
 2108HOH      O 6510   3.824   2.983   1.285
 2108HOH     H1 6511   3.774   3.035   1.347
 2108HOH     H2 6512   3.880   3.046   1.240
 2109HOH      O 6513   2.638   3.613   0.395
 2109HOH     H1 6514   2.602   3.700   0.376
 2109HOH     H2 6515   2.729   3.618   0.368
 2110HOH      O 6516   1.732   1.143   2.355
 2110HOH     H1 6517   1.802   1.171   2.296
 2110HOH     H2 6518   1.684   1.077   2.306
 2111HOH      O 6519   1.854   0.731   3.135
 2111HOH     H1 6520   1.818   0.808   3.090
 2111HOH     H2 6521   1.779   0.691   3.178
   4.02727   4.02727   4.02727   0.00000   0.00000   0.00000   0.00000   0.00000   0.00000
