Generated with MDTraj, t= 1804.0
 6521
    1MOL     O1    1   2.700   2.178   3.062
    1MOL     O2    2   2.669   1.968   3.085
    1MOL     N1    3   2.721   2.063   3.034
    1MOL     C1    4   2.848   2.029   2.968
    1MOL     C2    5   2.865   1.918   2.888
    1MOL     C3    6   2.960   2.106   3.000
    1MOL     C4    7   2.993   1.888   2.839
    1MOL     C5    8   3.086   2.075   2.955
    1MOL     C6    9   3.105   1.967   2.869
    1MOL     C7   10   3.001   1.767   2.755
    1MOL     O3   11   2.916   1.679   2.772
    1MOL     O4   12   3.085   1.756   2.669
    1MOL     H1   13   2.786   1.844   2.876
    1MOL     H2   14   2.951   2.189   3.069
    1MOL     H3   15   3.170   2.138   2.981
    1MOL     H4   16   3.203   1.945   2.828
    2OCB     C1   17   3.238   3.236   3.630
    2OCB     C2   18   3.245   3.270   3.352
    2OCB     C3   19   3.152   3.324   3.572
    2OCB     C4   20   3.313   3.150   3.543
    2OCB     C5   21   3.324   3.172   3.408
    2OCB     C6   22   3.158   3.343   3.432
    2OCB     O1   23   3.245   3.269   3.217
    2OCB     C7   24   3.064   3.442   3.366
    2OCB     C8   25   3.129   3.210   3.149
    2OCB     O2   26   3.018   3.296   3.125
    2OCB     C9   27   2.917   3.303   3.221
    2OCB    C10   28   2.932   3.369   3.343
    2OCB    C11   29   2.825   3.355   3.431
    2OCB    C12   30   2.799   3.231   3.185
    2OCB    C13   31   2.709   3.292   3.403
    2OCB    C14   32   2.692   3.232   3.276
    2OCB     O3   33   2.586   3.153   3.241
    2OCB    C15   34   2.591   3.295   3.501
    2OCB    C16   35   2.602   3.174   3.598
    2OCB    C17   36   2.547   3.053   3.550
    2OCB    C18   37   2.584   3.020   3.310
    2OCB     O4   38   2.497   3.035   3.428
    2OCB     O5   39   3.382   3.040   3.592
    2OCB    C19   40   3.237   3.217   3.778
    2OCB    C20   41   3.139   3.108   3.826
    2OCB     O6   42   3.293   2.926   3.774
    2OCB    C21   43   3.175   2.974   3.827
    2OCB    C22   44   2.566   2.944   3.628
    2OCB    C23   45   2.637   2.949   3.747
    2OCB    C24   46   3.081   2.879   3.862
    2OCB    C25   47   2.957   2.916   3.902
    2OCB     O7   48   2.658   2.830   3.805
    2OCB     O8   49   2.865   2.809   3.923
    2OCB    C26   50   2.792   2.775   3.801
    2OCB    C27   51   3.006   3.143   3.858
    2OCB    C28   52   2.915   3.048   3.902
    2OCB    C29   53   2.668   3.182   3.718
    2OCB    C30   54   2.768   3.080   3.923
    2OCB    C31   55   2.690   3.067   3.791
    2OCB    C32   56   3.301   2.926   3.634
    2OCB    C33   57   2.568   3.436   3.568
    2OCB    C34   58   2.444   3.436   3.655
    2OCB    C35   59   2.416   3.574   3.710
    2OCB     O9   60   2.470   3.622   3.805
    2OCB    C36   61   3.035   3.576   3.443
    2OCB    C37   62   2.960   3.684   3.356
    2OCB    C38   63   2.971   3.816   3.422
    2OCB    O10   64   3.068   3.888   3.397
    2OCB    C39   65   3.247   3.342   3.872
    2OCB    C40   66   3.376   3.421   3.856
    2OCB    C41   67   3.366   3.553   3.933
    2OCB    O11   68   3.425   3.558   4.041
    2OCB    C42   69   2.743   3.208   4.011
    2OCB    C43   70   2.593   3.230   4.042
    2OCB    C44   71   2.527   3.097   4.100
    2OCB    O12   72   2.579   3.026   4.184
    2OCB    C45   73   3.162   3.147   3.016
    2OCB    C46   74   3.237   3.004   2.789
    2OCB    C47   75   3.065   3.126   2.918
    2OCB    C48   76   3.288   3.090   3.006
    2OCB    C49   77   3.324   3.021   2.896
    2OCB    C50   78   3.105   3.057   2.804
    2OCB    C51   79   3.367   2.800   3.574
    2OCB    C52   80   3.478   2.573   3.461
    2OCB    C53   81   3.361   2.681   3.643
    2OCB    C54   82   3.420   2.805   3.447
    2OCB    C55   83   3.473   2.687   3.387
    2OCB    C56   84   3.413   2.564   3.585
    2OCB    C57   85   2.782   2.621   3.785
    2OCB    C58   86   2.795   2.344   3.741
    2OCB    C59   87   2.693   2.556   3.695
    2OCB    C60   88   2.880   2.541   3.848
    2OCB    C61   89   2.882   2.402   3.826
    2OCB    C62   90   2.695   2.422   3.678
    2OCB    C63   91   2.544   2.913   3.209
    2OCB    C64   92   2.495   2.704   3.028
    2OCB    C65   93   2.485   2.794   3.253
    2OCB    C66   94   2.579   2.929   3.069
    2OCB    C67   95   2.555   2.824   2.980
    2OCB    C68   96   2.458   2.695   3.164
    2OCB    O13   97   3.522   2.674   3.255
    2OCB    O14   98   2.994   2.331   3.870
    2OCB    O15   99   2.615   2.363   3.583
    2OCB    O16  100   3.451   2.973   2.879
    2OCB    O17  101   3.005   3.033   2.704
    2OCB    O18  102   2.393   2.578   3.203
    2OCB    O19  103   2.596   2.821   2.850
    2OCB    C69  104   3.122   2.373   3.873
    2OCB    C70  105   3.392   2.417   3.890
    2OCB    C71  106   3.193   2.397   3.756
    2OCB    C72  107   3.183   2.372   3.996
    2OCB    C73  108   3.322   2.395   4.006
    2OCB    C74  109   3.333   2.415   3.769
    2OCB    O20  110   3.415   2.442   3.657
    2OCB    C75  111   3.530   2.927   2.990
    2OCB    C76  112   3.682   2.851   3.216
    2OCB    C77  113   3.648   2.996   3.030
    2OCB    C78  114   3.491   2.817   3.071
    2OCB    C79  115   3.562   2.786   3.186
    2OCB    C80  116   3.726   2.961   3.142
    2OCB    C81  117   2.502   2.424   3.525
    2OCB    C82  118   2.277   2.562   3.411
    2OCB    C83  119   2.383   2.449   3.595
    2OCB    C84  120   2.505   2.462   3.390
    2OCB    C85  121   2.396   2.537   3.338
    2OCB    C86  122   2.278   2.524   3.545
    2OCB    C87  123   2.154   2.552   3.624
    2OCB    O21  124   2.157   2.543   3.744
    2OCB    C88  125   2.581   3.280   2.691
    2OCB    O22  126   2.642   3.375   2.650
    2OCB    C89  127   3.844   3.045   3.177
    2OCB    O23  128   3.868   3.159   3.142
    2OCB    O24  129   2.357   3.651   3.639
    2OCB    O25  130   2.423   3.056   4.050
    2OCB    O26  131   3.308   3.645   3.881
    2OCB    C90  132   3.386   2.396   4.145
    2OCB    O27  133   3.499   2.437   4.152
    2OCB    O28  134   2.462   3.286   2.716
    2OCB    O29  135   2.055   2.588   3.569
    2OCB    O30  136   3.318   2.374   4.247
    2OCB    O31  137   3.917   3.006   3.266
    2OCB    O32  138   2.874   3.854   3.488
    2OCB    C91  139   2.873   3.037   2.733
    2OCB    C92  140   2.598   3.042   2.766
    2OCB    C93  141   2.811   2.923   2.784
    2OCB    C94  142   2.801   3.156   2.702
    2OCB    C95  143   2.661   3.155   2.719
    2OCB    C96  144   2.670   2.930   2.799
    2OCB    C97  145   2.891   2.797   2.815
    2OCB    C98  146   3.369   2.732   3.035
    2OCB    C99  147   3.129   2.378   3.616
    2OCB      C  148   2.639   2.437   3.312
    2OCB     H1  149   3.075   3.378   3.628
    2OCB     H2  150   3.376   3.100   3.345
    2OCB     H3  151   3.102   3.470   3.268
    2OCB     H4  152   3.106   3.130   3.222
    2OCB     H5  153   2.843   3.389   3.533
    2OCB     H6  154   2.782   3.186   3.088
    2OCB     H7  155   2.502   3.278   3.441
    2OCB     H8  156   2.684   2.989   3.344
    2OCB     H9  157   3.336   3.177   3.801
    2OCB    H10  158   2.531   2.850   3.588
    2OCB    H11  159   3.102   2.774   3.849
    2OCB    H12  160   2.840   2.827   3.716
    2OCB    H13  161   2.980   3.248   3.851
    2OCB    H14  162   2.702   3.279   3.754
    2OCB    H15  163   2.736   3.003   3.993
    2OCB    H16  164   3.202   2.930   3.587
    2OCB    H17  165   2.661   3.454   3.622
    2OCB    H18  166   2.562   3.512   3.490
    2OCB    H19  167   2.357   3.409   3.596
    2OCB    H20  168   2.456   3.353   3.726
    2OCB    H21  169   3.132   3.619   3.471
    2OCB    H22  170   2.981   3.564   3.537
    2OCB    H23  171   3.006   3.686   3.256
    2OCB    H24  172   2.855   3.662   3.335
    2OCB    H25  173   3.162   3.408   3.857
    2OCB    H26  174   3.238   3.310   3.976
    2OCB    H27  175   3.459   3.364   3.900
    2OCB    H28  176   3.380   3.451   3.752
    2OCB    H29  177   2.794   3.197   4.107
    2OCB    H30  178   2.771   3.302   3.963
    2OCB    H31  179   2.585   3.301   4.124
    2OCB    H32  180   2.537   3.272   3.958
    2OCB    H33  181   3.272   2.964   2.694
    2OCB    H34  182   2.961   3.153   2.930
    2OCB    H35  183   3.355   3.088   3.092
    2OCB    H36  184   3.517   2.478   3.423
    2OCB    H37  185   3.323   2.682   3.745
    2OCB    H38  186   3.413   2.891   3.380
    2OCB    H39  187   2.805   2.238   3.721
    2OCB    H40  188   2.617   2.616   3.645
    2OCB    H41  189   2.955   2.575   3.920
    2OCB    H42  190   2.483   2.619   2.962
    2OCB    H43  191   2.457   2.784   3.357
    2OCB    H44  192   2.615   3.026   3.035
    2OCB    H45  193   3.499   2.435   3.892
    2OCB    H46  194   3.119   2.346   4.079
    2OCB    H47  195   3.733   2.819   3.307
    2OCB    H48  196   3.686   3.083   2.977
    2OCB    H49  197   2.192   2.616   3.370
    2OCB    H50  198   2.374   2.403   3.693
    2OCB    H51  199   2.490   3.039   2.778
    2OCB    H52  200   2.849   3.248   2.668
    2OCB    H53  201   2.995   2.829   2.824
    2OCB    H54  202   2.856   2.739   2.901
    2OCB    H55  203   2.878   2.732   2.728
    2OCB    H56  204   3.285   2.748   3.103
    2OCB    H57  205   3.323   2.750   2.937
    2OCB    H58  206   3.394   2.626   3.033
    2OCB    H59  207   3.055   2.457   3.605
    2OCB    H60  208   3.193   2.374   3.528
    2OCB    H61  209   3.052   2.301   3.616
    2OCB    H62  210   2.678   2.337   3.336
    2OCB    H63  211   2.618   2.448   3.206
    2OCB    H64  212   2.717   2.510   3.337
    3Na+    Na+  213   1.990   1.748   3.109
    4Na+    Na+  214   0.888   1.032   2.247
    5Na+    Na+  215   0.937   3.773   1.822
    6Na+    Na+  216   3.042   0.240   3.623
    7Na+    Na+  217   0.353   2.796   3.590
    8Na+    Na+  218   2.729   1.151   3.810
    9Na+    Na+  219   3.411   3.816   3.775
   10Na+    Na+  220   2.414   2.882   0.191
   11Na+    Na+  221   1.421   3.207   3.162
   12HOH      O  222   0.497   1.326   1.242
   12HOH     H1  223   0.549   1.283   1.173
   12HOH     H2  224   0.559   1.338   1.314
   13HOH      O  225   3.512   3.772   0.392
   13HOH     H1  226   3.469   3.789   0.308
   13HOH     H2  227   3.595   3.730   0.369
   14HOH      O  228   3.631   2.558   2.379
   14HOH     H1  229   3.539   2.573   2.357
   14HOH     H2  230   3.679   2.622   2.325
   15HOH      O  231   2.411   0.853   2.589
   15HOH     H1  232   2.408   0.938   2.633
   15HOH     H2  233   2.495   0.853   2.543
   16HOH      O  234   1.315   0.482   3.125
   16HOH     H1  235   1.298   0.459   3.216
   16HOH     H2  236   1.238   0.533   3.099
   17HOH      O  237   0.429   1.939   3.002
   17HOH     H1  238   0.426   1.922   3.096
   17HOH     H2  239   0.388   2.026   2.992
   18HOH      O  240   1.557   2.592   0.143
   18HOH     H1  241   1.628   2.573   0.204
   18HOH     H2  242   1.589   2.665   0.090
   19HOH      O  243   3.057   1.576   1.295
   19HOH     H1  244   2.979   1.554   1.347
   19HOH     H2  245   3.111   1.496   1.299
   20HOH      O  246   2.234   2.541   1.082
   20HOH     H1  247   2.187   2.580   1.008
   20HOH     H2  248   2.288   2.473   1.042
   21HOH      O  249   2.400   3.171   1.042
   21HOH     H1  250   2.386   3.079   1.018
   21HOH     H2  251   2.342   3.186   1.116
   22HOH      O  252   1.268   3.628   0.930
   22HOH     H1  253   1.202   3.593   0.990
   22HOH     H2  254   1.331   3.558   0.919
   23HOH      O  255   2.550   0.090   3.578
   23HOH     H1  256   2.546  -0.001   3.607
   23HOH     H2  257   2.480   0.098   3.514
   24HOH      O  258   0.770   2.781   2.116
   24HOH     H1  259   0.712   2.812   2.186
   24HOH     H2  260   0.747   2.688   2.105
   25HOH      O  261   1.895   2.386   2.256
   25HOH     H1  262   1.958   2.444   2.300
   25HOH     H2  263   1.942   2.303   2.246
   26HOH      O  264   3.503   3.577   1.481
   26HOH     H1  265   3.506   3.534   1.566
   26HOH     H2  266   3.468   3.665   1.500
   27HOH      O  267   3.466   2.749   4.004
   27HOH     H1  268   3.474   2.658   4.031
   27HOH     H2  269   3.373   2.769   4.018
   28HOH      O  270   3.754   2.348   0.053
   28HOH     H1  271   3.730   2.379  -0.034
   28HOH     H2  272   3.671   2.346   0.101
   29HOH      O  273   3.544   2.719   0.999
   29HOH     H1  274   3.501   2.678   1.074
   29HOH     H2  275   3.633   2.737   1.029
   30HOH      O  276   0.833   3.002   2.930
   30HOH     H1  277   0.767   3.040   2.871
   30HOH     H2  278   0.830   3.058   3.008
   31HOH      O  279   0.068   0.865   2.604
   31HOH     H1  280   0.005   0.875   2.675
   31HOH     H2  281   0.017   0.886   2.525
   32HOH      O  282   2.870   3.463   0.139
   32HOH     H1  283   2.779   3.489   0.123
   32HOH     H2  284   2.922   3.539   0.112
   33HOH      O  285   3.608   0.050   2.106
   33HOH     H1  286   3.656   0.079   2.029
   33HOH     H2  287   3.676   0.026   2.169
   34HOH      O  288   1.718   3.740   3.788
   34HOH     H1  289   1.706   3.686   3.710
   34HOH     H2  290   1.802   3.784   3.774
   35HOH      O  291   1.191   2.541   3.991
   35HOH     H1  292   1.237   2.505   4.067
   35HOH     H2  293   1.099   2.543   4.017
   36HOH      O  294   3.260   0.672   2.111
   36HOH     H1  295   3.313   0.592   2.108
   36HOH     H2  296   3.174   0.645   2.081
   37HOH      O  297   3.915   0.862   0.906
   37HOH     H1  298   3.933   0.772   0.935
   37HOH     H2  299   3.998   0.908   0.916
   38HOH      O  300   2.678   1.714   3.370
   38HOH     H1  301   2.594   1.728   3.326
   38HOH     H2  302   2.736   1.681   3.302
   39HOH      O  303   2.007   3.100   0.455
   39HOH     H1  304   1.932   3.153   0.483
   39HOH     H2  305   1.968   3.016   0.428
   40HOH      O  306   2.072   0.124   0.257
   40HOH     H1  307   2.164   0.136   0.282
   40HOH     H2  308   2.043   0.211   0.231
   41HOH      O  309   3.954   0.876   1.328
   41HOH     H1  310   3.963   0.971   1.322
   41HOH     H2  311   3.862   0.860   1.308
   42HOH      O  312   0.385   3.346   3.892
   42HOH     H1  313   0.384   3.387   3.978
   42HOH     H2  314   0.469   3.300   3.889
   43HOH      O  315   1.030   3.930   2.029
   43HOH     H1  316   1.014   3.906   2.120
   43HOH     H2  317   0.984   4.013   2.018
   44HOH      O  318   3.721   3.905   3.542
   44HOH     H1  319   3.677   3.820   3.528
   44HOH     H2  320   3.794   3.885   3.600
   45HOH      O  321   1.100   0.566   1.295
   45HOH     H1  322   1.009   0.579   1.267
   45HOH     H2  323   1.111   0.471   1.300
   46HOH      O  324   1.450   1.695   0.520
   46HOH     H1  325   1.422   1.642   0.446
   46HOH     H2  326   1.491   1.772   0.480
   47HOH      O  327   3.000   3.113   1.407
   47HOH     H1  328   3.057   3.067   1.469
   47HOH     H2  329   2.950   3.043   1.365
   48HOH      O  330   1.189   1.529   3.417
   48HOH     H1  331   1.161   1.438   3.411
   48HOH     H2  332   1.243   1.543   3.340
   49HOH      O  333   2.527   1.213   3.928
   49HOH     H1  334   2.511   1.238   4.019
   49HOH     H2  335   2.447   1.166   3.901
   50HOH      O  336   3.583   1.794   2.604
   50HOH     H1  337   3.620   1.879   2.578
   50HOH     H2  338   3.493   1.798   2.573
   51HOH      O  339   3.211   2.057   3.382
   51HOH     H1  340   3.191   2.037   3.473
   51HOH     H2  341   3.174   1.984   3.332
   52HOH      O  342   0.736   3.775   1.958
   52HOH     H1  343   0.674   3.708   1.928
   52HOH     H2  344   0.682   3.838   2.004
   53HOH      O  345   1.160   1.878   1.606
   53HOH     H1  346   1.107   1.930   1.545
   53HOH     H2  347   1.221   1.941   1.645
   54HOH      O  348   3.579   0.468   0.174
   54HOH     H1  349   3.652   0.406   0.160
   54HOH     H2  350   3.533   0.469   0.091
   55HOH      O  351   1.714   0.603   1.217
   55HOH     H1  352   1.623   0.631   1.223
   55HOH     H2  353   1.709   0.511   1.191
   56HOH      O  354   1.969   2.931   0.236
   56HOH     H1  355   1.896   2.983   0.202
   56HOH     H2  356   1.952   2.842   0.202
   57HOH      O  357   2.975   2.232   0.753
   57HOH     H1  358   3.022   2.153   0.727
   57HOH     H2  359   3.030   2.304   0.723
   58HOH      O  360   0.196   3.794   2.283
   58HOH     H1  361   0.215   3.793   2.189
   58HOH     H2  362   0.280   3.776   2.325
   59HOH      O  363   0.824   2.676   3.355
   59HOH     H1  364   0.840   2.715   3.269
   59HOH     H2  365   0.758   2.733   3.395
   60HOH      O  366   2.281   2.420   1.684
   60HOH     H1  367   2.302   2.484   1.753
   60HOH     H2  368   2.317   2.459   1.604
   61HOH      O  369   3.639   1.691   0.344
   61HOH     H1  370   3.582   1.750   0.394
   61HOH     H2  371   3.605   1.604   0.363
   62HOH      O  372   0.708   2.902   0.463
   62HOH     H1  373   0.659   2.971   0.508
   62HOH     H2  374   0.798   2.932   0.463
   63HOH      O  375   3.070   0.479   0.949
   63HOH     H1  376   3.143   0.490   0.887
   63HOH     H2  377   3.005   0.543   0.920
   64HOH      O  378   1.176   0.538   3.626
   64HOH     H1  379   1.252   0.530   3.684
   64HOH     H2  380   1.107   0.487   3.669
   65HOH      O  381   0.512   1.665   0.994
   65HOH     H1  382   0.446   1.598   0.983
   65HOH     H2  383   0.594   1.624   0.966
   66HOH      O  384   0.242   2.118   3.142
   66HOH     H1  385   0.202   2.042   3.100
   66HOH     H2  386   0.173   2.152   3.200
   67HOH      O  387   3.485   0.565   2.476
   67HOH     H1  388   3.491   0.618   2.397
   67HOH     H2  389   3.507   0.476   2.447
   68HOH      O  390   3.972   1.574   1.495
   68HOH     H1  391   3.980   1.595   1.402
   68HOH     H2  392   4.043   1.622   1.537
   69HOH      O  393   1.205   1.811   0.594
   69HOH     H1  394   1.237   1.901   0.595
   69HOH     H2  395   1.284   1.758   0.583
   70HOH      O  396   2.122   1.705   0.067
   70HOH     H1  397   2.130   1.789   0.112
   70HOH     H2  398   2.163   1.720  -0.018
   71HOH      O  399   2.864   3.501   3.782
   71HOH     H1  400   2.830   3.589   3.765
   71HOH     H2  401   2.953   3.515   3.813
   72HOH      O  402   3.397   0.597   3.021
   72HOH     H1  403   3.425   0.687   3.038
   72HOH     H2  404   3.392   0.592   2.925
   73HOH      O  405   1.701   2.474   3.416
   73HOH     H1  406   1.718   2.435   3.501
   73HOH     H2  407   1.724   2.406   3.353
   74HOH      O  408   0.685   3.111   1.007
   74HOH     H1  409   0.721   3.042   1.063
   74HOH     H2  410   0.761   3.165   0.985
   75HOH      O  411   2.088   0.844   3.961
   75HOH     H1  412   2.097   0.765   4.014
   75HOH     H2  413   2.134   0.823   3.880
   76HOH      O  414   3.438   0.169   2.703
   76HOH     H1  415   3.350   0.155   2.737
   76HOH     H2  416   3.482   0.085   2.715
   77HOH      O  417   1.328   3.758   1.577
   77HOH     H1  418   1.351   3.726   1.664
   77HOH     H2  419   1.307   3.850   1.590
   78HOH      O  420   0.735   0.490   3.785
   78HOH     H1  421   0.712   0.550   3.714
   78HOH     H2  422   0.713   0.404   3.751
   79HOH      O  423   1.664   3.761   1.025
   79HOH     H1  424   1.746   3.805   0.999
   79HOH     H2  425   1.677   3.670   0.997
   80HOH      O  426   3.814   0.104   2.558
   80HOH     H1  427   3.909   0.115   2.562
   80HOH     H2  428   3.786   0.110   2.650
   81HOH      O  429   1.874   2.821   0.594
   81HOH     H1  430   1.906   2.751   0.537
   81HOH     H2  431   1.780   2.826   0.575
   82HOH      O  432   0.564   2.100   1.296
   82HOH     H1  433   0.564   2.007   1.274
   82HOH     H2  434   0.635   2.110   1.359
   83HOH      O  435   2.099   1.840   0.538
   83HOH     H1  436   2.013   1.843   0.578
   83HOH     H2  437   2.096   1.764   0.480
   84HOH      O  438   0.916   3.613   2.708
   84HOH     H1  439   0.875   3.700   2.704
   84HOH     H2  440   0.882   3.567   2.632
   85HOH      O  441   3.315   1.717   2.844
   85HOH     H1  442   3.239   1.708   2.785
   85HOH     H2  443   3.285   1.679   2.927
   86HOH      O  444   2.164   2.329   0.643
   86HOH     H1  445   2.144   2.278   0.564
   86HOH     H2  446   2.236   2.282   0.684
   87HOH      O  447   2.448   2.182   0.663
   87HOH     H1  448   2.523   2.168   0.721
   87HOH     H2  449   2.395   2.103   0.672
   88HOH      O  450   2.852   1.349   3.853
   88HOH     H1  451   2.921   1.367   3.789
   88HOH     H2  452   2.892   1.368   3.938
   89HOH      O  453   1.013   0.264   3.997
   89HOH     H1  454   1.085   0.293   4.052
   89HOH     H2  455   1.038   0.176   3.969
   90HOH      O  456   0.600   0.606   1.204
   90HOH     H1  457   0.524   0.627   1.149
   90HOH     H2  458   0.585   0.516   1.232
   91HOH      O  459   1.963   2.165   1.920
   91HOH     H1  460   1.961   2.258   1.944
   91HOH     H2  461   2.029   2.159   1.851
   92HOH      O  462   3.678   1.345   3.396
   92HOH     H1  463   3.647   1.373   3.309
   92HOH     H2  464   3.637   1.407   3.457
   93HOH      O  465   1.124   3.871   2.943
   93HOH     H1  466   1.205   3.906   2.980
   93HOH     H2  467   1.057   3.934   2.969
   94HOH      O  468   0.571   1.919   2.528
   94HOH     H1  469   0.609   1.887   2.609
   94HOH     H2  470   0.489   1.960   2.555
   95HOH      O  471   2.357   1.242   2.439
   95HOH     H1  472   2.418   1.271   2.372
   95HOH     H2  473   2.275   1.286   2.417
   96HOH      O  474   1.609   0.756   2.037
   96HOH     H1  475   1.676   0.776   1.972
   96HOH     H2  476   1.558   0.685   1.998
   97HOH      O  477   1.089   0.179   3.455
   97HOH     H1  478   1.080   0.209   3.365
   97HOH     H2  479   1.028   0.233   3.505
   98HOH      O  480   1.637   0.112   3.060
   98HOH     H1  481   1.609   0.149   2.977
   98HOH     H2  482   1.603   0.172   3.126
   99HOH      O  483   0.830   2.741   1.730
   99HOH     H1  484   0.803   2.831   1.750
   99HOH     H2  485   0.751   2.688   1.744
  100HOH      O  486   0.989   1.133   1.514
  100HOH     H1  487   1.006   1.186   1.436
  100HOH     H2  488   1.012   1.190   1.587
  101HOH      O  489   1.253   0.044   1.188
  101HOH     H1  490   1.213   0.030   1.103
  101HOH     H2  491   1.330  -0.013   1.188
  102HOH      O  492   2.516   1.424   3.243
  102HOH     H1  493   2.493   1.501   3.190
  102HOH     H2  494   2.566   1.368   3.184
  103HOH      O  495   2.846   0.333   0.624
  103HOH     H1  496   2.805   0.409   0.664
  103HOH     H2  497   2.789   0.260   0.647
  104HOH      O  498   3.351   0.496   0.819
  104HOH     H1  499   3.315   0.452   0.742
  104HOH     H2  500   3.379   0.425   0.877
  105HOH      O  501   2.979   2.022   2.006
  105HOH     H1  502   3.034   1.953   2.044
  105HOH     H2  503   2.891   2.004   2.039
  106HOH      O  504   2.919   0.908   3.286
  106HOH     H1  505   2.912   1.004   3.288
  106HOH     H2  506   2.829   0.877   3.288
  107HOH      O  507   2.461   1.720   2.386
  107HOH     H1  508   2.421   1.649   2.336
  107HOH     H2  509   2.545   1.735   2.344
  108HOH      O  510   3.257   1.396   0.115
  108HOH     H1  511   3.258   1.357   0.202
  108HOH     H2  512   3.302   1.332   0.060
  109HOH      O  513   1.259   1.592   3.866
  109HOH     H1  514   1.172   1.623   3.839
  109HOH     H2  515   1.248   1.568   3.958
  110HOH      O  516   1.368   3.422   3.098
  110HOH     H1  517   1.348   3.459   3.013
  110HOH     H2  518   1.412   3.493   3.145
  111HOH      O  519   2.108   3.395   1.464
  111HOH     H1  520   2.144   3.479   1.437
  111HOH     H2  521   2.042   3.375   1.398
  112HOH      O  522   1.231   3.697   3.284
  112HOH     H1  523   1.183   3.615   3.293
  112HOH     H2  524   1.167   3.758   3.247
  113HOH      O  525   2.158   2.188   1.709
  113HOH     H1  526   2.213   2.266   1.702
  113HOH     H2  527   2.096   2.196   1.637
  114HOH      O  528   1.519   2.803   2.767
  114HOH     H1  529   1.428   2.782   2.789
  114HOH     H2  530   1.537   2.752   2.688
  115HOH      O  531   2.659   0.278   3.756
  115HOH     H1  532   2.606   0.242   3.685
  115HOH     H2  533   2.597   0.292   3.827
  116HOH      O  534   0.798   2.303   0.921
  116HOH     H1  535   0.837   2.361   0.987
  116HOH     H2  536   0.728   2.356   0.882
  117HOH      O  537   2.898   2.483   2.387
  117HOH     H1  538   2.903   2.520   2.476
  117HOH     H2  539   2.990   2.476   2.360
  118HOH      O  540   2.140   1.555   1.135
  118HOH     H1  541   2.103   1.627   1.084
  118HOH     H2  542   2.078   1.543   1.208
  119HOH      O  543   1.173   1.467   2.143
  119HOH     H1  544   1.166   1.381   2.185
  119HOH     H2  545   1.267   1.479   2.129
  120HOH      O  546   1.401   3.080   1.661
  120HOH     H1  547   1.340   3.010   1.638
  120HOH     H2  548   1.439   3.052   1.744
  121HOH      O  549   2.747   2.573   1.794
  121HOH     H1  550   2.668   2.543   1.748
  121HOH     H2  551   2.819   2.542   1.741
  122HOH      O  552   0.066   2.436   1.376
  122HOH     H1  553   0.110   2.426   1.292
  122HOH     H2  554   0.115   2.505   1.421
  123HOH      O  555   0.882   0.454   2.780
  123HOH     H1  556   0.800   0.456   2.829
  123HOH     H2  557   0.856   0.470   2.689
  124HOH      O  558   1.255   3.734   0.688
  124HOH     H1  559   1.338   3.780   0.702
  124HOH     H2  560   1.239   3.688   0.770
  125HOH      O  561   1.595   3.766   2.111
  125HOH     H1  562   1.553   3.698   2.058
  125HOH     H2  563   1.582   3.847   2.061
  126HOH      O  564   2.835   1.247   0.657
  126HOH     H1  565   2.845   1.196   0.737
  126HOH     H2  566   2.817   1.336   0.687
  127HOH      O  567   1.844   1.370   4.047
  127HOH     H1  568   1.781   1.339   3.982
  127HOH     H2  569   1.914   1.411   3.996
  128HOH      O  570   1.063   1.006   1.230
  128HOH     H1  571   1.084   0.955   1.308
  128HOH     H2  572   1.128   0.979   1.166
  129HOH      O  573   0.916   2.736   0.998
  129HOH     H1  574   0.920   2.641   1.007
  129HOH     H2  575   0.948   2.770   1.082
  130HOH      O  576   3.933   1.729   0.375
  130HOH     H1  577   3.922   1.794   0.444
  130HOH     H2  578   3.844   1.709   0.346
  131HOH      O  579   3.181   0.426   3.604
  131HOH     H1  580   3.152   0.476   3.527
  131HOH     H2  581   3.194   0.492   3.672
  132HOH      O  582   0.960   0.714   3.983
  132HOH     H1  583   1.007   0.760   3.914
  132HOH     H2  584   1.029   0.683   4.042
  133HOH      O  585   0.990   1.863   0.069
  133HOH     H1  586   1.059   1.881   0.133
  133HOH     H2  587   0.973   1.769   0.077
  134HOH      O  588   3.450   0.838   0.149
  134HOH     H1  589   3.513   0.777   0.189
  134HOH     H2  590   3.435   0.905   0.216
  135HOH      O  591   1.274   0.017   1.552
  135HOH     H1  592   1.247   0.050   1.638
  135HOH     H2  593   1.218   0.063   1.490
  136HOH      O  594   2.491   2.371   1.297
  136HOH     H1  595   2.474   2.379   1.391
  136HOH     H2  596   2.436   2.297   1.270
  137HOH      O  597   3.736   2.502   3.849
  137HOH     H1  598   3.667   2.472   3.790
  137HOH     H2  599   3.786   2.565   3.798
  138HOH      O  600   1.852   1.668   0.278
  138HOH     H1  601   1.923   1.632   0.332
  138HOH     H2  602   1.785   1.600   0.279
  139HOH      O  603   3.311   1.066   2.868
  139HOH     H1  604   3.286   0.996   2.928
  139HOH     H2  605   3.230   1.086   2.820
  140HOH      O  606   0.363   3.521   2.676
  140HOH     H1  607   0.421   3.524   2.753
  140HOH     H2  608   0.285   3.476   2.708
  141HOH      O  609   0.561   0.994   3.954
  141HOH     H1  610   0.630   1.053   3.984
  141HOH     H2  611   0.489   1.052   3.930
  142HOH      O  612   1.985   1.172   2.502
  142HOH     H1  613   1.952   1.235   2.438
  142HOH     H2  614   2.068   1.141   2.465
  143HOH      O  615   1.633   1.007   1.903
  143HOH     H1  616   1.668   0.953   1.832
  143HOH     H2  617   1.543   1.026   1.877
  144HOH      O  618   1.906   0.647   1.428
  144HOH     H1  619   1.837   0.605   1.480
  144HOH     H2  620   1.872   0.646   1.339
  145HOH      O  621   3.783   2.318   2.220
  145HOH     H1  622   3.844   2.298   2.291
  145HOH     H2  623   3.697   2.298   2.256
  146HOH      O  624   1.562   2.515   2.216
  146HOH     H1  625   1.628   2.534   2.148
  146HOH     H2  626   1.521   2.434   2.187
  147HOH      O  627   1.172   0.897   2.619
  147HOH     H1  628   1.097   0.853   2.659
  147HOH     H2  629   1.190   0.971   2.677
  148HOH      O  630   1.094   2.035   2.753
  148HOH     H1  631   1.097   1.939   2.759
  148HOH     H2  632   1.182   2.059   2.723
  149HOH      O  633   1.728   1.961   0.806
  149HOH     H1  634   1.720   2.014   0.727
  149HOH     H2  635   1.789   1.892   0.783
  150HOH      O  636   3.189   1.791   0.158
  150HOH     H1  637   3.244   1.861   0.123
  150HOH     H2  638   3.129   1.770   0.087
  151HOH      O  639   3.739   3.181   2.756
  151HOH     H1  640   3.660   3.216   2.797
  151HOH     H2  641   3.724   3.086   2.754
  152HOH      O  642   0.582   2.354   1.968
  152HOH     H1  643   0.660   2.314   1.928
  152HOH     H2  644   0.594   2.339   2.062
  153HOH      O  645   2.310   3.122   1.528
  153HOH     H1  646   2.385   3.174   1.499
  153HOH     H2  647   2.328   3.103   1.620
  154HOH      O  648   3.135   1.088   1.065
  154HOH     H1  649   3.179   1.029   1.004
  154HOH     H2  650   3.058   1.040   1.094
  155HOH      O  651   2.659   1.034   3.133
  155HOH     H1  652   2.724   1.087   3.087
  155HOH     H2  653   2.662   1.066   3.223
  156HOH      O  654   0.008   2.491   2.590
  156HOH     H1  655  -0.005   2.560   2.655
  156HOH     H2  656   0.090   2.515   2.547
  157HOH      O  657   0.545   0.262   3.753
  157HOH     H1  658   0.499   0.248   3.670
  157HOH     H2  659   0.535   0.180   3.800
  158HOH      O  660   1.195   1.523   1.771
  158HOH     H1  661   1.263   1.547   1.834
  158HOH     H2  662   1.228   1.555   1.687
  159HOH      O  663   1.850   2.785   1.163
  159HOH     H1  664   1.940   2.816   1.168
  159HOH     H2  665   1.857   2.691   1.177
  160HOH      O  666   2.479   0.231   1.149
  160HOH     H1  667   2.396   0.184   1.142
  160HOH     H2  668   2.544   0.162   1.164
  161HOH      O  669   2.396   2.635   1.569
  161HOH     H1  670   2.486   2.643   1.536
  161HOH     H2  671   2.346   2.699   1.518
  162HOH      O  672   2.895   2.443   1.525
  162HOH     H1  673   2.845   2.363   1.541
  162HOH     H2  674   2.958   2.420   1.457
  163HOH      O  675   3.268   2.134   1.234
  163HOH     H1  676   3.310   2.154   1.150
  163HOH     H2  677   3.267   2.038   1.237
  164HOH      O  678   1.944   0.065   0.506
  164HOH     H1  679   2.000   0.118   0.450
  164HOH     H2  680   1.856   0.078   0.470
  165HOH      O  681   2.370   1.780   0.495
  165HOH     H1  682   2.279   1.811   0.492
  165HOH     H2  683   2.422   1.857   0.476
  166HOH      O  684   3.101   1.272   0.859
  166HOH     H1  685   3.111   1.200   0.921
  166HOH     H2  686   3.027   1.322   0.893
  167HOH      O  687   1.161   3.079   3.856
  167HOH     H1  688   1.227   3.011   3.840
  167HOH     H2  689   1.100   3.072   3.783
  168HOH      O  690   3.198   2.971   1.567
  168HOH     H1  691   3.291   2.961   1.550
  168HOH     H2  692   3.161   2.884   1.554
  169HOH      O  693   1.190   0.183   2.117
  169HOH     H1  694   1.259   0.223   2.063
  169HOH     H2  695   1.166   0.252   2.179
  170HOH      O  696   3.501   1.429   3.758
  170HOH     H1  697   3.549   1.430   3.841
  170HOH     H2  698   3.562   1.468   3.695
  171HOH      O  699   1.467   1.452   3.950
  171HOH     H1  700   1.551   1.491   3.927
  171HOH     H2  701   1.402   1.520   3.932
  172HOH      O  702   2.304   1.159   0.285
  172HOH     H1  703   2.209   1.158   0.270
  172HOH     H2  704   2.315   1.202   0.370
  173HOH      O  705   0.846   3.270   1.230
  173HOH     H1  706   0.832   3.347   1.174
  173HOH     H2  707   0.776   3.277   1.296
  174HOH      O  708   2.715   2.173   1.827
  174HOH     H1  709   2.798   2.222   1.827
  174HOH     H2  710   2.713   2.130   1.912
  175HOH      O  711   0.989   2.195   0.772
  175HOH     H1  712   0.917   2.242   0.814
  175HOH     H2  713   0.947   2.122   0.728
  176HOH      O  714   0.924   1.026   0.664
  176HOH     H1  715   0.916   0.949   0.720
  176HOH     H2  716   0.844   1.028   0.612
  177HOH      O  717   0.756   1.511   0.997
  177HOH     H1  718   0.778   1.452   1.069
  177HOH     H2  719   0.775   1.460   0.918
  178HOH      O  720   1.943   3.088   2.782
  178HOH     H1  721   2.028   3.129   2.772
  178HOH     H2  722   1.925   3.093   2.876
  179HOH      O  723   1.980   0.633   2.032
  179HOH     H1  724   2.064   0.641   1.987
  179HOH     H2  725   2.003   0.641   2.125
  180HOH      O  726   0.697   1.902   2.786
  180HOH     H1  727   0.768   1.849   2.823
  180HOH     H2  728   0.647   1.931   2.862
  181HOH      O  729   0.874   2.682   0.574
  181HOH     H1  730   0.864   2.592   0.542
  181HOH     H2  731   0.785   2.717   0.573
  182HOH      O  732   2.074   2.295   1.117
  182HOH     H1  733   2.133   2.223   1.096
  182HOH     H2  734   2.131   2.362   1.155
  183HOH      O  735   0.584   1.705   1.887
  183HOH     H1  736   0.608   1.795   1.863
  183HOH     H2  737   0.508   1.715   1.943
  184HOH      O  738   0.035   0.855   1.821
  184HOH     H1  739   0.119   0.832   1.861
  184HOH     H2  740   0.043   0.825   1.730
  185HOH      O  741   2.057   3.810   2.637
  185HOH     H1  742   2.106   3.810   2.720
  185HOH     H2  743   2.124   3.821   2.570
  186HOH      O  744   4.021   3.575   2.960
  186HOH     H1  745   3.991   3.486   2.944
  186HOH     H2  746   3.978   3.627   2.892
  187HOH      O  747   1.989   0.985   3.338
  187HOH     H1  748   2.043   0.966   3.415
  187HOH     H2  749   1.904   0.944   3.359
  188HOH      O  750   3.256   0.772   1.839
  188HOH     H1  751   3.179   0.807   1.884
  188HOH     H2  752   3.315   0.746   1.909
  189HOH      O  753   2.682   1.509   0.636
  189HOH     H1  754   2.772   1.539   0.650
  189HOH     H2  755   2.651   1.559   0.561
  190HOH      O  756   2.649   0.519   3.594
  190HOH     H1  757   2.707   0.456   3.638
  190HOH     H2  758   2.656   0.497   3.501
  191HOH      O  759   1.124   2.359   0.395
  191HOH     H1  760   1.111   2.277   0.347
  191HOH     H2  761   1.199   2.400   0.352
  192HOH      O  762   0.375   1.897   0.240
  192HOH     H1  763   0.326   1.829   0.194
  192HOH     H2  764   0.439   1.927   0.176
  193HOH      O  765   2.802   1.608   3.778
  193HOH     H1  766   2.765   1.527   3.813
  193HOH     H2  767   2.729   1.650   3.733
  194HOH      O  768   2.457   3.565   1.224
  194HOH     H1  769   2.485   3.494   1.166
  194HOH     H2  770   2.482   3.645   1.178
  195HOH      O  771   2.943   3.856   1.798
  195HOH     H1  772   3.018   3.828   1.744
  195HOH     H2  773   2.873   3.796   1.773
  196HOH      O  774   0.501   2.431   1.523
  196HOH     H1  775   0.423   2.447   1.577
  196HOH     H2  776   0.481   2.472   1.439
  197HOH      O  777   2.403   2.906   1.754
  197HOH     H1  778   2.328   2.950   1.795
  197HOH     H2  779   2.375   2.815   1.746
  198HOH      O  780   1.310   2.132   2.617
  198HOH     H1  781   1.251   2.207   2.605
  198HOH     H2  782   1.350   2.118   2.532
  199HOH      O  783   1.720   0.065   1.823
  199HOH     H1  784   1.711   0.161   1.824
  199HOH     H2  785   1.739   0.043   1.915
  200HOH      O  786   2.989   3.835   2.273
  200HOH     H1  787   3.008   3.869   2.185
  200HOH     H2  788   2.901   3.798   2.267
  201HOH      O  789   2.508   3.944   0.576
  201HOH     H1  790   2.572   3.905   0.636
  201HOH     H2  791   2.429   3.891   0.586
  202HOH      O  792   0.949   0.458   0.510
  202HOH     H1  793   0.906   0.448   0.425
  202HOH     H2  794   0.962   0.553   0.519
  203HOH      O  795   0.299   0.299   1.037
  203HOH     H1  796   0.345   0.303   1.121
  203HOH     H2  797   0.360   0.255   0.978
  204HOH      O  798   2.153   1.026   2.263
  204HOH     H1  799   2.191   1.010   2.349
  204HOH     H2  800   2.227   1.024   2.203
  205HOH      O  801   0.391   3.951   2.496
  205HOH     H1  802   0.343   3.901   2.562
  205HOH     H2  803   0.367   4.042   2.513
  206HOH      O  804   1.789   1.484   1.143
  206HOH     H1  805   1.803   1.512   1.233
  206HOH     H2  806   1.816   1.558   1.090
  207HOH      O  807   1.682   0.963   2.738
  207HOH     H1  808   1.695   0.870   2.757
  207HOH     H2  809   1.629   0.995   2.811
  208HOH      O  810   2.545   3.622   3.221
  208HOH     H1  811   2.617   3.578   3.175
  208HOH     H2  812   2.478   3.554   3.231
  209HOH      O  813   2.658   0.210   0.210
  209HOH     H1  814   2.688   0.194   0.121
  209HOH     H2  815   2.648   0.122   0.247
  210HOH      O  816   1.083   2.972   2.757
  210HOH     H1  817   1.086   3.015   2.843
  210HOH     H2  818   0.994   2.939   2.750
  211HOH      O  819   3.051   1.966   3.805
  211HOH     H1  820   3.122   2.012   3.850
  211HOH     H2  821   3.023   1.899   3.868
  212HOH      O  822   3.309   1.813   2.562
  212HOH     H1  823   3.228   1.798   2.612
  212HOH     H2  824   3.284   1.876   2.495
  213HOH      O  825   1.711   0.072   3.916
  213HOH     H1  826   1.641   0.014   3.945
  213HOH     H2  827   1.691   0.089   3.824
  214HOH      O  828   2.100   1.928   2.354
  214HOH     H1  829   2.181   1.976   2.336
  214HOH     H2  830   2.128   1.837   2.365
  215HOH      O  831   3.161   0.189   1.927
  215HOH     H1  832   3.228   0.164   1.990
  215HOH     H2  833   3.093   0.232   1.979
  216HOH      O  834   2.728   2.038   2.488
  216HOH     H1  835   2.768   2.062   2.404
  216HOH     H2  836   2.803   2.024   2.546
  217HOH      O  837   0.284   2.365   0.583
  217HOH     H1  838   0.218   2.404   0.525
  217HOH     H2  839   0.233   2.325   0.654
  218HOH      O  840   1.261   0.984   1.039
  218HOH     H1  841   1.332   1.048   1.046
  218HOH     H2  842   1.225   0.997   0.952
  219HOH      O  843   1.715   3.642   4.034
  219HOH     H1  844   1.704   3.680   3.947
  219HOH     H2  845   1.716   3.548   4.020
  220HOH      O  846   2.487   0.216   3.958
  220HOH     H1  847   2.437   0.224   4.039
  220HOH     H2  848   2.479   0.123   3.934
  221HOH      O  849   1.178   2.465   3.197
  221HOH     H1  850   1.229   2.537   3.161
  221HOH     H2  851   1.105   2.454   3.136
  222HOH      O  852   2.574   3.786   1.545
  222HOH     H1  853   2.634   3.765   1.473
  222HOH     H2  854   2.522   3.860   1.511
  223HOH      O  855   2.281   3.879   2.492
  223HOH     H1  856   2.369   3.894   2.527
  223HOH     H2  857   2.270   3.949   2.427
  224HOH      O  858   3.634   3.445   0.937
  224HOH     H1  859   3.705   3.451   1.002
  224HOH     H2  860   3.600   3.357   0.947
  225HOH      O  861   1.454   3.941   0.751
  225HOH     H1  862   1.485   3.987   0.829
  225HOH     H2  863   1.370   3.983   0.730
  226HOH      O  864   2.884   3.279   0.315
  226HOH     H1  865   2.890   3.330   0.235
  226HOH     H2  866   2.790   3.273   0.333
  227HOH      O  867   1.036   1.393   0.203
  227HOH     H1  868   1.118   1.433   0.172
  227HOH     H2  869   0.967   1.449   0.168
  228HOH      O  870   3.549   0.905   2.802
  228HOH     H1  871   3.474   0.937   2.852
  228HOH     H2  872   3.513   0.887   2.715
  229HOH      O  873   1.039   2.892   1.204
  229HOH     H1  874   1.086   2.973   1.184
  229HOH     H2  875   1.107   2.831   1.232
  230HOH      O  876   1.995   1.333   0.558
  230HOH     H1  877   2.006   1.239   0.552
  230HOH     H2  878   1.900   1.346   0.555
  231HOH      O  879   1.708   3.263   2.686
  231HOH     H1  880   1.695   3.313   2.766
  231HOH     H2  881   1.778   3.202   2.708
  232HOH      O  882  -0.026   0.610   0.977
  232HOH     H1  883   0.059   0.599   0.934
  232HOH     H2  884  -0.004   0.632   1.068
  233HOH      O  885   3.073   3.662   4.011
  233HOH     H1  886   3.152   3.654   3.958
  233HOH     H2  887   3.097   3.625   4.096
  234HOH      O  888   3.818   2.780   1.031
  234HOH     H1  889   3.881   2.718   0.995
  234HOH     H2  890   3.868   2.860   1.045
  235HOH      O  891   0.644   2.397   1.223
  235HOH     H1  892   0.556   2.412   1.191
  235HOH     H2  893   0.637   2.320   1.280
  236HOH      O  894   3.034   2.804   0.517
  236HOH     H1  895   3.012   2.895   0.535
  236HOH     H2  896   3.125   2.794   0.546
  237HOH      O  897   2.292   1.000   3.305
  237HOH     H1  898   2.204   0.991   3.341
  237HOH     H2  899   2.317   0.910   3.281
  238HOH      O  900   1.839   1.950   3.124
  238HOH     H1  901   1.794   2.010   3.064
  238HOH     H2  902   1.850   2.000   3.205
  239HOH      O  903   2.064   2.744   1.678
  239HOH     H1  904   2.150   2.765   1.641
  239HOH     H2  905   2.057   2.800   1.755
  240HOH      O  906   1.553   1.596   3.427
  240HOH     H1  907   1.504   1.572   3.507
  240HOH     H2  908   1.590   1.514   3.397
  241HOH      O  909   2.611   3.795   3.411
  241HOH     H1  910   2.608   3.708   3.371
  241HOH     H2  911   2.701   3.804   3.442
  242HOH      O  912   3.032   3.758   1.023
  242HOH     H1  913   3.113   3.793   0.985
  242HOH     H2  914   3.026   3.669   0.988
  243HOH      O  915   1.784   3.541   3.197
  243HOH     H1  916   1.734   3.611   3.156
  243HOH     H2  917   1.825   3.495   3.123
  244HOH      O  918   1.654   2.966   3.528
  244HOH     H1  919   1.661   2.870   3.525
  244HOH     H2  920   1.707   2.991   3.605
  245HOH      O  921   1.544   2.218   1.757
  245HOH     H1  922   1.608   2.148   1.759
  245HOH     H2  923   1.596   2.298   1.748
  246HOH      O  924   0.097   3.054   0.826
  246HOH     H1  925   0.033   3.075   0.894
  246HOH     H2  926   0.138   2.972   0.856
  247HOH      O  927   1.362   2.047   2.330
  247HOH     H1  928   1.361   1.954   2.308
  247HOH     H2  929   1.394   2.090   2.251
  248HOH      O  930   3.299   2.507   0.479
  248HOH     H1  931   3.320   2.445   0.409
  248HOH     H2  932   3.342   2.589   0.453
  249HOH      O  933   1.539   0.170   2.834
  249HOH     H1  934   1.583   0.107   2.776
  249HOH     H2  935   1.450   0.175   2.799
  250HOH      O  936   0.156   1.353   2.170
  250HOH     H1  937   0.148   1.448   2.159
  250HOH     H2  938   0.073   1.327   2.209
  251HOH      O  939   1.412   3.674   1.828
  251HOH     H1  940   1.406   3.626   1.911
  251HOH     H2  941   1.506   3.684   1.812
  252HOH      O  942   3.363   2.011   0.051
  252HOH     H1  943   3.350   2.040  -0.039
  252HOH     H2  944   3.455   1.987   0.056
  253HOH      O  945   1.449   2.236   0.982
  253HOH     H1  946   1.406   2.256   1.066
  253HOH     H2  947   1.379   2.203   0.927
  254HOH      O  948   3.224   2.348   1.937
  254HOH     H1  949   3.225   2.433   1.892
  254HOH     H2  950   3.230   2.284   1.866
  255HOH      O  951   2.640   3.586   0.424
  255HOH     H1  952   2.731   3.592   0.453
  255HOH     H2  953   2.597   3.531   0.490
  256HOH      O  954   3.772   0.960   3.017
  256HOH     H1  955   3.708   0.919   2.959
  256HOH     H2  956   3.720   0.990   3.092
  257HOH      O  957   2.782   3.590   2.775
  257HOH     H1  958   2.747   3.527   2.711
  257HOH     H2  959   2.874   3.565   2.785
  258HOH      O  960   2.878   2.213   2.313
  258HOH     H1  961   2.918   2.223   2.227
  258HOH     H2  962   2.890   2.298   2.355
  259HOH      O  963   2.374   3.641   1.869
  259HOH     H1  964   2.290   3.678   1.841
  259HOH     H2  965   2.412   3.709   1.924
  260HOH      O  966   2.668   2.585   2.218
  260HOH     H1  967   2.688   2.526   2.145
  260HOH     H2  968   2.747   2.582   2.273
  261HOH      O  969   1.851   3.221   3.079
  261HOH     H1  970   1.867   3.211   3.172
  261HOH     H2  971   1.916   3.284   3.049
  262HOH      O  972   0.071   0.834   0.497
  262HOH     H1  973   0.161   0.857   0.520
  262HOH     H2  974   0.079   0.754   0.445
  263HOH      O  975   0.995   1.657   3.847
  263HOH     H1  976   1.028   1.747   3.841
  263HOH     H2  977   0.914   1.657   3.795
  264HOH      O  978   0.255   2.802   1.925
  264HOH     H1  979   0.209   2.730   1.968
  264HOH     H2  980   0.206   2.817   1.844
  265HOH      O  981   1.879   3.035   0.771
  265HOH     H1  982   1.886   2.964   0.707
  265HOH     H2  983   1.797   3.017   0.817
  266HOH      O  984   1.861   0.722   2.350
  266HOH     H1  985   1.793   0.686   2.293
  266HOH     H2  986   1.875   0.655   2.416
  267HOH      O  987   0.713   4.046   2.305
  267HOH     H1  988   0.645   3.980   2.315
  267HOH     H2  989   0.795   4.001   2.327
  268HOH      O  990   1.517   0.317   3.191
  268HOH     H1  991   1.577   0.367   3.246
  268HOH     H2  992   1.452   0.381   3.162
  269HOH      O  993   3.419   1.007   0.383
  269HOH     H1  994   3.482   1.029   0.452
  269HOH     H2  995   3.376   0.927   0.414
  270HOH      O  996   2.306   3.642   0.868
  270HOH     H1  997   2.399   3.639   0.892
  270HOH     H2  998   2.305   3.668   0.776
  271HOH      O  999   0.301   0.519   0.235
  271HOH     H1 1000   0.350   0.472   0.167
  271HOH     H2 1001   0.357   0.594   0.256
  272HOH      O 1002   0.151   3.096   1.614
  272HOH     H1 1003   0.231   3.146   1.597
  272HOH     H2 1004   0.096   3.156   1.665
  273HOH      O 1005   2.846   2.170   1.409
  273HOH     H1 1006   2.840   2.083   1.449
  273HOH     H2 1007   2.780   2.168   1.339
  274HOH      O 1008   2.577   1.427   0.894
  274HOH     H1 1009   2.597   1.466   0.809
  274HOH     H2 1010   2.482   1.418   0.895
  275HOH      O 1011   0.286   1.368   3.391
  275HOH     H1 1012   0.261   1.351   3.482
  275HOH     H2 1013   0.364   1.314   3.378
  276HOH      O 1014   1.378   3.210   2.057
  276HOH     H1 1015   1.371   3.241   2.147
  276HOH     H2 1016   1.377   3.115   2.064
  277HOH      O 1017   2.163   0.511   2.717
  277HOH     H1 1018   2.230   0.530   2.651
  277HOH     H2 1019   2.134   0.598   2.747
  278HOH      O 1020   0.458   3.318   3.004
  278HOH     H1 1021   0.500   3.403   2.991
  278HOH     H2 1022   0.447   3.283   2.916
  279HOH      O 1023   3.830   1.942   3.373
  279HOH     H1 1024   3.804   1.928   3.464
  279HOH     H2 1025   3.832   1.854   3.335
  280HOH      O 1026   2.846   0.596   3.185
  280HOH     H1 1027   2.918   0.658   3.194
  280HOH     H2 1028   2.772   0.650   3.156
  281HOH      O 1029   0.194   1.272   0.378
  281HOH     H1 1030   0.268   1.265   0.438
  281HOH     H2 1031   0.142   1.344   0.413
  282HOH      O 1032   2.989   1.778   2.434
  282HOH     H1 1033   3.043   1.847   2.398
  282HOH     H2 1034   3.026   1.761   2.520
  283HOH      O 1035   1.260   0.824   0.789
  283HOH     H1 1036   1.166   0.812   0.776
  283HOH     H2 1037   1.292   0.858   0.706
  284HOH      O 1038   2.865   0.197   1.990
  284HOH     H1 1039   2.796   0.151   2.038
  284HOH     H2 1040   2.826   0.217   1.905
  285HOH      O 1041   2.931   0.785   3.594
  285HOH     H1 1042   2.921   0.759   3.502
  285HOH     H2 1043   2.885   0.717   3.644
  286HOH      O 1044   3.695   3.111   1.914
  286HOH     H1 1045   3.619   3.095   1.857
  286HOH     H2 1046   3.678   3.197   1.953
  287HOH      O 1047   1.455   2.907   1.007
  287HOH     H1 1048   1.362   2.891   0.989
  287HOH     H2 1049   1.456   2.938   1.097
  288HOH      O 1050   1.437   3.138   0.812
  288HOH     H1 1051   1.420   3.085   0.734
  288HOH     H2 1052   1.466   3.074   0.878
  289HOH      O 1053   2.247   3.971   2.847
  289HOH     H1 1054   2.280   4.024   2.775
  289HOH     H2 1055   2.206   4.035   2.906
  290HOH      O 1056   3.466   0.724   3.344
  290HOH     H1 1057   3.501   0.795   3.291
  290HOH     H2 1058   3.522   0.722   3.422
  291HOH      O 1059   1.482   3.393   1.637
  291HOH     H1 1060   1.446   3.438   1.560
  291HOH     H2 1061   1.435   3.310   1.641
  292HOH      O 1062   3.067   0.628   0.520
  292HOH     H1 1063   3.150   0.672   0.535
  292HOH     H2 1064   3.081   0.577   0.440
  293HOH      O 1065   3.442   1.597   1.380
  293HOH     H1 1066   3.502   1.625   1.450
  293HOH     H2 1067   3.377   1.543   1.425
  294HOH      O 1068   3.764   1.272   2.042
  294HOH     H1 1069   3.714   1.341   2.084
  294HOH     H2 1070   3.729   1.266   1.953
  295HOH      O 1071   2.470   2.781   0.794
  295HOH     H1 1072   2.549   2.754   0.841
  295HOH     H2 1073   2.455   2.711   0.729
  296HOH      O 1074   3.470   2.228   2.599
  296HOH     H1 1075   3.456   2.185   2.683
  296HOH     H2 1076   3.562   2.255   2.600
  297HOH      O 1077   0.325   2.728   0.486
  297HOH     H1 1078   0.238   2.746   0.522
  297HOH     H2 1079   0.382   2.791   0.531
  298HOH      O 1080   1.873   3.954   2.447
  298HOH     H1 1081   1.897   3.882   2.506
  298HOH     H2 1082   1.862   4.029   2.505
  299HOH      O 1083   0.355   3.549   0.048
  299HOH     H1 1084   0.306   3.631   0.041
  299HOH     H2 1085   0.446   3.574   0.036
  300HOH      O 1086   0.086   2.794   2.372
  300HOH     H1 1087  -0.000   2.770   2.407
  300HOH     H2 1088   0.068   2.864   2.308
  301HOH      O 1089   3.170   0.753   0.025
  301HOH     H1 1090   3.255   0.792   0.043
  301HOH     H2 1091   3.110   0.827   0.025
  302HOH      O 1092   2.148   0.493   1.861
  302HOH     H1 1093   2.101   0.472   1.780
  302HOH     H2 1094   2.129   0.421   1.920
  303HOH      O 1095   0.023   3.793   1.896
  303HOH     H1 1096   0.050   3.883   1.914
  303HOH     H2 1097  -0.053   3.780   1.953
  304HOH      O 1098   1.391   0.880   0.534
  304HOH     H1 1099   1.361   0.893   0.445
  304HOH     H2 1100   1.470   0.826   0.525
  305HOH      O 1101   3.425   0.098   0.352
  305HOH     H1 1102   3.377   0.175   0.379
  305HOH     H2 1103   3.396   0.080   0.263
  306HOH      O 1104   3.813   0.025   0.734
  306HOH     H1 1105   3.813   0.066   0.821
  306HOH     H2 1106   3.806   0.099   0.674
  307HOH      O 1107   3.866   1.191   3.649
  307HOH     H1 1108   3.883   1.269   3.597
  307HOH     H2 1109   3.954   1.157   3.670
  308HOH      O 1110   2.972   3.952   3.129
  308HOH     H1 1111   2.899   3.893   3.112
  308HOH     H2 1112   3.006   3.924   3.214
  309HOH      O 1113   0.482   2.849   0.680
  309HOH     H1 1114   0.467   2.838   0.774
  309HOH     H2 1115   0.503   2.942   0.670
  310HOH      O 1116   1.485   3.971   0.013
  310HOH     H1 1117   1.478   3.923   0.096
  310HOH     H2 1118   1.459   3.907  -0.054
  311HOH      O 1119   1.893   1.962   0.250
  311HOH     H1 1120   1.840   1.883   0.234
  311HOH     H2 1121   1.976   1.944   0.207
  312HOH      O 1122   0.439   2.534   0.309
  312HOH     H1 1123   0.364   2.581   0.347
  312HOH     H2 1124   0.493   2.511   0.385
  313HOH      O 1125   3.466   0.022   0.810
  313HOH     H1 1126   3.472   0.006   0.716
  313HOH     H2 1127   3.549  -0.010   0.845
  314HOH      O 1128   1.932   1.009   1.329
  314HOH     H1 1129   2.026   1.001   1.344
  314HOH     H2 1130   1.895   1.022   1.416
  315HOH      O 1131   0.530   1.943   0.875
  315HOH     H1 1132   0.477   1.998   0.932
  315HOH     H2 1133   0.507   1.853   0.899
  316HOH      O 1134   2.245   3.204   3.158
  316HOH     H1 1135   2.258   3.160   3.074
  316HOH     H2 1136   2.243   3.132   3.222
  317HOH      O 1137   3.248   1.554   3.063
  317HOH     H1 1138   3.275   1.580   3.151
  317HOH     H2 1139   3.170   1.499   3.077
  318HOH      O 1140   2.238   3.589   1.365
  318HOH     H1 1141   2.324   3.595   1.322
  318HOH     H2 1142   2.235   3.665   1.423
  319HOH      O 1143   3.463   1.410   2.949
  319HOH     H1 1144   3.415   1.482   2.989
  319HOH     H2 1145   3.457   1.427   2.855
  320HOH      O 1146   1.318   2.849   0.714
  320HOH     H1 1147   1.248   2.847   0.649
  320HOH     H2 1148   1.279   2.811   0.793
  321HOH      O 1149   1.246   2.729   1.212
  321HOH     H1 1150   1.329   2.768   1.239
  321HOH     H2 1151   1.250   2.639   1.246
  322HOH      O 1152   2.548   1.230   0.191
  322HOH     H1 1153   2.607   1.224   0.266
  322HOH     H2 1154   2.465   1.197   0.224
  323HOH      O 1155   1.736   2.235   3.271
  323HOH     H1 1156   1.795   2.172   3.311
  323HOH     H2 1157   1.654   2.188   3.260
  324HOH      O 1158   2.278   0.743   2.208
  324HOH     H1 1159   2.339   0.817   2.211
  324HOH     H2 1160   2.320   0.679   2.150
  325HOH      O 1161   0.718   0.555   0.751
  325HOH     H1 1162   0.629   0.522   0.758
  325HOH     H2 1163   0.732   0.570   0.658
  326HOH      O 1164   1.527   3.194   1.412
  326HOH     H1 1165   1.611   3.238   1.414
  326HOH     H2 1166   1.517   3.155   1.499
  327HOH      O 1167   0.873   0.199   0.288
  327HOH     H1 1168   0.948   0.168   0.237
  327HOH     H2 1169   0.910   0.219   0.374
  328HOH      O 1170   3.772   3.420   1.160
  328HOH     H1 1171   3.681   3.422   1.189
  328HOH     H2 1172   3.812   3.349   1.210
  329HOH      O 1173   3.789   3.740   2.675
  329HOH     H1 1174   3.831   3.824   2.688
  329HOH     H2 1175   3.724   3.755   2.606
  330HOH      O 1176   3.568   3.007   3.989
  330HOH     H1 1177   3.520   3.006   3.906
  330HOH     H2 1178   3.557   2.919   4.024
  331HOH      O 1179   1.473   0.967   3.216
  331HOH     H1 1180   1.496   1.034   3.281
  331HOH     H2 1181   1.497   0.884   3.257
  332HOH      O 1182   0.015   3.935   2.506
  332HOH     H1 1183   0.040   4.023   2.477
  332HOH     H2 1184   0.045   3.877   2.435
  333HOH      O 1185   1.989   1.405   0.839
  333HOH     H1 1186   1.916   1.414   0.900
  333HOH     H2 1187   1.947   1.386   0.755
  334HOH      O 1188   3.379   1.011   0.894
  334HOH     H1 1189   3.364   0.927   0.850
  334HOH     H2 1190   3.461   0.998   0.941
  335HOH      O 1191   1.241   2.488   2.347
  335HOH     H1 1192   1.183   2.519   2.416
  335HOH     H2 1193   1.313   2.551   2.346
  336HOH      O 1194   2.989   2.725   2.500
  336HOH     H1 1195   2.988   2.702   2.407
  336HOH     H2 1196   2.950   2.812   2.503
  337HOH      O 1197   2.484   0.613   0.117
  337HOH     H1 1198   2.542   0.615   0.042
  337HOH     H2 1199   2.427   0.689   0.106
  338HOH      O 1200   0.077   2.072   3.727
  338HOH     H1 1201   0.013   2.136   3.759
  338HOH     H2 1202   0.108   2.028   3.806
  339HOH      O 1203   1.476   0.136   0.442
  339HOH     H1 1204   1.455   0.193   0.517
  339HOH     H2 1205   1.433   0.053   0.462
  340HOH      O 1206   2.582   1.242   3.630
  340HOH     H1 1207   2.515   1.187   3.592
  340HOH     H2 1208   2.582   1.321   3.576
  341HOH      O 1209   2.581   1.707   3.993
  341HOH     H1 1210   2.552   1.641   3.929
  341HOH     H2 1211   2.584   1.660   4.076
  342HOH      O 1212   0.069   0.074   2.899
  342HOH     H1 1213   0.123   0.108   2.971
  342HOH     H2 1214   0.006   0.016   2.942
  343HOH      O 1215   2.147   2.475   3.128
  343HOH     H1 1216   2.125   2.414   3.198
  343HOH     H2 1217   2.226   2.520   3.159
  344HOH      O 1218   3.217   1.777   3.639
  344HOH     H1 1219   3.150   1.714   3.609
  344HOH     H2 1220   3.170   1.834   3.699
  345HOH      O 1221   0.107   1.435   0.749
  345HOH     H1 1222   0.026   1.472   0.783
  345HOH     H2 1223   0.114   1.470   0.660
  346HOH      O 1224   3.338   3.306   0.187
  346HOH     H1 1225   3.396   3.302   0.111
  346HOH     H2 1226   3.385   3.259   0.256
  347HOH      O 1227   3.170   1.338   2.274
  347HOH     H1 1228   3.131   1.419   2.308
  347HOH     H2 1229   3.201   1.362   2.187
  348HOH      O 1230   2.486   3.858   1.185
  348HOH     H1 1231   2.545   3.931   1.205
  348HOH     H2 1232   2.442   3.884   1.104
  349HOH      O 1233   2.118   3.780   1.843
  349HOH     H1 1234   2.028   3.746   1.846
  349HOH     H2 1235   2.146   3.782   1.935
  350HOH      O 1236  -0.021   3.823   0.993
  350HOH     H1 1237   0.001   3.802   0.903
  350HOH     H2 1238   0.027   3.904   1.011
  351HOH      O 1239   3.354   0.762   0.519
  351HOH     H1 1240   3.375   0.674   0.488
  351HOH     H2 1241   3.412   0.776   0.594
  352HOH      O 1242   1.315   0.691   3.857
  352HOH     H1 1243   1.366   0.752   3.804
  352HOH     H2 1244   1.367   0.611   3.858
  353HOH      O 1245   0.640   3.094   0.664
  353HOH     H1 1246   0.709   3.160   0.655
  353HOH     H2 1247   0.560   3.145   0.678
  354HOH      O 1248   2.467   2.627   2.633
  354HOH     H1 1249   2.508   2.609   2.548
  354HOH     H2 1250   2.381   2.585   2.627
  355HOH      O 1251   1.406   1.262   3.007
  355HOH     H1 1252   1.398   1.298   2.919
  355HOH     H2 1253   1.315   1.252   3.037
  356HOH      O 1254   3.620   0.954   0.593
  356HOH     H1 1255   3.583   0.869   0.619
  356HOH     H2 1256   3.712   0.948   0.617
  357HOH      O 1257   3.625   1.873   0.914
  357HOH     H1 1258   3.683   1.915   0.852
  357HOH     H2 1259   3.554   1.837   0.861
  358HOH      O 1260   1.208   1.047   3.141
  358HOH     H1 1261   1.298   1.018   3.158
  358HOH     H2 1262   1.177   0.988   3.073
  359HOH      O 1263   3.160   2.412   2.326
  359HOH     H1 1264   3.210   2.413   2.407
  359HOH     H2 1265   3.195   2.337   2.277
  360HOH      O 1266   0.955   0.006   3.089
  360HOH     H1 1267   0.879   0.001   3.031
  360HOH     H2 1268   0.940   0.085   3.141
  361HOH      O 1269   2.108   0.574   0.021
  361HOH     H1 1270   2.177   0.543  -0.039
  361HOH     H2 1271   2.068   0.493   0.054
  362HOH      O 1272   0.616   0.122   3.367
  362HOH     H1 1273   0.697   0.174   3.369
  362HOH     H2 1274   0.631   0.052   3.431
  363HOH      O 1275   0.399   2.160   1.079
  363HOH     H1 1276   0.470   2.168   1.142
  363HOH     H2 1277   0.399   2.245   1.033
  364HOH      O 1278   1.314   3.601   2.292
  364HOH     H1 1279   1.375   3.540   2.251
  364HOH     H2 1280   1.355   3.687   2.280
  365HOH      O 1281   3.049   2.596   1.728
  365HOH     H1 1282   3.062   2.515   1.679
  365HOH     H2 1283   3.041   2.664   1.661
  366HOH      O 1284   3.278   1.219   0.329
  366HOH     H1 1285   3.313   1.134   0.356
  366HOH     H2 1286   3.205   1.235   0.388
  367HOH      O 1287   3.521   3.195   0.938
  367HOH     H1 1288   3.449   3.194   1.001
  367HOH     H2 1289   3.533   3.103   0.914
  368HOH      O 1290   1.365   1.166   2.090
  368HOH     H1 1291   1.408   1.084   2.117
  368HOH     H2 1292   1.307   1.187   2.163
  369HOH      O 1293   3.100   1.253   1.279
  369HOH     H1 1294   3.038   1.182   1.297
  369HOH     H2 1295   3.154   1.220   1.207
  370HOH      O 1296   3.400   0.454   2.022
  370HOH     H1 1297   3.469   0.438   1.958
  370HOH     H2 1298   3.381   0.369   2.060
  371HOH      O 1299   3.962   2.249   0.460
  371HOH     H1 1300   3.964   2.343   0.443
  371HOH     H2 1301   4.023   2.237   0.533
  372HOH      O 1302   0.723   0.738   1.491
  372HOH     H1 1303   0.767   0.690   1.420
  372HOH     H2 1304   0.731   0.830   1.466
  373HOH      O 1305   0.103   1.192   2.435
  373HOH     H1 1306   0.083   1.121   2.373
  373HOH     H2 1307   0.041   1.179   2.507
  374HOH      O 1308   0.212   2.423   0.877
  374HOH     H1 1309   0.297   2.436   0.919
  374HOH     H2 1310   0.223   2.344   0.825
  375HOH      O 1311   2.137   1.388   2.310
  375HOH     H1 1312   2.043   1.371   2.312
  375HOH     H2 1313   2.160   1.380   2.217
  376HOH      O 1314   2.469   0.498   1.222
  376HOH     H1 1315   2.380   0.527   1.242
  376HOH     H2 1316   2.460   0.404   1.206
  377HOH      O 1317   1.765   3.735   2.307
  377HOH     H1 1318   1.789   3.822   2.339
  377HOH     H2 1319   1.717   3.752   2.225
  378HOH      O 1320   3.843   3.196   0.377
  378HOH     H1 1321   3.799   3.275   0.409
  378HOH     H2 1322   3.814   3.187   0.286
  379HOH      O 1323   3.963   3.333   1.980
  379HOH     H1 1324   3.974   3.408   2.038
  379HOH     H2 1325   4.042   3.280   1.994
  380HOH      O 1326   2.141   0.187   0.787
  380HOH     H1 1327   2.226   0.145   0.777
  380HOH     H2 1328   2.078   0.122   0.756
  381HOH      O 1329   1.019   3.048   3.631
  381HOH     H1 1330   1.014   3.067   3.537
  381HOH     H2 1331   0.981   2.960   3.639
  382HOH      O 1332   0.639   0.957   0.784
  382HOH     H1 1333   0.555   0.958   0.831
  382HOH     H2 1334   0.690   0.890   0.829
  383HOH      O 1335   3.679   3.726   1.279
  383HOH     H1 1336   3.633   3.806   1.253
  383HOH     H2 1337   3.622   3.687   1.345
  384HOH      O 1338   2.052   3.345   3.669
  384HOH     H1 1339   2.044   3.251   3.652
  384HOH     H2 1340   2.107   3.350   3.748
  385HOH      O 1341   2.737   0.644   0.220
  385HOH     H1 1342   2.782   0.570   0.261
  385HOH     H2 1343   2.645   0.618   0.217
  386HOH      O 1344   1.366   2.884   3.781
  386HOH     H1 1345   1.354   2.797   3.743
  386HOH     H2 1346   1.370   2.869   3.875
  387HOH      O 1347   0.484   3.889   3.875
  387HOH     H1 1348   0.464   3.866   3.784
  387HOH     H2 1349   0.571   3.854   3.890
  388HOH      O 1350   0.608   2.880   2.342
  388HOH     H1 1351   0.639   2.970   2.350
  388HOH     H2 1352   0.516   2.883   2.370
  389HOH      O 1353   1.317   2.372   3.646
  389HOH     H1 1354   1.333   2.413   3.561
  389HOH     H2 1355   1.320   2.278   3.628
  390HOH      O 1356   1.055   2.765   2.337
  390HOH     H1 1357   1.052   2.814   2.255
  390HOH     H2 1358   0.980   2.707   2.333
  391HOH      O 1359   1.771   0.481   0.013
  391HOH     H1 1360   1.727   0.402   0.044
  391HOH     H2 1361   1.847   0.491   0.070
  392HOH      O 1362   2.205   1.313   3.035
  392HOH     H1 1363   2.197   1.251   2.963
  392HOH     H2 1364   2.298   1.309   3.060
  393HOH      O 1365   2.694   1.415   1.158
  393HOH     H1 1366   2.674   1.429   1.066
  393HOH     H2 1367   2.608   1.408   1.200
  394HOH      O 1368   0.379   0.017   0.461
  394HOH     H1 1369   0.406  -0.006   0.372
  394HOH     H2 1370   0.286   0.040   0.453
  395HOH      O 1371   2.149   3.401   1.037
  395HOH     H1 1372   2.233   3.369   1.004
  395HOH     H2 1373   2.088   3.388   0.965
  396HOH      O 1374   1.165   0.044   0.694
  396HOH     H1 1375   1.157   0.122   0.638
  396HOH     H2 1376   1.102  -0.018   0.657
  397HOH      O 1377   3.769   2.419   0.805
  397HOH     H1 1378   3.787   2.474   0.729
  397HOH     H2 1379   3.675   2.430   0.821
  398HOH      O 1380   2.111   0.762   2.450
  398HOH     H1 1381   2.157   0.781   2.369
  398HOH     H2 1382   2.019   0.755   2.425
  399HOH      O 1383   1.042   2.619   2.906
  399HOH     H1 1384   1.016   2.593   2.817
  399HOH     H2 1385   1.048   2.536   2.954
  400HOH      O 1386   0.155   1.839   0.886
  400HOH     H1 1387   0.139   1.907   0.950
  400HOH     H2 1388   0.177   1.762   0.938
  401HOH      O 1389   2.139   1.664   2.422
  401HOH     H1 1390   2.170   1.684   2.510
  401HOH     H2 1391   2.114   1.572   2.426
  402HOH      O 1392   0.078   0.807   1.543
  402HOH     H1 1393   0.173   0.812   1.530
  402HOH     H2 1394   0.042   0.863   1.474
  403HOH      O 1395   3.337   0.248   0.952
  403HOH     H1 1396   3.282   0.201   1.015
  403HOH     H2 1397   3.376   0.179   0.899
  404HOH      O 1398   0.891   0.337   2.279
  404HOH     H1 1399   0.908   0.292   2.362
  404HOH     H2 1400   0.806   0.379   2.292
  405HOH      O 1401   2.810   3.927   1.038
  405HOH     H1 1402   2.874   3.856   1.045
  405HOH     H2 1403   2.854   3.994   0.985
  406HOH      O 1404   3.860   0.532   3.117
  406HOH     H1 1405   3.807   0.605   3.086
  406HOH     H2 1406   3.858   0.468   3.046
  407HOH      O 1407   2.769   3.168   1.097
  407HOH     H1 1408   2.772   3.104   1.027
  407HOH     H2 1409   2.857   3.166   1.135
  408HOH      O 1410   1.973   1.429   1.380
  408HOH     H1 1411   1.881   1.403   1.379
  408HOH     H2 1412   1.993   1.444   1.472
  409HOH      O 1413   0.996   0.527   3.408
  409HOH     H1 1414   1.001   0.614   3.367
  409HOH     H2 1415   1.069   0.526   3.470
  410HOH      O 1416   1.700   2.435   2.000
  410HOH     H1 1417   1.786   2.423   2.040
  410HOH     H2 1418   1.719   2.466   1.911
  411HOH      O 1419   1.252   2.101   0.551
  411HOH     H1 1420   1.327   2.160   0.553
  411HOH     H2 1421   1.176   2.158   0.566
  412HOH      O 1422   2.201   0.475   0.844
  412HOH     H1 1423   2.290   0.489   0.878
  412HOH     H2 1424   2.185   0.382   0.856
  413HOH      O 1425   2.342   3.464   3.245
  413HOH     H1 1426   2.330   3.378   3.204
  413HOH     H2 1427   2.280   3.464   3.318
  414HOH      O 1428   2.784   2.572   0.749
  414HOH     H1 1429   2.788   2.614   0.834
  414HOH     H2 1430   2.856   2.611   0.699
  415HOH      O 1431   1.049   1.285   1.710
  415HOH     H1 1432   1.109   1.359   1.724
  415HOH     H2 1433   1.051   1.236   1.792
  416HOH      O 1434   3.051   1.315   0.479
  416HOH     H1 1435   3.094   1.395   0.508
  416HOH     H2 1436   3.060   1.254   0.552
  417HOH      O 1437   1.096   1.944   3.846
  417HOH     H1 1438   1.058   1.945   3.934
  417HOH     H2 1439   1.091   2.035   3.817
  418HOH      O 1440   1.451   1.147   1.023
  418HOH     H1 1441   1.532   1.132   0.974
  418HOH     H2 1442   1.463   1.234   1.062
  419HOH      O 1443   1.624   3.174   3.968
  419HOH     H1 1444   1.657   3.256   3.931
  419HOH     H2 1445   1.531   3.190   3.983
  420HOH      O 1446   1.708   3.458   2.881
  420HOH     H1 1447   1.794   3.453   2.923
  420HOH     H2 1448   1.717   3.530   2.818
  421HOH      O 1449   0.594   1.875   3.697
  421HOH     H1 1450   0.570   1.950   3.751
  421HOH     H2 1451   0.525   1.869   3.632
  422HOH      O 1452   2.435   2.493   2.309
  422HOH     H1 1453   2.522   2.529   2.295
  422HOH     H2 1454   2.448   2.419   2.369
  423HOH      O 1455   3.434   1.800   3.103
  423HOH     H1 1456   3.397   1.786   3.016
  423HOH     H2 1457   3.407   1.889   3.126
  424HOH      O 1458   2.740   0.357   2.387
  424HOH     H1 1459   2.717   0.435   2.438
  424HOH     H2 1460   2.832   0.342   2.408
  425HOH      O 1461   1.609   0.193   0.748
  425HOH     H1 1462   1.702   0.216   0.749
  425HOH     H2 1463   1.595   0.146   0.830
  426HOH      O 1464   0.988   3.836   1.174
  426HOH     H1 1465   1.034   3.885   1.107
  426HOH     H2 1466   1.037   3.754   1.182
  427HOH      O 1467   3.507   2.047   3.487
  427HOH     H1 1468   3.599   2.057   3.509
  427HOH     H2 1469   3.489   2.117   3.425
  428HOH      O 1470   2.345   0.746   3.247
  428HOH     H1 1471   2.270   0.700   3.210
  428HOH     H2 1472   2.359   0.704   3.333
  429HOH      O 1473   0.137   3.363   0.780
  429HOH     H1 1474   0.108   3.329   0.696
  429HOH     H2 1475   0.064   3.345   0.839
  430HOH      O 1476   3.641   0.900   2.111
  430HOH     H1 1477   3.726   0.945   2.117
  430HOH     H2 1478   3.589   0.955   2.052
  431HOH      O 1479   3.880   2.907   3.843
  431HOH     H1 1480   3.804   2.908   3.784
  431HOH     H2 1481   3.859   2.840   3.908
  432HOH      O 1482   3.925   3.947   0.488
  432HOH     H1 1483   3.886   3.959   0.574
  432HOH     H2 1484   3.860   3.980   0.427
  433HOH      O 1485   2.489   2.738   0.371
  433HOH     H1 1486   2.576   2.709   0.344
  433HOH     H2 1487   2.460   2.673   0.435
  434HOH      O 1488   0.047   3.908   3.912
  434HOH     H1 1489   0.003   3.983   3.952
  434HOH     H2 1490   0.017   3.908   3.821
  435HOH      O 1491   2.697   2.744   1.024
  435HOH     H1 1492   2.660   2.688   1.092
  435HOH     H2 1493   2.789   2.715   1.017
  436HOH      O 1494   1.300   0.557   0.573
  436HOH     H1 1495   1.395   0.569   0.570
  436HOH     H2 1496   1.281   0.502   0.497
  437HOH      O 1497   0.845   3.238   0.032
  437HOH     H1 1498   0.889   3.300   0.090
  437HOH     H2 1499   0.889   3.155   0.048
  438HOH      O 1500   3.239   3.325   1.227
  438HOH     H1 1501   3.150   3.358   1.240
  438HOH     H2 1502   3.227   3.238   1.190
  439HOH      O 1503   3.102   3.879   1.296
  439HOH     H1 1504   3.065   3.851   1.212
  439HOH     H2 1505   3.181   3.824   1.306
  440HOH      O 1506   1.665   3.392   0.159
  440HOH     H1 1507   1.572   3.367   0.153
  440HOH     H2 1508   1.666   3.465   0.219
  441HOH      O 1509   3.382   2.754   2.627
  441HOH     H1 1510   3.373   2.757   2.532
  441HOH     H2 1511   3.477   2.760   2.642
  442HOH      O 1512   3.881   2.330   3.042
  442HOH     H1 1513   3.848   2.258   3.096
  442HOH     H2 1514   3.821   2.402   3.061
  443HOH      O 1515   3.747   2.011   2.467
  443HOH     H1 1516   3.841   2.008   2.449
  443HOH     H2 1517   3.722   2.102   2.452
  444HOH      O 1518   3.466   1.177   1.191
  444HOH     H1 1519   3.420   1.210   1.113
  444HOH     H2 1520   3.412   1.104   1.221
  445HOH      O 1521   1.833   0.547   2.535
  445HOH     H1 1522   1.771   0.557   2.608
  445HOH     H2 1523   1.899   0.487   2.568
  446HOH      O 1524   0.285   3.125   0.428
  446HOH     H1 1525   0.323   3.046   0.390
  446HOH     H2 1526   0.333   3.197   0.387
  447HOH      O 1527   0.275   0.497   2.301
  447HOH     H1 1528   0.311   0.514   2.388
  447HOH     H2 1529   0.254   0.404   2.302
  448HOH      O 1530   0.966   2.984   4.006
  448HOH     H1 1531   0.975   2.902   3.957
  448HOH     H2 1532   1.042   3.036   3.982
  449HOH      O 1533   3.613   2.112   1.841
  449HOH     H1 1534   3.628   2.035   1.787
  449HOH     H2 1535   3.658   2.092   1.923
  450HOH      O 1536   0.425   0.303   3.382
  450HOH     H1 1537   0.357   0.262   3.437
  450HOH     H2 1538   0.501   0.245   3.391
  451HOH      O 1539   3.321   3.912   0.539
  451HOH     H1 1540   3.387   3.854   0.502
  451HOH     H2 1541   3.273   3.945   0.463
  452HOH      O 1542   3.901   1.269   2.637
  452HOH     H1 1543   3.827   1.229   2.683
  452HOH     H2 1544   3.955   1.306   2.706
  453HOH      O 1545   3.687   2.668   0.245
  453HOH     H1 1546   3.591   2.673   0.250
  453HOH     H2 1547   3.718   2.744   0.292
  454HOH      O 1548   2.422   2.048   3.610
  454HOH     H1 1549   2.451   2.086   3.693
  454HOH     H2 1550   2.494   2.065   3.549
  455HOH      O 1551   2.199   2.911   0.573
  455HOH     H1 1552   2.108   2.921   0.545
  455HOH     H2 1553   2.249   2.967   0.514
  456HOH      O 1554   2.027   2.642   2.105
  456HOH     H1 1555   1.955   2.679   2.155
  456HOH     H2 1556   2.106   2.665   2.155
  457HOH      O 1557   1.722   2.993   1.001
  457HOH     H1 1558   1.633   2.957   0.998
  457HOH     H2 1559   1.776   2.921   1.032
  458HOH      O 1560   1.801   0.322   2.325
  458HOH     H1 1561   1.877   0.320   2.382
  458HOH     H2 1562   1.798   0.412   2.292
  459HOH      O 1563   3.917   3.929   2.990
  459HOH     H1 1564   3.952   3.883   3.066
  459HOH     H2 1565   3.961   3.890   2.915
  460HOH      O 1566   1.090   3.214   1.661
  460HOH     H1 1567   1.157   3.147   1.675
  460HOH     H2 1568   1.093   3.268   1.740
  461HOH      O 1569   0.589   1.773   0.382
  461HOH     H1 1570   0.517   1.804   0.328
  461HOH     H2 1571   0.585   1.827   0.461
  462HOH      O 1572   2.194   1.100   2.838
  462HOH     H1 1573   2.164   1.035   2.775
  462HOH     H2 1574   2.287   1.111   2.819
  463HOH      O 1575   1.604   0.596   3.065
  463HOH     H1 1576   1.677   0.619   3.123
  463HOH     H2 1577   1.527   0.601   3.121
  464HOH      O 1578   0.045   2.451   3.687
  464HOH     H1 1579   0.040   2.454   3.782
  464HOH     H2 1580  -0.040   2.486   3.657
  465HOH      O 1581   0.527   0.284   0.769
  465HOH     H1 1582   0.605   0.282   0.713
  465HOH     H2 1583   0.562   0.284   0.858
  466HOH      O 1584   4.020   0.886   3.063
  466HOH     H1 1585   3.926   0.881   3.050
  466HOH     H2 1586   4.048   0.963   3.013
  467HOH      O 1587   3.078   1.822   3.294
  467HOH     H1 1588   3.017   1.825   3.221
  467HOH     H2 1589   3.022   1.811   3.372
  468HOH      O 1590   3.894   0.071   1.248
  468HOH     H1 1591   3.950   0.002   1.282
  468HOH     H2 1592   3.952   0.123   1.192
  469HOH      O 1593   2.170   3.862   0.309
  469HOH     H1 1594   2.143   3.954   0.300
  469HOH     H2 1595   2.115   3.815   0.246
  470HOH      O 1596   0.022   1.153   1.379
  470HOH     H1 1597   0.065   1.190   1.302
  470HOH     H2 1598   0.063   1.197   1.453
  471HOH      O 1599   0.385   2.995   2.091
  471HOH     H1 1600   0.462   3.020   2.041
  471HOH     H2 1601   0.337   2.935   2.034
  472HOH      O 1602   2.042   1.113   0.859
  472HOH     H1 1603   2.008   1.121   0.770
  472HOH     H2 1604   2.018   1.195   0.901
  473HOH      O 1605   1.486   1.570   0.886
  473HOH     H1 1606   1.406   1.536   0.845
  473HOH     H2 1607   1.466   1.662   0.905
  474HOH      O 1608   1.152   3.329   0.639
  474HOH     H1 1609   1.138   3.239   0.670
  474HOH     H2 1610   1.247   3.337   0.631
  475HOH      O 1611   0.890   1.592   0.059
  475HOH     H1 1612   0.804   1.567   0.026
  475HOH     H2 1613   0.944   1.600  -0.020
  476HOH      O 1614   1.369   3.938   3.541
  476HOH     H1 1615   1.287   3.900   3.509
  476HOH     H2 1616   1.394   4.001   3.473
  477HOH      O 1617   0.130   4.001   0.792
  477HOH     H1 1618   0.148   3.938   0.723
  477HOH     H2 1619   0.080   4.070   0.750
  478HOH      O 1620   2.960   3.295   1.791
  478HOH     H1 1621   2.970   3.373   1.845
  478HOH     H2 1622   2.873   3.304   1.751
  479HOH      O 1623   3.131   2.622   2.714
  479HOH     H1 1624   3.181   2.700   2.739
  479HOH     H2 1625   3.092   2.644   2.630
  480HOH      O 1626   2.825   1.158   0.083
  480HOH     H1 1627   2.730   1.166   0.089
  480HOH     H2 1628   2.857   1.248   0.090
  481HOH      O 1629   2.463   0.910   0.293
  481HOH     H1 1630   2.545   0.950   0.322
  481HOH     H2 1631   2.413   0.982   0.255
  482HOH      O 1632   3.569   0.368   2.917
  482HOH     H1 1633   3.518   0.437   2.958
  482HOH     H2 1634   3.505   0.314   2.872
  483HOH      O 1635   1.370   0.969   1.751
  483HOH     H1 1636   1.412   1.022   1.683
  483HOH     H2 1637   1.294   0.931   1.707
  484HOH      O 1638   0.855   1.658   0.352
  484HOH     H1 1639   0.763   1.674   0.372
  484HOH     H2 1640   0.855   1.637   0.258
  485HOH      O 1641   3.493   1.018   1.750
  485HOH     H1 1642   3.575   1.056   1.780
  485HOH     H2 1643   3.501   0.924   1.771
  486HOH      O 1644   0.674   2.260   2.225
  486HOH     H1 1645   0.613   2.197   2.265
  486HOH     H2 1646   0.755   2.251   2.276
  487HOH      O 1647   1.792   2.818   2.207
  487HOH     H1 1648   1.724   2.884   2.219
  487HOH     H2 1649   1.871   2.869   2.190
  488HOH      O 1650   2.491   1.695   1.306
  488HOH     H1 1651   2.417   1.747   1.336
  488HOH     H2 1652   2.506   1.724   1.216
  489HOH      O 1653   2.124   1.886   0.945
  489HOH     H1 1654   2.055   1.896   1.010
  489HOH     H2 1655   2.099   1.809   0.894
  490HOH      O 1656   0.801   1.220   0.861
  490HOH     H1 1657   0.791   1.155   0.792
  490HOH     H2 1658   0.884   1.198   0.903
  491HOH      O 1659   1.975   3.031   1.452
  491HOH     H1 1660   2.022   2.950   1.433
  491HOH     H2 1661   1.918   3.045   1.376
  492HOH      O 1662   3.015   0.241   2.438
  492HOH     H1 1663   3.108   0.255   2.458
  492HOH     H2 1664   2.999   0.150   2.462
  493HOH      O 1665   0.364   0.904   3.280
  493HOH     H1 1666   0.378   0.994   3.249
  493HOH     H2 1667   0.339   0.855   3.202
  494HOH      O 1668   0.549   1.578   1.659
  494HOH     H1 1669   0.559   1.598   1.752
  494HOH     H2 1670   0.572   1.659   1.614
  495HOH      O 1671   0.361   1.952   3.576
  495HOH     H1 1672   0.314   1.990   3.650
  495HOH     H2 1673   0.294   1.903   3.528
  496HOH      O 1674   3.127   0.920   3.095
  496HOH     H1 1675   3.051   0.924   3.152
  496HOH     H2 1676   3.124   0.832   3.057
  497HOH      O 1677   0.320   2.277   2.011
  497HOH     H1 1678   0.406   2.289   1.972
  497HOH     H2 1679   0.260   2.274   1.937
  498HOH      O 1680   2.919   1.962   3.566
  498HOH     H1 1681   2.900   2.053   3.542
  498HOH     H2 1682   2.962   1.968   3.651
  499HOH      O 1683   2.843   1.856   0.307
  499HOH     H1 1684   2.813   1.920   0.242
  499HOH     H2 1685   2.934   1.880   0.323
  500HOH      O 1686   0.525   2.753   2.802
  500HOH     H1 1687   0.567   2.719   2.880
  500HOH     H2 1688   0.503   2.675   2.750
  501HOH      O 1689   0.800   1.316   1.178
  501HOH     H1 1690   0.872   1.302   1.117
  501HOH     H2 1691   0.801   1.238   1.234
  502HOH      O 1692   1.069   1.437   2.795
  502HOH     H1 1693   0.973   1.444   2.790
  502HOH     H2 1694   1.097   1.426   2.704
  503HOH      O 1695  -0.016   0.268   1.495
  503HOH     H1 1696  -0.027   0.328   1.421
  503HOH     H2 1697   0.061   0.216   1.473
  504HOH      O 1698   1.583   0.561   2.647
  504HOH     H1 1699   1.507   0.521   2.690
  504HOH     H2 1700   1.614   0.627   2.708
  505HOH      O 1701   3.761   0.549   2.621
  505HOH     H1 1702   3.741   0.460   2.590
  505HOH     H2 1703   3.729   0.606   2.551
  506HOH      O 1704   3.417   1.469   3.253
  506HOH     H1 1705   3.359   1.516   3.313
  506HOH     H2 1706   3.375   1.383   3.242
  507HOH      O 1707   0.509   0.532   3.092
  507HOH     H1 1708   0.415   0.524   3.077
  507HOH     H2 1709   0.518   0.533   3.187
  508HOH      O 1710   3.201   0.643   3.349
  508HOH     H1 1711   3.285   0.666   3.308
  508HOH     H2 1712   3.139   0.639   3.276
  509HOH      O 1713   2.115   1.055   1.882
  509HOH     H1 1714   2.030   1.083   1.849
  509HOH     H2 1715   2.099   1.029   1.972
  510HOH      O 1716   2.695   3.329   2.396
  510HOH     H1 1717   2.619   3.381   2.371
  510HOH     H2 1718   2.704   3.344   2.490
  511HOH      O 1719   1.581   0.040   0.982
  511HOH     H1 1720   1.616  -0.046   1.004
  511HOH     H2 1721   1.543   0.072   1.064
  512HOH      O 1722   1.724   3.483   1.012
  512HOH     H1 1723   1.651   3.490   1.074
  512HOH     H2 1724   1.773   3.406   1.041
  513HOH      O 1725   0.885   0.949   0.183
  513HOH     H1 1726   0.908   0.897   0.106
  513HOH     H2 1727   0.834   1.022   0.148
  514HOH      O 1728   1.618   0.318   3.655
  514HOH     H1 1729   1.704   0.331   3.695
  514HOH     H2 1730   1.612   0.224   3.640
  515HOH      O 1731   2.123   3.666   1.056
  515HOH     H1 1732   2.172   3.660   0.974
  515HOH     H2 1733   2.106   3.575   1.081
  516HOH      O 1734   0.754   0.424   0.314
  516HOH     H1 1735   0.723   0.450   0.227
  516HOH     H2 1736   0.798   0.341   0.300
  517HOH      O 1737   1.206   1.436   1.395
  517HOH     H1 1738   1.233   1.476   1.312
  517HOH     H2 1739   1.250   1.489   1.462
  518HOH      O 1740   3.523   2.631   0.721
  518HOH     H1 1741   3.521   2.647   0.815
  518HOH     H2 1742   3.450   2.572   0.705
  519HOH      O 1743   0.229   3.714   2.997
  519HOH     H1 1744   0.146   3.737   3.039
  519HOH     H2 1745   0.222   3.620   2.982
  520HOH      O 1746   0.165   1.682   1.624
  520HOH     H1 1747   0.174   1.610   1.687
  520HOH     H2 1748   0.255   1.707   1.603
  521HOH      O 1749   1.809   0.882   1.115
  521HOH     H1 1750   1.817   0.788   1.133
  521HOH     H2 1751   1.861   0.924   1.183
  522HOH      O 1752   1.901   3.253   1.943
  522HOH     H1 1753   1.993   3.273   1.957
  522HOH     H2 1754   1.896   3.224   1.852
  523HOH      O 1755   3.506   1.770   3.780
  523HOH     H1 1756   3.503   1.707   3.852
  523HOH     H2 1757   3.451   1.730   3.712
  524HOH      O 1758   3.795   0.334   2.221
  524HOH     H1 1759   3.859   0.389   2.267
  524HOH     H2 1760   3.745   0.291   2.290
  525HOH      O 1761   3.652   2.042   0.030
  525HOH     H1 1762   3.692   2.085  -0.045
  525HOH     H2 1763   3.697   2.079   0.106
  526HOH      O 1764   1.265   2.814   2.890
  526HOH     H1 1765   1.197   2.748   2.895
  526HOH     H2 1766   1.223   2.889   2.848
  527HOH      O 1767   1.703   3.030   0.180
  527HOH     H1 1768   1.706   3.121   0.152
  527HOH     H2 1769   1.610   3.013   0.195
  528HOH      O 1770   0.709   3.477   3.180
  528HOH     H1 1771   0.747   3.555   3.223
  528HOH     H2 1772   0.773   3.454   3.113
  529HOH      O 1773   2.900   2.388   2.670
  529HOH     H1 1774   2.967   2.402   2.737
  529HOH     H2 1775   2.820   2.423   2.709
  530HOH      O 1776   0.268   2.635   3.768
  530HOH     H1 1777   0.214   2.655   3.844
  530HOH     H2 1778   0.208   2.591   3.707
  531HOH      O 1779   1.418   3.595   3.556
  531HOH     H1 1780   1.387   3.505   3.547
  531HOH     H2 1781   1.338   3.646   3.567
  532HOH      O 1782   3.826   1.670   3.307
  532HOH     H1 1783   3.735   1.660   3.277
  532HOH     H2 1784   3.879   1.635   3.236
  533HOH      O 1785   3.485   1.975   1.140
  533HOH     H1 1786   3.499   1.949   1.049
  533HOH     H2 1787   3.476   1.893   1.188
  534HOH      O 1788   3.257   0.848   3.582
  534HOH     H1 1789   3.260   0.769   3.528
  534HOH     H2 1790   3.341   0.849   3.628
  535HOH      O 1791   0.812   3.304   0.570
  535HOH     H1 1792   0.741   3.364   0.550
  535HOH     H2 1793   0.887   3.360   0.591
  536HOH      O 1794   3.555   0.166   3.208
  536HOH     H1 1795   3.545   0.260   3.226
  536HOH     H2 1796   3.639   0.144   3.248
  537HOH      O 1797   3.037   2.776   3.320
  537HOH     H1 1798   2.970   2.757   3.253
  537HOH     H2 1799   3.013   2.862   3.354
  538HOH      O 1800   0.829   0.332   1.878
  538HOH     H1 1801   0.856   0.283   1.956
  538HOH     H2 1802   0.900   0.394   1.863
  539HOH      O 1803   2.309   2.939   0.940
  539HOH     H1 1804   2.377   2.897   0.887
  539HOH     H2 1805   2.227   2.913   0.900
  540HOH      O 1806   1.655   2.595   3.072
  540HOH     H1 1807   1.748   2.613   3.063
  540HOH     H2 1808   1.646   2.504   3.043
  541HOH      O 1809   3.378   3.510   1.729
  541HOH     H1 1810   3.364   3.526   1.822
  541HOH     H2 1811   3.308   3.449   1.704
  542HOH      O 1812   0.794   0.774   2.919
  542HOH     H1 1813   0.764   0.707   2.979
  542HOH     H2 1814   0.758   0.856   2.954
  543HOH      O 1815   2.546   3.941   3.191
  543HOH     H1 1816   2.577   3.867   3.140
  543HOH     H2 1817   2.581   3.925   3.279
  544HOH      O 1818   2.379   0.301   1.719
  544HOH     H1 1819   2.417   0.276   1.635
  544HOH     H2 1820   2.454   0.327   1.772
  545HOH      O 1821   2.462   1.488   3.806
  545HOH     H1 1822   2.497   1.399   3.810
  545HOH     H2 1823   2.414   1.491   3.723
  546HOH      O 1824   2.853   2.296   1.023
  546HOH     H1 1825   2.913   2.367   1.045
  546HOH     H2 1826   2.873   2.274   0.932
  547HOH      O 1827   3.735   0.466   3.924
  547HOH     H1 1828   3.766   0.391   3.975
  547HOH     H2 1829   3.786   0.463   3.843
  548HOH      O 1830   1.505   2.058   3.735
  548HOH     H1 1831   1.482   2.109   3.812
  548HOH     H2 1832   1.472   1.970   3.754
  549HOH      O 1833   0.085   2.642   3.980
  549HOH     H1 1834   0.102   2.599   4.063
  549HOH     H2 1835  -0.001   2.683   3.991
  550HOH      O 1836   2.339   1.065   2.085
  550HOH     H1 1837   2.396   0.991   2.061
  550HOH     H2 1838   2.362   1.134   2.024
  551HOH      O 1839   1.934   2.536   1.531
  551HOH     H1 1840   1.978   2.603   1.584
  551HOH     H2 1841   1.969   2.550   1.443
  552HOH      O 1842   2.262   1.007   0.582
  552HOH     H1 1843   2.327   0.975   0.519
  552HOH     H2 1844   2.313   1.057   0.645
  553HOH      O 1845   1.738   1.826   3.527
  553HOH     H1 1846   1.714   1.830   3.620
  553HOH     H2 1847   1.698   1.744   3.496
  554HOH      O 1848   3.955   0.229   1.747
  554HOH     H1 1849   3.983   0.287   1.817
  554HOH     H2 1850   3.998   0.263   1.669
  555HOH      O 1851   0.245   1.882   2.525
  555HOH     H1 1852   0.240   1.960   2.581
  555HOH     H2 1853   0.185   1.820   2.564
  556HOH      O 1854   3.654   2.224   1.103
  556HOH     H1 1855   3.743   2.188   1.101
  556HOH     H2 1856   3.598   2.149   1.123
  557HOH      O 1857   0.034   1.964   0.674
  557HOH     H1 1858   0.081   1.942   0.755
  557HOH     H2 1859   0.072   1.904   0.608
  558HOH      O 1860   2.021   1.538   3.902
  558HOH     H1 1861   2.008   1.562   3.811
  558HOH     H2 1862   2.049   1.618   3.945
  559HOH      O 1863   1.475   0.237   1.401
  559HOH     H1 1864   1.430   0.270   1.479
  559HOH     H2 1865   1.476   0.142   1.413
  560HOH      O 1866   2.454   3.985   0.091
  560HOH     H1 1867   2.361   3.969   0.076
  560HOH     H2 1868   2.492   3.897   0.100
  561HOH      O 1869   3.644   2.887   3.678
  561HOH     H1 1870   3.603   2.964   3.638
  561HOH     H2 1871   3.570   2.839   3.717
  562HOH      O 1872   1.379   1.522   3.621
  562HOH     H1 1873   1.344   1.478   3.699
  562HOH     H2 1874   1.308   1.518   3.557
  563HOH      O 1875   0.020   2.459   3.359
  563HOH     H1 1876   0.085   2.430   3.422
  563HOH     H2 1877   0.062   2.447   3.273
  564HOH      O 1878   3.154   2.861   0.804
  564HOH     H1 1879   3.081   2.897   0.854
  564HOH     H2 1880   3.186   2.934   0.752
  565HOH      O 1881   3.299   2.578   2.167
  565HOH     H1 1882   3.237   2.591   2.095
  565HOH     H2 1883   3.252   2.522   2.229
  566HOH      O 1884   2.348   2.035   3.279
  566HOH     H1 1885   2.421   2.066   3.332
  566HOH     H2 1886   2.331   2.107   3.217
  567HOH      O 1887   1.872   1.715   2.883
  567HOH     H1 1888   1.799   1.658   2.859
  567HOH     H2 1889   1.900   1.754   2.800
  568HOH      O 1890   3.961   1.753   1.935
  568HOH     H1 1891   3.979   1.672   1.887
  568HOH     H2 1892   3.870   1.743   1.965
  569HOH      O 1893   3.519   3.302   2.874
  569HOH     H1 1894   3.441   3.288   2.821
  569HOH     H2 1895   3.567   3.371   2.829
  570HOH      O 1896   1.758   3.781   1.397
  570HOH     H1 1897   1.839   3.800   1.350
  570HOH     H2 1898   1.703   3.858   1.382
  571HOH      O 1899   1.407   0.116   3.378
  571HOH     H1 1900   1.457   0.177   3.324
  571HOH     H2 1901   1.319   0.152   3.381
  572HOH      O 1902   3.744   3.405   0.526
  572HOH     H1 1903   3.685   3.455   0.581
  572HOH     H2 1904   3.818   3.463   0.510
  573HOH      O 1905   3.951   3.601   1.299
  573HOH     H1 1906   3.891   3.545   1.250
  573HOH     H2 1907   3.896   3.646   1.362
  574HOH      O 1908   3.804   0.997   3.444
  574HOH     H1 1909   3.777   1.071   3.498
  574HOH     H2 1910   3.877   0.958   3.491
  575HOH      O 1911   0.710   3.425   1.525
  575HOH     H1 1912   0.629   3.466   1.496
  575HOH     H2 1913   0.682   3.343   1.566
  576HOH      O 1914   0.288   0.962   3.691
  576HOH     H1 1915   0.233   1.038   3.710
  576HOH     H2 1916   0.232   0.887   3.710
  577HOH      O 1917   3.018   2.755   1.450
  577HOH     H1 1918   3.027   2.683   1.388
  577HOH     H2 1919   2.959   2.817   1.406
  578HOH      O 1920   0.386   3.299   3.507
  578HOH     H1 1921   0.307   3.340   3.542
  578HOH     H2 1922   0.380   3.313   3.413
  579HOH      O 1923   2.229   3.796   0.576
  579HOH     H1 1924   2.183   3.712   0.572
  579HOH     H2 1925   2.232   3.826   0.486
  580HOH      O 1926   0.467   2.249   3.228
  580HOH     H1 1927   0.382   2.206   3.220
  580HOH     H2 1928   0.504   2.213   3.308
  581HOH      O 1929   0.272   3.831   4.042
  581HOH     H1 1930   0.345   3.865   3.990
  581HOH     H2 1931   0.194   3.846   3.988
  582HOH      O 1932   1.486   3.976   1.938
  582HOH     H1 1933   1.511   3.928   1.859
  582HOH     H2 1934   1.456   4.061   1.905
  583HOH      O 1935   0.957   3.234   0.966
  583HOH     H1 1936   0.979   3.216   1.057
  583HOH     H2 1937   0.955   3.329   0.960
  584HOH      O 1938   3.592   1.461   2.170
  584HOH     H1 1939   3.551   1.524   2.111
  584HOH     H2 1940   3.524   1.396   2.185
  585HOH      O 1941   2.205   1.346   3.902
  585HOH     H1 1942   2.132   1.405   3.885
  585HOH     H2 1943   2.267   1.399   3.953
  586HOH      O 1944   2.832   2.693   3.192
  586HOH     H1 1945   2.842   2.627   3.123
  586HOH     H2 1946   2.753   2.741   3.168
  587HOH      O 1947   2.277   1.057   1.036
  587HOH     H1 1948   2.250   0.977   1.080
  587HOH     H2 1949   2.213   1.069   0.965
  588HOH      O 1950   2.433   2.032   1.331
  588HOH     H1 1951   2.458   2.020   1.423
  588HOH     H2 1952   2.515   2.051   1.286
  589HOH      O 1953   3.407   1.556   1.915
  589HOH     H1 1954   3.396   1.624   1.982
  589HOH     H2 1955   3.324   1.508   1.916
  590HOH      O 1956   2.959   1.396   0.082
  590HOH     H1 1957   3.053   1.406   0.097
  590HOH     H2 1958   2.920   1.474   0.122
  591HOH      O 1959   0.415   0.549   2.071
  591HOH     H1 1960   0.498   0.592   2.092
  591HOH     H2 1961   0.368   0.545   2.154
  592HOH      O 1962   2.144   3.063  -0.008
  592HOH     H1 1963   2.233   3.098  -0.009
  592HOH     H2 1964   2.148   2.990   0.053
  593HOH      O 1965   1.023   1.603   1.964
  593HOH     H1 1966   1.067   1.582   1.881
  593HOH     H2 1967   1.076   1.559   2.030
  594HOH      O 1968   1.464   0.020   2.279
  594HOH     H1 1969   1.526   0.043   2.209
  594HOH     H2 1970   1.384  -0.003   2.232
  595HOH      O 1971   0.193   1.403   3.661
  595HOH     H1 1972   0.149   1.486   3.682
  595HOH     H2 1973   0.286   1.424   3.669
  596HOH      O 1974   3.778   2.647   0.635
  596HOH     H1 1975   3.684   2.641   0.653
  596HOH     H2 1976   3.798   2.740   0.646
  597HOH      O 1977   2.789   1.141   0.952
  597HOH     H1 1978   2.697   1.122   0.934
  597HOH     H2 1979   2.826   1.057   0.980
  598HOH      O 1980   1.267   1.856   0.150
  598HOH     H1 1981   1.280   1.941   0.109
  598HOH     H2 1982   1.336   1.850   0.216
  599HOH      O 1983   3.976   3.875   3.641
  599HOH     H1 1984   3.962   3.780   3.636
  599HOH     H2 1985   4.070   3.886   3.625
  600HOH      O 1986   1.126   2.795   0.481
  600HOH     H1 1987   1.086   2.881   0.488
  600HOH     H2 1988   1.053   2.734   0.475
  601HOH      O 1989   3.292   2.187   2.166
  601HOH     H1 1990   3.255   2.242   2.097
  601HOH     H2 1991   3.325   2.110   2.120
  602HOH      O 1992   3.409   0.006   3.664
  602HOH     H1 1993   3.475   0.061   3.620
  602HOH     H2 1994   3.328   0.025   3.616
  603HOH      O 1995   0.983   2.368   3.016
  603HOH     H1 1996   0.911   2.355   2.954
  603HOH     H2 1997   0.991   2.285   3.062
  604HOH      O 1998   0.612   0.305   1.014
  604HOH     H1 1999   0.701   0.338   1.003
  604HOH     H2 2000   0.597   0.306   1.108
  605HOH      O 2001   3.825   0.342   2.935
  605HOH     H1 2002   3.834   0.257   2.892
  605HOH     H2 2003   3.731   0.361   2.934
  606HOH      O 2004   3.656   2.787   2.672
  606HOH     H1 2005   3.722   2.827   2.616
  606HOH     H2 2006   3.699   2.775   2.756
  607HOH      O 2007   3.516   3.888   1.124
  607HOH     H1 2008   3.499   3.963   1.181
  607HOH     H2 2009   3.574   3.922   1.056
  608HOH      O 2010   0.446   0.388   0.034
  608HOH     H1 2011   0.420   0.301   0.065
  608HOH     H2 2012   0.541   0.390   0.046
  609HOH      O 2013   3.959   3.013   1.467
  609HOH     H1 2014   3.896   3.057   1.524
  609HOH     H2 2015   4.044   3.035   1.504
  610HOH      O 2016   2.770   3.788   3.078
  610HOH     H1 2017   2.762   3.809   2.986
  610HOH     H2 2018   2.761   3.692   3.082
  611HOH      O 2019   0.340   2.927   2.415
  611HOH     H1 2020   0.320   3.020   2.408
  611HOH     H2 2021   0.260   2.882   2.386
  612HOH      O 2022   0.753   2.193   1.768
  612HOH     H1 2023   0.843   2.168   1.786
  612HOH     H2 2024   0.752   2.216   1.675
  613HOH      O 2025   1.369   3.270   1.209
  613HOH     H1 2026   1.296   3.287   1.269
  613HOH     H2 2027   1.438   3.234   1.264
  614HOH      O 2028   1.699   3.430   0.705
  614HOH     H1 2029   1.729   3.451   0.794
  614HOH     H2 2030   1.734   3.501   0.651
  615HOH      O 2031   3.125   0.168   3.840
  615HOH     H1 2032   3.050   0.109   3.837
  615HOH     H2 2033   3.094   0.245   3.888
  616HOH      O 2034   1.033   2.614   2.624
  616HOH     H1 2035   1.040   2.695   2.574
  616HOH     H2 2036   0.950   2.576   2.598
  617HOH      O 2037   3.022   1.224   3.403
  617HOH     H1 2038   3.019   1.290   3.472
  617HOH     H2 2039   3.096   1.168   3.425
  618HOH      O 2040   0.904   2.783   3.624
  618HOH     H1 2041   0.828   2.740   3.663
  618HOH     H2 2042   0.899   2.762   3.531
  619HOH      O 2043   2.687   0.562   0.593
  619HOH     H1 2044   2.597   0.560   0.561
  619HOH     H2 2045   2.737   0.516   0.527
  620HOH      O 2046   2.849   2.202   3.470
  620HOH     H1 2047   2.821   2.280   3.517
  620HOH     H2 2048   2.919   2.233   3.412
  621HOH      O 2049   3.102   3.298   0.761
  621HOH     H1 2050   3.123   3.361   0.830
  621HOH     H2 2051   3.187   3.269   0.729
  622HOH      O 2052   0.312   0.968   2.721
  622HOH     H1 2053   0.230   0.938   2.682
  622HOH     H2 2054   0.351   1.024   2.654
  623HOH      O 2055   3.691   3.140   1.568
  623HOH     H1 2056   3.756   3.134   1.639
  623HOH     H2 2057   3.651   3.226   1.581
  624HOH      O 2058   1.218   2.367   0.866
  624HOH     H1 2059   1.147   2.303   0.865
  624HOH     H2 2060   1.190   2.434   0.804
  625HOH      O 2061   2.195   3.068   1.790
  625HOH     H1 2062   2.194   3.116   1.873
  625HOH     H2 2063   2.120   3.103   1.742
  626HOH      O 2064   1.460   0.223   1.127
  626HOH     H1 2065   1.373   0.196   1.097
  626HOH     H2 2066   1.449   0.240   1.220
  627HOH      O 2067   0.038   1.462   0.492
  627HOH     H1 2068  -0.026   1.533   0.492
  627HOH     H2 2069  -0.007   1.389   0.534
  628HOH      O 2070   0.946   3.026   0.480
  628HOH     H1 2071   0.964   3.056   0.569
  628HOH     H2 2072   0.955   3.104   0.426
  629HOH      O 2073   3.067   3.944   2.025
  629HOH     H1 2074   3.020   3.883   1.968
  629HOH     H2 2075   3.054   4.030   1.985
  630HOH      O 2076   3.886   0.216   0.495
  630HOH     H1 2077   3.877   0.302   0.455
  630HOH     H2 2078   3.847   0.156   0.431
  631HOH      O 2079   1.790   2.138   0.618
  631HOH     H1 2080   1.797   2.215   0.675
  631HOH     H2 2081   1.848   2.156   0.545
  632HOH      O 2082   2.442   0.118   3.099
  632HOH     H1 2083   2.496   0.045   3.130
  632HOH     H2 2084   2.365   0.076   3.061
  633HOH      O 2085   2.785   0.419   0.368
  633HOH     H1 2086   2.814   0.370   0.445
  633HOH     H2 2087   2.737   0.355   0.316
  634HOH      O 2088   2.849   1.765   1.692
  634HOH     H1 2089   2.788   1.739   1.623
  634HOH     H2 2090   2.817   1.721   1.771
  635HOH      O 2091   2.655   3.072   1.945
  635HOH     H1 2092   2.611   3.042   1.866
  635HOH     H2 2093   2.659   3.168   1.935
  636HOH      O 2094   0.828   0.344   3.096
  636HOH     H1 2095   0.766   0.306   3.034
  636HOH     H2 2096   0.790   0.429   3.119
  637HOH      O 2097   3.651   3.494   2.712
  637HOH     H1 2098   3.703   3.573   2.701
  637HOH     H2 2099   3.587   3.498   2.640
  638HOH      O 2100   3.346   0.238   0.048
  638HOH     H1 2101   3.297   0.310   0.088
  638HOH     H2 2102   3.281   0.169   0.033
  639HOH      O 2103   0.450   2.145   2.358
  639HOH     H1 2104   0.427   2.053   2.362
  639HOH     H2 2105   0.373   2.188   2.320
  640HOH      O 2106   3.426   1.261   2.301
  640HOH     H1 2107   3.341   1.295   2.331
  640HOH     H2 2108   3.475   1.248   2.382
  641HOH      O 2109   0.465   1.036   2.509
  641HOH     H1 2110   0.432   1.091   2.437
  641HOH     H2 2111   0.559   1.053   2.510
  642HOH      O 2112   1.866   0.985   3.883
  642HOH     H1 2113   1.799   0.918   3.893
  642HOH     H2 2114   1.949   0.937   3.885
  643HOH      O 2115   1.987   2.204   3.094
  643HOH     H1 2116   2.012   2.240   3.180
  643HOH     H2 2117   2.071   2.188   3.050
  644HOH      O 2118   2.608   1.466   3.484
  644HOH     H1 2119   2.577   1.457   3.394
  644HOH     H2 2120   2.623   1.560   3.494
  645HOH      O 2121   1.053   0.223   1.324
  645HOH     H1 2122   0.982   0.175   1.282
  645HOH     H2 2123   1.133   0.178   1.295
  646HOH      O 2124   3.126   3.834   0.300
  646HOH     H1 2125   3.066   3.839   0.375
  646HOH     H2 2126   3.149   3.742   0.294
  647HOH      O 2127   1.302   0.568   1.748
  647HOH     H1 2128   1.333   0.567   1.839
  647HOH     H2 2129   1.354   0.637   1.706
  648HOH      O 2130   1.366   0.798   2.845
  648HOH     H1 2131   1.323   0.856   2.782
  648HOH     H2 2132   1.420   0.857   2.898
  649HOH      O 2133   1.084   2.225   3.821
  649HOH     H1 2134   1.159   2.269   3.782
  649HOH     H2 2135   1.008   2.264   3.776
  650HOH      O 2136   1.143   0.813   1.412
  650HOH     H1 2137   1.141   0.726   1.372
  650HOH     H2 2138   1.235   0.829   1.433
  651HOH      O 2139   3.616   1.528   2.451
  651HOH     H1 2140   3.705   1.558   2.466
  651HOH     H2 2141   3.610   1.514   2.357
  652HOH      O 2142   1.219   3.537   0.444
  652HOH     H1 2143   1.261   3.607   0.494
  652HOH     H2 2144   1.149   3.506   0.502
  653HOH      O 2145   3.411   2.362   3.138
  653HOH     H1 2146   3.366   2.412   3.205
  653HOH     H2 2147   3.353   2.366   3.062
  654HOH      O 2148   0.231   3.620   0.755
  654HOH     H1 2149   0.197   3.534   0.780
  654HOH     H2 2150   0.153   3.671   0.734
  655HOH      O 2151   2.834   2.344   0.281
  655HOH     H1 2152   2.915   2.389   0.258
  655HOH     H2 2153   2.840   2.330   0.376
  656HOH      O 2154   3.090   0.998   2.733
  656HOH     H1 2155   3.139   1.011   2.652
  656HOH     H2 2156   3.070   0.905   2.734
  657HOH      O 2157   1.433   1.764   2.548
  657HOH     H1 2158   1.357   1.816   2.524
  657HOH     H2 2159   1.507   1.808   2.507
  658HOH      O 2160   2.817   0.734   2.214
  658HOH     H1 2161   2.883   0.787   2.170
  658HOH     H2 2162   2.866   0.685   2.280
  659HOH      O 2163   2.687   0.883   0.615
  659HOH     H1 2164   2.723   0.796   0.598
  659HOH     H2 2165   2.705   0.932   0.535
  660HOH      O 2166   3.820   1.082   1.550
  660HOH     H1 2167   3.869   1.114   1.474
  660HOH     H2 2168   3.757   1.021   1.514
  661HOH      O 2169   3.411   0.904   3.075
  661HOH     H1 2170   3.323   0.915   3.111
  661HOH     H2 2171   3.469   0.945   3.140
  662HOH      O 2172   2.311   1.838   3.935
  662HOH     H1 2173   2.320   1.844   3.840
  662HOH     H2 2174   2.400   1.822   3.967
  663HOH      O 2175   0.503   1.071   1.330
  663HOH     H1 2176   0.491   1.166   1.339
  663HOH     H2 2177   0.441   1.033   1.392
  664HOH      O 2178   1.938   1.307   3.609
  664HOH     H1 2179   1.988   1.384   3.581
  664HOH     H2 2180   2.005   1.245   3.639
  665HOH      O 2181   0.526   3.714   1.674
  665HOH     H1 2182   0.558   3.679   1.758
  665HOH     H2 2183   0.593   3.776   1.647
  666HOH      O 2184   0.098   3.041   2.840
  666HOH     H1 2185   0.043   2.965   2.857
  666HOH     H2 2186   0.176   3.005   2.797
  667HOH      O 2187   0.440   2.806   3.365
  667HOH     H1 2188   0.432   2.716   3.334
  667HOH     H2 2189   0.417   2.859   3.289
  668HOH      O 2190   2.657   1.381   1.639
  668HOH     H1 2191   2.709   1.419   1.569
  668HOH     H2 2192   2.569   1.416   1.626
  669HOH      O 2193   1.078   0.542   0.797
  669HOH     H1 2194   1.141   0.542   0.869
  669HOH     H2 2195   1.128   0.510   0.721
  670HOH      O 2196   1.700   1.603   3.929
  670HOH     H1 2197   1.742   1.631   4.011
  670HOH     H2 2198   1.745   1.653   3.861
  671HOH      O 2199   2.160   3.161   2.063
  671HOH     H1 2200   2.088   3.198   2.115
  671HOH     H2 2201   2.226   3.230   2.061
  672HOH      O 2202   3.918   0.445   3.701
  672HOH     H1 2203   3.939   0.503   3.628
  672HOH     H2 2204   3.871   0.372   3.661
  673HOH      O 2205   3.371   2.970   2.067
  673HOH     H1 2206   3.380   3.019   1.986
  673HOH     H2 2207   3.300   3.014   2.114
  674HOH      O 2208   2.838   0.290   1.727
  674HOH     H1 2209   2.872   0.201   1.715
  674HOH     H2 2210   2.834   0.327   1.638
  675HOH      O 2211   0.433   0.375   2.789
  675HOH     H1 2212   0.376   0.429   2.844
  675HOH     H2 2213   0.521   0.406   2.809
  676HOH      O 2214   2.054   1.256   0.195
  676HOH     H1 2215   2.001   1.270   0.116
  676HOH     H2 2216   1.993   1.222   0.260
  677HOH      O 2217   1.098   3.952   3.501
  677HOH     H1 2218   1.094   4.046   3.482
  677HOH     H2 2219   1.039   3.912   3.438
  678HOH      O 2220   1.417   0.885   2.467
  678HOH     H1 2221   1.342   0.912   2.520
  678HOH     H2 2222   1.490   0.938   2.501
  679HOH      O 2223   0.099   2.302   1.809
  679HOH     H1 2224   0.102   2.206   1.803
  679HOH     H2 2225   0.023   2.320   1.864
  680HOH      O 2226   2.096   0.944   3.582
  680HOH     H1 2227   2.022   0.923   3.638
  680HOH     H2 2228   2.125   1.030   3.612
  681HOH      O 2229   1.582   0.524   0.525
  681HOH     H1 2230   1.657   0.465   0.526
  681HOH     H2 2231   1.538   0.507   0.442
  682HOH      O 2232   2.970   3.350   1.288
  682HOH     H1 2233   2.982   3.257   1.308
  682HOH     H2 2234   2.879   3.368   1.313
  683HOH      O 2235   2.084   2.592   1.313
  683HOH     H1 2236   2.156   2.655   1.319
  683HOH     H2 2237   2.080   2.568   1.221
  684HOH      O 2238   0.029   0.648   3.249
  684HOH     H1 2239   0.027   0.728   3.196
  684HOH     H2 2240  -0.053   0.603   3.228
  685HOH      O 2241   1.862   2.019   3.380
  685HOH     H1 2242   1.952   2.023   3.411
  685HOH     H2 2243   1.823   1.947   3.430
  686HOH      O 2244   0.675   0.879   0.365
  686HOH     H1 2245   0.749   0.893   0.306
  686HOH     H2 2246   0.708   0.820   0.432
  687HOH      O 2247   0.329   0.184   2.582
  687HOH     H1 2248   0.236   0.191   2.601
  687HOH     H2 2249   0.371   0.247   2.641
  688HOH      O 2250   3.273   0.713   0.984
  688HOH     H1 2251   3.291   0.640   0.924
  688HOH     H2 2252   3.357   0.730   1.027
  689HOH      O 2253   0.959   1.456   1.503
  689HOH     H1 2254   1.039   1.453   1.450
  689HOH     H2 2255   0.964   1.379   1.559
  690HOH      O 2256   2.154   1.948   0.191
  690HOH     H1 2257   2.164   1.984   0.103
  690HOH     H2 2258   2.234   1.975   0.238
  691HOH      O 2259   2.599   3.633   0.917
  691HOH     H1 2260   2.586   3.550   0.964
  691HOH     H2 2261   2.669   3.615   0.855
  692HOH      O 2262   1.226   0.486   0.287
  692HOH     H1 2263   1.321   0.472   0.293
  692HOH     H2 2264   1.202   0.451   0.202
  693HOH      O 2265   2.297   1.232   1.765
  693HOH     H1 2266   2.380   1.184   1.760
  693HOH     H2 2267   2.238   1.173   1.813
  694HOH      O 2268   2.247   3.465   0.146
  694HOH     H1 2269   2.187   3.415   0.202
  694HOH     H2 2270   2.302   3.513   0.208
  695HOH      O 2271   1.754   3.028   3.774
  695HOH     H1 2272   1.807   2.988   3.843
  695HOH     H2 2273   1.685   3.075   3.820
  696HOH      O 2274   3.346   2.756   1.785
  696HOH     H1 2275   3.258   2.744   1.823
  696HOH     H2 2276   3.403   2.700   1.838
  697HOH      O 2277   2.184   2.967   2.488
  697HOH     H1 2278   2.258   2.913   2.464
  697HOH     H2 2279   2.132   2.913   2.547
  698HOH      O 2280   2.513   0.021   2.056
  698HOH     H1 2281   2.466   0.104   2.057
  698HOH     H2 2282   2.598   0.041   2.096
  699HOH      O 2283   2.937   1.783   3.987
  699HOH     H1 2284   2.902   1.710   4.038
  699HOH     H2 2285   2.931   1.754   3.896
  700HOH      O 2286   0.999   2.149   0.266
  700HOH     H1 2287   0.916   2.175   0.305
  700HOH     H2 2288   1.016   2.062   0.302
  701HOH      O 2289   1.467   1.300   1.836
  701HOH     H1 2290   1.483   1.389   1.869
  701HOH     H2 2291   1.440   1.251   1.914
  702HOH      O 2292   2.994   3.200   2.035
  702HOH     H1 2293   2.975   3.227   1.945
  702HOH     H2 2294   2.918   3.149   2.060
  703HOH      O 2295   3.877   0.966   3.937
  703HOH     H1 2296   3.817   0.893   3.951
  703HOH     H2 2297   3.963   0.932   3.964
  704HOH      O 2298   2.638   0.904   3.818
  704HOH     H1 2299   2.695   0.876   3.889
  704HOH     H2 2300   2.576   0.832   3.806
  705HOH      O 2301   0.913   1.701   0.866
  705HOH     H1 2302   0.977   1.735   0.928
  705HOH     H2 2303   0.865   1.635   0.915
  706HOH      O 2304   0.283   0.154   3.573
  706HOH     H1 2305   0.277   0.067   3.611
  706HOH     H2 2306   0.219   0.206   3.623
  707HOH      O 2307   1.280   3.906   2.111
  707HOH     H1 2308   1.356   3.914   2.053
  707HOH     H2 2309   1.205   3.929   2.055
  708HOH      O 2310   1.138   1.185   0.565
  708HOH     H1 2311   1.088   1.115   0.607
  708HOH     H2 2312   1.072   1.242   0.526
  709HOH      O 2313   0.667   2.723   1.332
  709HOH     H1 2314   0.625   2.637   1.341
  709HOH     H2 2315   0.608   2.784   1.376
  710HOH      O 2316   1.578   3.046   1.878
  710HOH     H1 2317   1.594   3.106   1.951
  710HOH     H2 2318   1.644   3.070   1.813
  711HOH      O 2319   3.825   3.805   2.061
  711HOH     H1 2320   3.736   3.834   2.042
  711HOH     H2 2321   3.835   3.819   2.155
  712HOH      O 2322   1.834   2.351   0.778
  712HOH     H1 2323   1.821   2.336   0.872
  712HOH     H2 2324   1.856   2.444   0.772
  713HOH      O 2325   2.381   2.141   0.242
  713HOH     H1 2326   2.363   2.229   0.208
  713HOH     H2 2327   2.476   2.134   0.239
  714HOH      O 2328   0.929   0.768   0.789
  714HOH     H1 2329   0.908   0.795   0.878
  714HOH     H2 2330   0.966   0.680   0.798
  715HOH      O 2331   3.649   2.802   1.483
  715HOH     H1 2332   3.568   2.764   1.516
  715HOH     H2 2333   3.657   2.887   1.527
  716HOH      O 2334   2.117   2.089   3.500
  716HOH     H1 2335   2.182   2.023   3.525
  716HOH     H2 2336   2.072   2.110   3.582
  717HOH      O 2337   2.403   0.110   0.760
  717HOH     H1 2338   2.473   0.166   0.793
  717HOH     H2 2339   2.443   0.061   0.688
  718HOH      O 2340   1.701   2.153   2.041
  718HOH     H1 2341   1.677   2.245   2.036
  718HOH     H2 2342   1.789   2.149   2.005
  719HOH      O 2343   2.513   2.089   3.855
  719HOH     H1 2344   2.581   2.022   3.858
  719HOH     H2 2345   2.556   2.168   3.887
  720HOH      O 2346   2.292   2.815   2.772
  720HOH     H1 2347   2.213   2.761   2.774
  720HOH     H2 2348   2.361   2.756   2.744
  721HOH      O 2349   1.513   2.213   0.604
  721HOH     H1 2350   1.533   2.245   0.516
  721HOH     H2 2351   1.593   2.169   0.632
  722HOH      O 2352   1.970   3.708   0.140
  722HOH     H1 2353   2.032   3.673   0.076
  722HOH     H2 2354   1.889   3.721   0.091
  723HOH      O 2355   0.217   2.565   2.417
  723HOH     H1 2356   0.277   2.533   2.350
  723HOH     H2 2357   0.182   2.647   2.382
  724HOH      O 2358   2.282   1.331   0.564
  724HOH     H1 2359   2.189   1.321   0.584
  724HOH     H2 2360   2.327   1.285   0.635
  725HOH      O 2361   2.472   0.659   0.389
  725HOH     H1 2362   2.469   0.616   0.304
  725HOH     H2 2363   2.487   0.751   0.369
  726HOH      O 2364   3.693   0.553   1.710
  726HOH     H1 2365   3.667   0.462   1.728
  726HOH     H2 2366   3.786   0.548   1.692
  727HOH      O 2367   3.882   0.029   0.029
  727HOH     H1 2368   3.820  -0.044   0.035
  727HOH     H2 2369   3.867   0.066  -0.058
  728HOH      O 2370   3.423   2.687   0.261
  728HOH     H1 2371   3.352   2.735   0.217
  728HOH     H2 2372   3.432   2.607   0.210
  729HOH      O 2373   2.338   0.588   1.628
  729HOH     H1 2374   2.304   0.510   1.672
  729HOH     H2 2375   2.286   0.660   1.663
  730HOH      O 2376   0.043   0.134   2.348
  730HOH     H1 2377   0.004   0.125   2.261
  730HOH     H2 2378   0.131   0.167   2.332
  731HOH      O 2379   3.745   0.255   0.074
  731HOH     H1 2380   3.822   0.205   0.100
  731HOH     H2 2381   3.687   0.190   0.033
  732HOH      O 2382   0.902   2.469   1.111
  732HOH     H1 2383   0.842   2.441   1.181
  732HOH     H2 2384   0.987   2.433   1.137
  733HOH      O 2385   2.288   3.075   2.914
  733HOH     H1 2386   2.255   3.000   2.864
  733HOH     H2 2387   2.252   3.151   2.869
  734HOH      O 2388   1.298   2.199   3.049
  734HOH     H1 2389   1.250   2.281   3.039
  734HOH     H2 2390   1.341   2.186   2.964
  735HOH      O 2391   2.403   2.444   0.238
  735HOH     H1 2392   2.446   2.400   0.310
  735HOH     H2 2393   2.448   2.529   0.231
  736HOH      O 2394   2.837   1.539   2.167
  736HOH     H1 2395   2.886   1.541   2.249
  736HOH     H2 2396   2.838   1.447   2.141
  737HOH      O 2397   3.934   0.595   1.596
  737HOH     H1 2398   3.920   0.535   1.523
  737HOH     H2 2399   3.980   0.669   1.557
  738HOH      O 2400   1.230   0.787   3.547
  738HOH     H1 2401   1.234   0.693   3.563
  738HOH     H2 2402   1.219   0.795   3.452
  739HOH      O 2403   2.582   1.277   2.261
  739HOH     H1 2404   2.592   1.284   2.166
  739HOH     H2 2405   2.634   1.200   2.285
  740HOH      O 2406   3.788   1.444   1.026
  740HOH     H1 2407   3.728   1.412   1.094
  740HOH     H2 2408   3.867   1.391   1.037
  741HOH      O 2409   1.629   2.655   0.777
  741HOH     H1 2410   1.675   2.650   0.861
  741HOH     H2 2411   1.584   2.571   0.770
  742HOH      O 2412   3.754   1.870   3.682
  742HOH     H1 2413   3.678   1.826   3.720
  742HOH     H2 2414   3.828   1.814   3.705
  743HOH      O 2415   1.848   0.380   0.489
  743HOH     H1 2416   1.873   0.322   0.561
  743HOH     H2 2417   1.891   0.463   0.509
  744HOH      O 2418   1.190   1.978   3.151
  744HOH     H1 2419   1.205   2.071   3.134
  744HOH     H2 2420   1.248   1.932   3.090
  745HOH      O 2421   2.620   0.259   0.848
  745HOH     H1 2422   2.588   0.340   0.887
  745HOH     H2 2423   2.709   0.248   0.883
  746HOH      O 2424   0.889   0.816   3.623
  746HOH     H1 2425   0.968   0.803   3.676
  746HOH     H2 2426   0.859   0.904   3.645
  747HOH      O 2427   1.468   2.071   2.061
  747HOH     H1 2428   1.563   2.082   2.062
  747HOH     H2 2429   1.434   2.156   2.032
  748HOH      O 2430   1.054   0.304   1.594
  748HOH     H1 2431   0.992   0.371   1.623
  748HOH     H2 2432   1.042   0.299   1.499
  749HOH      O 2433   0.518   2.937   3.890
  749HOH     H1 2434   0.448   2.983   3.937
  749HOH     H2 2435   0.588   2.928   3.956
  750HOH      O 2436   1.031   2.497   3.446
  750HOH     H1 2437   1.088   2.498   3.369
  750HOH     H2 2438   0.950   2.538   3.417
  751HOH      O 2439   1.473   2.109   2.842
  751HOH     H1 2440   1.423   2.080   2.766
  751HOH     H2 2441   1.548   2.155   2.805
  752HOH      O 2442   3.958   0.869   3.678
  752HOH     H1 2443   4.029   0.817   3.715
  752HOH     H2 2444   3.918   0.912   3.753
  753HOH      O 2445   0.685   3.957   3.547
  753HOH     H1 2446   0.776   3.978   3.567
  753HOH     H2 2447   0.683   3.861   3.545
  754HOH      O 2448   2.895   0.291   3.439
  754HOH     H1 2449   2.849   0.210   3.418
  754HOH     H2 2450   2.837   0.361   3.410
  755HOH      O 2451   3.896   1.250   0.615
  755HOH     H1 2452   3.927   1.160   0.622
  755HOH     H2 2453   3.842   1.251   0.536
  756HOH      O 2454   2.357   1.153   0.790
  756HOH     H1 2455   2.325   1.178   0.877
  756HOH     H2 2456   2.445   1.118   0.806
  757HOH      O 2457   3.793   1.260   0.335
  757HOH     H1 2458   3.711   1.310   0.329
  757HOH     H2 2459   3.770   1.172   0.305
  758HOH      O 2460   0.494   2.115   3.795
  758HOH     H1 2461   0.559   2.159   3.741
  758HOH     H2 2462   0.432   2.184   3.819
  759HOH      O 2463   1.066   3.942   0.388
  759HOH     H1 2464   0.991   3.989   0.424
  759HOH     H2 2465   1.027   3.872   0.335
  760HOH      O 2466   0.588   1.516  -0.002
  760HOH     H1 2467   0.559   1.525   0.089
  760HOH     H2 2468   0.556   1.595  -0.045
  761HOH      O 2469   1.992   0.641   0.523
  761HOH     H1 2470   2.008   0.662   0.616
  761HOH     H2 2471   1.933   0.710   0.493
  762HOH      O 2472   1.010   2.041   1.456
  762HOH     H1 2473   0.934   2.093   1.480
  762HOH     H2 2474   0.977   1.978   1.391
  763HOH      O 2475   3.477   3.007   1.760
  763HOH     H1 2476   3.408   3.067   1.789
  763HOH     H2 2477   3.440   2.920   1.771
  764HOH      O 2478   3.353   0.192   2.135
  764HOH     H1 2479   3.440   0.161   2.111
  764HOH     H2 2480   3.320   0.127   2.197
  765HOH      O 2481   1.818   0.524   0.951
  765HOH     H1 2482   1.879   0.572   1.007
  765HOH     H2 2483   1.788   0.451   1.005
  766HOH      O 2484   0.127   0.101   0.450
  766HOH     H1 2485   0.070   0.058   0.513
  766HOH     H2 2486   0.098   0.067   0.365
  767HOH      O 2487   1.947   0.053   1.584
  767HOH     H1 2488   2.006   0.103   1.642
  767HOH     H2 2489   1.867   0.042   1.636
  768HOH      O 2490   3.792   3.581   1.887
  768HOH     H1 2491   3.850   3.626   1.826
  768HOH     H2 2492   3.772   3.646   1.954
  769HOH      O 2493   1.791   2.503   1.761
  769HOH     H1 2494   1.867   2.481   1.815
  769HOH     H2 2495   1.826   2.513   1.673
  770HOH      O 2496   1.339   2.491   0.301
  770HOH     H1 2497   1.405   2.534   0.247
  770HOH     H2 2498   1.347   2.532   0.387
  771HOH      O 2499   3.893   1.610   0.769
  771HOH     H1 2500   3.854   1.676   0.712
  771HOH     H2 2501   3.874   1.640   0.858
  772HOH      O 2502   1.850   2.436   3.669
  772HOH     H1 2503   1.819   2.510   3.721
  772HOH     H2 2504   1.933   2.466   3.632
  773HOH      O 2505   3.001   0.081   0.892
  773HOH     H1 2506   2.958   0.167   0.896
  773HOH     H2 2507   3.040   0.079   0.805
  774HOH      O 2508   2.120   3.912   3.630
  774HOH     H1 2509   2.187   3.868   3.577
  774HOH     H2 2510   2.088   3.844   3.690
  775HOH      O 2511   0.627   3.818   2.433
  775HOH     H1 2512   0.594   3.730   2.413
  775HOH     H2 2513   0.551   3.864   2.468
  776HOH      O 2514   0.417   3.548   3.231
  776HOH     H1 2515   0.360   3.476   3.205
  776HOH     H2 2516   0.505   3.509   3.235
  777HOH      O 2517   1.460   3.341   3.379
  777HOH     H1 2518   1.439   3.322   3.471
  777HOH     H2 2519   1.556   3.348   3.378
  778HOH      O 2520   0.688   3.302   2.367
  778HOH     H1 2521   0.768   3.250   2.362
  778HOH     H2 2522   0.636   3.261   2.436
  779HOH      O 2523   3.887   3.236   1.316
  779HOH     H1 2524   3.907   3.156   1.364
  779HOH     H2 2525   3.932   3.305   1.365
  780HOH      O 2526   0.748   2.364   3.994
  780HOH     H1 2527   0.738   2.270   4.003
  780HOH     H2 2528   0.659   2.397   3.991
  781HOH      O 2529   0.510   2.544   3.296
  781HOH     H1 2530   0.473   2.458   3.276
  781HOH     H2 2531   0.551   2.534   3.381
  782HOH      O 2532   0.836   0.739   0.527
  782HOH     H1 2533   0.856   0.750   0.620
  782HOH     H2 2534   0.920   0.753   0.483
  783HOH      O 2535   2.494   2.109   2.042
  783HOH     H1 2536   2.500   2.204   2.036
  783HOH     H2 2537   2.466   2.082   1.954
  784HOH      O 2538   3.268   4.038   2.328
  784HOH     H1 2539   3.248   3.948   2.304
  784HOH     H2 2540   3.238   4.047   2.418
  785HOH      O 2541   3.749   0.256   3.586
  785HOH     H1 2542   3.655   0.250   3.601
  785HOH     H2 2543   3.758   0.303   3.503
  786HOH      O 2544   0.790   3.832   3.903
  786HOH     H1 2545   0.791   3.912   3.850
  786HOH     H2 2546   0.806   3.762   3.839
  787HOH      O 2547   2.819   2.914   1.322
  787HOH     H1 2548   2.742   2.955   1.361
  787HOH     H2 2549   2.799   2.909   1.229
  788HOH      O 2550   1.438   1.472   0.265
  788HOH     H1 2551   1.533   1.457   0.267
  788HOH     H2 2552   1.401   1.394   0.306
  789HOH      O 2553   2.490   1.804   0.971
  789HOH     H1 2554   2.495   1.747   0.894
  789HOH     H2 2555   2.406   1.784   1.011
  790HOH      O 2556   2.615   2.006   3.401
  790HOH     H1 2557   2.672   2.081   3.422
  790HOH     H2 2558   2.669   1.951   3.344
  791HOH      O 2559   1.950   3.707   3.339
  791HOH     H1 2560   2.002   3.665   3.407
  791HOH     H2 2561   1.898   3.635   3.301
  792HOH      O 2562   2.000   2.442   1.921
  792HOH     H1 2563   2.001   2.519   1.977
  792HOH     H2 2564   2.087   2.441   1.881
  793HOH      O 2565   2.872   3.623   1.558
  793HOH     H1 2566   2.951   3.657   1.516
  793HOH     H2 2567   2.880   3.528   1.551
  794HOH      O 2568   2.727   1.143   1.540
  794HOH     H1 2569   2.699   1.230   1.568
  794HOH     H2 2570   2.646   1.098   1.516
  795HOH      O 2571   1.469   3.082   2.766
  795HOH     H1 2572   1.513   2.997   2.768
  795HOH     H2 2573   1.503   3.129   2.842
  796HOH      O 2574   0.506   0.856   3.519
  796HOH     H1 2575   0.482   0.905   3.440
  796HOH     H2 2576   0.446   0.889   3.586
  797HOH      O 2577   3.632   1.233   3.095
  797HOH     H1 2578   3.561   1.185   3.137
  797HOH     H2 2579   3.588   1.302   3.045
  798HOH      O 2580   0.763   1.307   0.308
  798HOH     H1 2581   0.731   1.271   0.390
  798HOH     H2 2582   0.850   1.342   0.330
  799HOH      O 2583   3.042   1.109   2.362
  799HOH     H1 2584   3.094   1.078   2.437
  799HOH     H2 2585   3.089   1.185   2.330
  800HOH      O 2586   2.184   0.787   1.743
  800HOH     H1 2587   2.214   0.869   1.782
  800HOH     H2 2588   2.102   0.810   1.699
  801HOH      O 2589   3.646   1.903   1.680
  801HOH     H1 2590   3.710   1.863   1.621
  801HOH     H2 2591   3.562   1.885   1.638
  802HOH      O 2592   0.286   0.903   0.041
  802HOH     H1 2593   0.328   0.943   0.117
  802HOH     H2 2594   0.355   0.899  -0.025
  803HOH      O 2595   1.131   2.566   0.691
  803HOH     H1 2596   1.075   2.547   0.616
  803HOH     H2 2597   1.156   2.658   0.680
  804HOH      O 2598   1.927   1.087   2.954
  804HOH     H1 2599   1.920   0.995   2.978
  804HOH     H2 2600   2.020   1.099   2.935
  805HOH      O 2601   0.770   3.707   0.591
  805HOH     H1 2602   0.711   3.632   0.582
  805HOH     H2 2603   0.760   3.755   0.509
  806HOH      O 2604   1.669   2.846   1.443
  806HOH     H1 2605   1.659   2.921   1.502
  806HOH     H2 2606   1.749   2.802   1.473
  807HOH      O 2607   1.931   3.843   0.972
  807HOH     H1 2608   1.954   3.855   0.880
  807HOH     H2 2609   1.987   3.773   1.003
  808HOH      O 2610   0.933   0.144   2.581
  808HOH     H1 2611   1.002   0.120   2.519
  808HOH     H2 2612   0.980   0.168   2.661
  809HOH      O 2613   0.436   1.540   2.814
  809HOH     H1 2614   0.519   1.562   2.857
  809HOH     H2 2615   0.461   1.484   2.741
  810HOH      O 2616   0.258   1.691   0.111
  810HOH     H1 2617   0.194   1.629   0.075
  810HOH     H2 2618   0.315   1.712   0.038
  811HOH      O 2619   3.791   3.143   2.253
  811HOH     H1 2620   3.794   3.098   2.169
  811HOH     H2 2621   3.710   3.194   2.250
  812HOH      O 2622   1.155   3.313   1.412
  812HOH     H1 2623   1.094   3.387   1.406
  812HOH     H2 2624   1.128   3.266   1.491
  813HOH      O 2625   3.118   0.513   1.594
  813HOH     H1 2626   3.167   0.568   1.533
  813HOH     H2 2627   3.070   0.575   1.650
  814HOH      O 2628   3.717   3.369   2.039
  814HOH     H1 2629   3.799   3.337   2.001
  814HOH     H2 2630   3.718   3.463   2.021
  815HOH      O 2631   1.705   0.052   0.339
  815HOH     H1 2632   1.622   0.068   0.386
  815HOH     H2 2633   1.683  -0.017   0.276
  816HOH      O 2634   0.593   3.027   2.810
  816HOH     H1 2635   0.581   2.933   2.801
  816HOH     H2 2636   0.505   3.061   2.827
  817HOH      O 2637   0.678   3.198   2.078
  817HOH     H1 2638   0.763   3.161   2.098
  817HOH     H2 2639   0.663   3.264   2.145
  818HOH      O 2640   0.454   1.475   0.690
  818HOH     H1 2641   0.426   1.567   0.690
  818HOH     H2 2642   0.544   1.478   0.658
  819HOH      O 2643   2.233   3.010   0.307
  819HOH     H1 2644   2.231   3.104   0.290
  819HOH     H2 2645   2.141   2.983   0.305
  820HOH      O 2646   1.122   0.066   3.864
  820HOH     H1 2647   1.174   0.095   3.790
  820HOH     H2 2648   1.157  -0.021   3.886
  821HOH      O 2649   0.201   3.486   0.266
  821HOH     H1 2650   0.248   3.494   0.183
  821HOH     H2 2651   0.156   3.402   0.261
  822HOH      O 2652   0.979   0.731   1.604
  822HOH     H1 2653   0.893   0.727   1.561
  822HOH     H2 2654   1.042   0.730   1.532
  823HOH      O 2655   0.397   3.888   2.055
  823HOH     H1 2656   0.428   3.930   1.975
  823HOH     H2 2657   0.403   3.957   2.122
  824HOH      O 2658   0.219   1.807   1.208
  824HOH     H1 2659   0.211   1.861   1.287
  824HOH     H2 2660   0.304   1.764   1.218
  825HOH      O 2661   0.360   0.301   1.470
  825HOH     H1 2662   0.304   0.378   1.474
  825HOH     H2 2663   0.300   0.227   1.467
  826HOH      O 2664   2.575   2.360   1.638
  826HOH     H1 2665   2.594   2.294   1.705
  826HOH     H2 2666   2.486   2.390   1.660
  827HOH      O 2667   3.258   0.312   0.366
  827HOH     H1 2668   3.199   0.313   0.441
  827HOH     H2 2669   3.303   0.396   0.370
  828HOH      O 2670   1.022   2.817   0.779
  828HOH     H1 2671   0.963   2.767   0.722
  828HOH     H2 2672   1.004   2.785   0.867
  829HOH      O 2673   3.254   3.750   2.012
  829HOH     H1 2674   3.186   3.816   2.029
  829HOH     H2 2675   3.330   3.802   1.984
  830HOH      O 2676   1.188   3.332   1.870
  830HOH     H1 2677   1.236   3.291   1.942
  830HOH     H2 2678   1.157   3.415   1.907
  831HOH      O 2679   0.210   3.480   2.438
  831HOH     H1 2680   0.281   3.475   2.501
  831HOH     H2 2681   0.227   3.560   2.389
  832HOH      O 2682   2.799   1.298   0.375
  832HOH     H1 2683   2.874   1.355   0.357
  832HOH     H2 2684   2.792   1.297   0.470
  833HOH      O 2685   0.116   2.849   1.710
  833HOH     H1 2686   0.043   2.883   1.761
  833HOH     H2 2687   0.143   2.922   1.654
  834HOH      O 2688   3.118   0.569   2.603
  834HOH     H1 2689   3.089   0.602   2.518
  834HOH     H2 2690   3.134   0.476   2.588
  835HOH      O 2691   1.645   1.577   2.894
  835HOH     H1 2692   1.685   1.535   2.969
  835HOH     H2 2693   1.616   1.505   2.838
  836HOH      O 2694   2.751   3.726   3.693
  836HOH     H1 2695   2.666   3.770   3.696
  836HOH     H2 2696   2.795   3.764   3.617
  837HOH      O 2697   1.970   0.362   3.441
  837HOH     H1 2698   1.969   0.332   3.350
  837HOH     H2 2699   1.990   0.284   3.493
  838HOH      O 2700   3.173   2.545   3.286
  838HOH     H1 2701   3.117   2.622   3.283
  838HOH     H2 2702   3.202   2.540   3.377
  839HOH      O 2703   3.530   3.396   3.195
  839HOH     H1 2704   3.517   3.339   3.120
  839HOH     H2 2705   3.513   3.485   3.162
  840HOH      O 2706   0.794   0.278   0.661
  840HOH     H1 2707   0.835   0.266   0.746
  840HOH     H2 2708   0.847   0.346   0.618
  841HOH      O 2709   1.254   0.373   4.050
  841HOH     H1 2710   1.269   0.395   3.958
  841HOH     H2 2711   1.308   0.295   4.065
  842HOH      O 2712   3.827   1.681   2.209
  842HOH     H1 2713   3.769   1.750   2.242
  842HOH     H2 2714   3.786   1.654   2.127
  843HOH      O 2715   3.517   3.401   1.286
  843HOH     H1 2716   3.433   3.367   1.256
  843HOH     H2 2717   3.496   3.453   1.363
  844HOH      O 2718   1.578   1.126   0.708
  844HOH     H1 2719   1.569   1.060   0.639
  844HOH     H2 2720   1.638   1.086   0.771
  845HOH      O 2721   3.239   1.608   2.281
  845HOH     H1 2722   3.305   1.605   2.211
  845HOH     H2 2723   3.288   1.633   2.359
  846HOH      O 2724   0.132   2.682   0.665
  846HOH     H1 2725   0.049   2.663   0.708
  846HOH     H2 2726   0.198   2.660   0.731
  847HOH      O 2727   1.665   3.842   1.756
  847HOH     H1 2728   1.737   3.813   1.701
  847HOH     H2 2729   1.687   3.932   1.780
  848HOH      O 2730   3.260   0.241   3.265
  848HOH     H1 2731   3.190   0.273   3.209
  848HOH     H2 2732   3.337   0.294   3.242
  849HOH      O 2733   0.459   3.828   3.212
  849HOH     H1 2734   0.407   3.863   3.140
  849HOH     H2 2735   0.419   3.743   3.232
  850HOH      O 2736   3.172   3.853   3.660
  850HOH     H1 2737   3.154   3.862   3.566
  850HOH     H2 2738   3.092   3.885   3.702
  851HOH      O 2739   0.785   1.178   3.287
  851HOH     H1 2740   0.879   1.165   3.298
  851HOH     H2 2741   0.775   1.273   3.278
  852HOH      O 2742   0.079   0.205   2.678
  852HOH     H1 2743   0.033   0.286   2.700
  852HOH     H2 2744   0.081   0.155   2.759
  853HOH      O 2745   0.334   1.722   0.679
  853HOH     H1 2746   0.293   1.776   0.747
  853HOH     H2 2747   0.288   1.745   0.599
  854HOH      O 2748   2.123   0.089   3.036
  854HOH     H1 2749   2.122   0.051   3.124
  854HOH     H2 2750   2.031   0.098   3.012
  855HOH      O 2751   0.819   1.442   3.281
  855HOH     H1 2752   0.768   1.512   3.240
  855HOH     H2 2753   0.908   1.477   3.286
  856HOH      O 2754   2.021   2.139   2.184
  856HOH     H1 2755   2.009   2.135   2.089
  856HOH     H2 2756   2.112   2.116   2.198
  857HOH      O 2757   2.149   3.368   3.935
  857HOH     H1 2758   2.094   3.301   3.977
  857HOH     H2 2759   2.212   3.393   4.003
  858HOH      O 2760   2.316   2.623   1.944
  858HOH     H1 2761   2.363   2.706   1.932
  858HOH     H2 2762   2.280   2.628   2.032
  859HOH      O 2763   3.028   0.956   0.717
  859HOH     H1 2764   3.022   0.861   0.731
  859HOH     H2 2765   2.939   0.981   0.693
  860HOH      O 2766   3.483   2.944   0.880
  860HOH     H1 2767   3.520   2.937   0.792
  860HOH     H2 2768   3.500   2.858   0.920
  861HOH      O 2769   0.146   3.372   2.750
  861HOH     H1 2770   0.090   3.310   2.798
  861HOH     H2 2771   0.086   3.417   2.690
  862HOH      O 2772   3.915   1.994   2.721
  862HOH     H1 2773   3.831   1.984   2.676
  862HOH     H2 2774   3.980   1.982   2.652
  863HOH      O 2775   2.051   2.841   0.856
  863HOH     H1 2776   1.986   2.911   0.849
  863HOH     H2 2777   2.086   2.832   0.768
  864HOH      O 2778   1.181   3.844   3.877
  864HOH     H1 2779   1.121   3.776   3.845
  864HOH     H2 2780   1.264   3.823   3.835
  865HOH      O 2781   3.493   0.418   3.270
  865HOH     H1 2782   3.547   0.452   3.342
  865HOH     H2 2783   3.467   0.496   3.221
  866HOH      O 2784   1.508   1.375   1.165
  866HOH     H1 2785   1.584   1.432   1.169
  866HOH     H2 2786   1.434   1.434   1.149
  867HOH      O 2787   3.004   0.227   0.280
  867HOH     H1 2788   3.089   0.258   0.313
  867HOH     H2 2789   2.967   0.303   0.235
  868HOH      O 2790   1.097   3.462   3.430
  868HOH     H1 2791   1.058   3.391   3.481
  868HOH     H2 2792   1.175   3.423   3.390
  869HOH      O 2793   2.206   2.102   3.926
  869HOH     H1 2794   2.203   2.197   3.929
  869HOH     H2 2795   2.294   2.079   3.956
  870HOH      O 2796   1.210   2.871   0.224
  870HOH     H1 2797   1.119   2.884   0.196
  870HOH     H2 2798   1.203   2.829   0.310
  871HOH      O 2799   1.411   0.891   2.172
  871HOH     H1 2800   1.499   0.871   2.139
  871HOH     H2 2801   1.421   0.888   2.267
  872HOH      O 2802   0.085   0.709   1.206
  872HOH     H1 2803   0.074   0.627   1.255
  872HOH     H2 2804   0.051   0.776   1.265
  873HOH      O 2805   3.764   0.041   3.326
  873HOH     H1 2806   3.765   0.003   3.414
  873HOH     H2 2807   3.847   0.014   3.287
  874HOH      O 2808   0.805   2.693   0.222
  874HOH     H1 2809   0.775   2.752   0.290
  874HOH     H2 2810   0.835   2.615   0.268
  875HOH      O 2811   2.303   0.065   3.810
  875HOH     H1 2812   2.265   0.013   3.881
  875HOH     H2 2813   2.273   0.023   3.730
  876HOH      O 2814   2.156   2.860   3.582
  876HOH     H1 2815   2.207   2.895   3.656
  876HOH     H2 2816   2.127   2.774   3.612
  877HOH      O 2817   2.593   0.644   1.731
  877HOH     H1 2818   2.626   0.636   1.641
  877HOH     H2 2819   2.503   0.609   1.726
  878HOH      O 2820   2.852   2.983   0.192
  878HOH     H1 2821   2.847   2.888   0.204
  878HOH     H2 2822   2.760   3.010   0.183
  879HOH      O 2823   1.803   1.983   2.248
  879HOH     H1 2824   1.751   1.999   2.169
  879HOH     H2 2825   1.883   2.035   2.235
  880HOH      O 2826   3.638   1.033   2.361
  880HOH     H1 2827   3.596   1.031   2.275
  880HOH     H2 2828   3.668   1.124   2.371
  881HOH      O 2829   1.726   1.384   3.443
  881HOH     H1 2830   1.784   1.386   3.519
  881HOH     H2 2831   1.773   1.331   3.378
  882HOH      O 2832   1.318   2.113   3.530
  882HOH     H1 2833   1.372   2.108   3.452
  882HOH     H2 2834   1.377   2.091   3.602
  883HOH      O 2835   3.653   3.807   0.769
  883HOH     H1 2836   3.657   3.777   0.860
  883HOH     H2 2837   3.729   3.865   0.761
  884HOH      O 2838   2.516   1.343   2.795
  884HOH     H1 2839   2.525   1.435   2.770
  884HOH     H2 2840   2.558   1.337   2.881
  885HOH      O 2841   2.522   2.568   0.646
  885HOH     H1 2842   2.510   2.473   0.652
  885HOH     H2 2843   2.612   2.578   0.615
  886HOH      O 2844   1.229   1.578   0.106
  886HOH     H1 2845   1.234   1.672   0.090
  886HOH     H2 2846   1.274   1.566   0.190
  887HOH      O 2847   3.795   1.905   1.367
  887HOH     H1 2848   3.850   1.854   1.426
  887HOH     H2 2849   3.774   1.846   1.295
  888HOH      O 2850   3.525   2.407   1.580
  888HOH     H1 2851   3.595   2.434   1.521
  888HOH     H2 2852   3.505   2.317   1.556
  889HOH      O 2853   0.662   1.122   2.181
  889HOH     H1 2854   0.641   1.197   2.237
  889HOH     H2 2855   0.578   1.077   2.169
  890HOH      O 2856   0.043   0.365   2.020
  890HOH     H1 2857   0.004   0.397   2.102
  890HOH     H2 2858   0.067   0.444   1.972
  891HOH      O 2859   3.549   2.223   2.305
  891HOH     H1 2860   3.469   2.229   2.252
  891HOH     H2 2861   3.520   2.192   2.390
  892HOH      O 2862   1.245   1.948   0.863
  892HOH     H1 2863   1.224   1.915   0.775
  892HOH     H2 2864   1.161   1.948   0.909
  893HOH      O 2865   3.766   0.728   0.034
  893HOH     H1 2866   3.813   0.716   0.117
  893HOH     H2 2867   3.762   0.640  -0.004
  894HOH      O 2868   2.701   3.949   3.954
  894HOH     H1 2869   2.609   3.954   3.980
  894HOH     H2 2870   2.702   3.887   3.881
  895HOH      O 2871   0.123   2.810   0.964
  895HOH     H1 2872   0.137   2.818   1.059
  895HOH     H2 2873   0.069   2.731   0.955
  896HOH      O 2874   0.848   2.107   2.642
  896HOH     H1 2875   0.925   2.080   2.693
  896HOH     H2 2876   0.776   2.057   2.681
  897HOH      O 2877   3.917   0.902   2.420
  897HOH     H1 2878   3.884   0.823   2.376
  897HOH     H2 2879   3.851   0.968   2.403
  898HOH      O 2880   1.132   3.385   3.887
  898HOH     H1 2881   1.154   3.428   3.970
  898HOH     H2 2882   1.064   3.322   3.910
  899HOH      O 2883   2.468   1.698   2.826
  899HOH     H1 2884   2.405   1.638   2.866
  899HOH     H2 2885   2.433   1.785   2.845
  900HOH      O 2886   3.778   2.098   3.182
  900HOH     H1 2887   3.802   2.039   3.110
  900HOH     H2 2888   3.796   2.049   3.261
  901HOH      O 2889   1.753   1.418   2.012
  901HOH     H1 2890   1.748   1.431   1.917
  901HOH     H2 2891   1.748   1.323   2.023
  902HOH      O 2892   0.199   3.722   0.393
  902HOH     H1 2893   0.198   3.655   0.326
  902HOH     H2 2894   0.109   3.754   0.397
  903HOH      O 2895   1.752   4.003   3.276
  903HOH     H1 2896   1.699   4.039   3.206
  903HOH     H2 2897   1.840   3.994   3.238
  904HOH      O 2898   3.466   0.278   3.572
  904HOH     H1 2899   3.392   0.264   3.514
  904HOH     H2 2900   3.431   0.329   3.645
  905HOH      O 2901   0.156   1.176   0.687
  905HOH     H1 2902   0.118   1.263   0.693
  905HOH     H2 2903   0.249   1.191   0.669
  906HOH      O 2904   0.031   1.331   1.012
  906HOH     H1 2905   0.072   1.320   1.098
  906HOH     H2 2906   0.096   1.377   0.960
  907HOH      O 2907   2.671   1.331   3.029
  907HOH     H1 2908   2.683   1.412   2.981
  907HOH     H2 2909   2.755   1.287   3.023
  908HOH      O 2910   3.426   1.751   0.765
  908HOH     H1 2911   3.436   1.670   0.715
  908HOH     H2 2912   3.372   1.726   0.840
  909HOH      O 2913   1.845   3.328   1.336
  909HOH     H1 2914   1.776   3.394   1.330
  909HOH     H2 2915   1.854   3.294   1.247
  910HOH      O 2916   0.352   1.195   2.032
  910HOH     H1 2917   0.271   1.233   2.067
  910HOH     H2 2918   0.393   1.266   1.983
  911HOH      O 2919   2.008   0.064   2.664
  911HOH     H1 2920   2.043  -0.025   2.666
  911HOH     H2 2921   1.940   0.064   2.731
  912HOH      O 2922   3.076   0.881   2.194
  912HOH     H1 2923   3.063   0.964   2.242
  912HOH     H2 2924   3.165   0.888   2.158
  913HOH      O 2925   1.325   1.246   0.377
  913HOH     H1 2926   1.298   1.190   0.450
  913HOH     H2 2927   1.277   1.211   0.302
  914HOH      O 2928   3.498   0.729   2.277
  914HOH     H1 2929   3.540   0.763   2.198
  914HOH     H2 2930   3.406   0.718   2.253
  915HOH      O 2931   0.486   3.657   2.211
  915HOH     H1 2932   0.439   3.586   2.168
  915HOH     H2 2933   0.471   3.734   2.155
  916HOH      O 2934   0.670   1.774   1.517
  916HOH     H1 2935   0.763   1.776   1.539
  916HOH     H2 2936   0.668   1.738   1.428
  917HOH      O 2937   2.054   0.013   2.214
  917HOH     H1 2938   2.134   0.048   2.253
  917HOH     H2 2939   1.996  -0.004   2.288
  918HOH      O 2940   1.496   2.123   3.246
  918HOH     H1 2941   1.446   2.154   3.170
  918HOH     H2 2942   1.499   2.028   3.236
  919HOH      O 2943   1.591   3.225   2.997
  919HOH     H1 2944   1.604   3.315   2.967
  919HOH     H2 2945   1.673   3.201   3.040
  920HOH      O 2946   0.764   2.389   2.864
  920HOH     H1 2947   0.717   2.457   2.912
  920HOH     H2 2948   0.739   2.307   2.906
  921HOH      O 2949   1.405   3.053   3.564
  921HOH     H1 2950   1.382   3.005   3.643
  921HOH     H2 2951   1.496   3.030   3.547
  922HOH      O 2952   0.034   2.126   3.350
  922HOH     H1 2953   0.042   2.033   3.371
  922HOH     H2 2954  -0.059   2.139   3.333
  923HOH      O 2955   1.516   1.845   3.297
  923HOH     H1 2956   1.591   1.877   3.348
  923HOH     H2 2957   1.500   1.757   3.332
  924HOH      O 2958   1.114   0.873   3.823
  924HOH     H1 2959   1.160   0.955   3.840
  924HOH     H2 2960   1.182   0.811   3.798
  925HOH      O 2961   0.309   0.860   2.377
  925HOH     H1 2962   0.363   0.920   2.428
  925HOH     H2 2963   0.302   0.782   2.432
  926HOH      O 2964   1.746   1.723   2.065
  926HOH     H1 2965   1.764   1.639   2.023
  926HOH     H2 2966   1.702   1.775   1.998
  927HOH      O 2967   0.340   3.423   0.975
  927HOH     H1 2968   0.262   3.393   0.929
  927HOH     H2 2969   0.309   3.491   1.034
  928HOH      O 2970   1.034   2.134   1.852
  928HOH     H1 2971   1.017   2.040   1.854
  928HOH     H2 2972   1.099   2.145   1.783
  929HOH      O 2973   4.018   1.571   2.514
  929HOH     H1 2974   3.932   1.541   2.546
  929HOH     H2 2975   4.051   1.628   2.584
  930HOH      O 2976   3.495   1.152   3.522
  930HOH     H1 2977   3.566   1.210   3.494
  930HOH     H2 2978   3.420   1.210   3.535
  931HOH      O 2979   1.869   3.625   2.651
  931HOH     H1 2980   1.916   3.703   2.679
  931HOH     H2 2981   1.937   3.557   2.644
  932HOH      O 2982   0.650   0.523   2.869
  932HOH     H1 2983   0.626   0.529   2.962
  932HOH     H2 2984   0.658   0.614   2.840
  933HOH      O 2985   0.400   3.894   0.244
  933HOH     H1 2986   0.361   3.864   0.326
  933HOH     H2 2987   0.341   3.862   0.177
  934HOH      O 2988   3.202   1.151   0.636
  934HOH     H1 2989   3.140   1.079   0.648
  934HOH     H2 2990   3.183   1.211   0.708
  935HOH      O 2991   2.700   0.752   1.358
  935HOH     H1 2992   2.628   0.728   1.417
  935HOH     H2 2993   2.657   0.797   1.285
  936HOH      O 2994   3.629   0.684   0.307
  936HOH     H1 2995   3.643   0.640   0.391
  936HOH     H2 2996   3.599   0.614   0.249
  937HOH      O 2997   3.055   1.358   3.681
  937HOH     H1 2998   3.113   1.415   3.731
  937HOH     H2 2999   3.106   1.279   3.665
  938HOH      O 3000   2.216   3.127   1.256
  938HOH     H1 3001   2.149   3.195   1.249
  938HOH     H2 3002   2.268   3.153   1.333
  939HOH      O 3003   3.475   3.083   2.552
  939HOH     H1 3004   3.478   3.049   2.641
  939HOH     H2 3005   3.442   3.010   2.500
  940HOH      O 3006   2.572   1.554   2.611
  940HOH     H1 3007   2.568   1.584   2.520
  940HOH     H2 3008   2.517   1.616   2.659
  941HOH      O 3009   0.754   0.157   3.998
  941HOH     H1 3010   0.699   0.220   3.954
  941HOH     H2 3011   0.828   0.208   4.032
  942HOH      O 3012   0.959   1.442   0.506
  942HOH     H1 3013   0.933   1.509   0.443
  942HOH     H2 3014   1.030   1.482   0.556
  943HOH      O 3015   0.325   2.759   0.185
  943HOH     H1 3016   0.391   2.690   0.192
  943HOH     H2 3017   0.244   2.718   0.215
  944HOH      O 3018   0.759   0.039   0.551
  944HOH     H1 3019   0.672   0.011   0.577
  944HOH     H2 3020   0.757   0.135   0.558
  945HOH      O 3021   1.207   2.397   1.653
  945HOH     H1 3022   1.128   2.390   1.600
  945HOH     H2 3023   1.193   2.474   1.709
  946HOH      O 3024   0.375   3.673   3.658
  946HOH     H1 3025   0.314   3.604   3.684
  946HOH     H2 3026   0.461   3.632   3.659
  947HOH      O 3027   2.375   2.043   1.765
  947HOH     H1 3028   2.303   2.103   1.747
  947HOH     H2 3029   2.438   2.060   1.695
  948HOH      O 3030   2.131   3.809   1.586
  948HOH     H1 3031   2.130   3.787   1.679
  948HOH     H2 3032   2.044   3.845   1.569
  949HOH      O 3033   2.042   3.957   3.265
  949HOH     H1 3034   2.031   3.870   3.302
  949HOH     H2 3035   2.055   4.014   3.341
  950HOH      O 3036   1.320   3.307   3.625
  950HOH     H1 3037   1.253   3.319   3.693
  950HOH     H2 3038   1.335   3.212   3.623
  951HOH      O 3039   1.222   0.467   2.588
  951HOH     H1 3040   1.286   0.398   2.569
  951HOH     H2 3041   1.259   0.513   2.664
  952HOH      O 3042   2.241   2.392   2.863
  952HOH     H1 3043   2.215   2.436   2.944
  952HOH     H2 3044   2.254   2.301   2.888
  953HOH      O 3045   3.310   1.677   0.393
  953HOH     H1 3046   3.290   1.706   0.304
  953HOH     H2 3047   3.361   1.749   0.431
  954HOH      O 3048   2.943   1.588   0.705
  954HOH     H1 3049   2.971   1.559   0.792
  954HOH     H2 3050   3.020   1.578   0.650
  955HOH      O 3051   3.443   3.054   1.499
  955HOH     H1 3052   3.509   3.094   1.443
  955HOH     H2 3053   3.487   3.039   1.582
  956HOH      O 3054   2.164   3.807   2.131
  956HOH     H1 3055   2.213   3.749   2.188
  956HOH     H2 3056   2.132   3.877   2.188
  957HOH      O 3057   2.812   2.475   3.020
  957HOH     H1 3058   2.898   2.474   2.978
  957HOH     H2 3059   2.819   2.412   3.091
  958HOH      O 3060   0.194   0.546   2.861
  958HOH     H1 3061   0.205   0.494   2.941
  958HOH     H2 3062   0.115   0.511   2.820
  959HOH      O 3063   0.118   0.409   3.459
  959HOH     H1 3064   0.145   0.388   3.548
  959HOH     H2 3065   0.179   0.477   3.430
  960HOH      O 3066   0.138   3.569   1.958
  960HOH     H1 3067   0.087   3.569   2.039
  960HOH     H2 3068   0.101   3.640   1.906
  961HOH      O 3069   1.578   2.964   2.322
  961HOH     H1 3070   1.536   2.879   2.307
  961HOH     H2 3071   1.516   3.013   2.376
  962HOH      O 3072   3.959   1.856   0.100
  962HOH     H1 3073   3.992   1.785   0.155
  962HOH     H2 3074   3.911   1.913   0.160
  963HOH      O 3075   1.705   1.163   2.545
  963HOH     H1 3076   1.710   1.082   2.596
  963HOH     H2 3077   1.786   1.164   2.494
  964HOH      O 3078   1.678   3.485   2.536
  964HOH     H1 3079   1.697   3.401   2.578
  964HOH     H2 3080   1.741   3.546   2.576
  965HOH      O 3081   1.583   2.356   2.756
  965HOH     H1 3082   1.649   2.313   2.701
  965HOH     H2 3083   1.625   2.364   2.841
  966HOH      O 3084   2.602   3.025   1.628
  966HOH     H1 3085   2.603   3.014   1.533
  966HOH     H2 3086   2.528   2.971   1.657
  967HOH      O 3087   1.408   1.888   2.978
  967HOH     H1 3088   1.480   1.832   2.949
  967HOH     H2 3089   1.425   1.973   2.938
  968HOH      O 3090   0.196   3.197   2.367
  968HOH     H1 3091   0.213   3.287   2.394
  968HOH     H2 3092   0.119   3.171   2.418
  969HOH      O 3093   2.729   2.427   2.004
  969HOH     H1 3094   2.751   2.502   1.948
  969HOH     H2 3095   2.813   2.391   2.030
  970HOH      O 3096   0.548   1.112   3.668
  970HOH     H1 3097   0.490   1.040   3.644
  970HOH     H2 3098   0.508   1.150   3.746
  971HOH      O 3099   2.507   1.074   1.769
  971HOH     H1 3100   2.504   0.997   1.827
  971HOH     H2 3101   2.504   1.037   1.681
  972HOH      O 3102   1.428   0.555   2.001
  972HOH     H1 3103   1.471   0.469   2.004
  972HOH     H2 3104   1.400   0.571   2.091
  973HOH      O 3105   2.748   3.701   1.198
  973HOH     H1 3106   2.778   3.641   1.130
  973HOH     H2 3107   2.714   3.777   1.151
  974HOH      O 3108   1.442   2.705   2.349
  974HOH     H1 3109   1.474   2.640   2.287
  974HOH     H2 3110   1.455   2.664   2.435
  975HOH      O 3111   3.259   3.759   2.295
  975HOH     H1 3112   3.273   3.727   2.206
  975HOH     H2 3113   3.164   3.759   2.306
  976HOH      O 3114   2.196   1.999   2.646
  976HOH     H1 3115   2.147   2.048   2.580
  976HOH     H2 3116   2.284   1.991   2.611
  977HOH      O 3117   3.594   0.693   3.594
  977HOH     H1 3118   3.686   0.707   3.616
  977HOH     H2 3119   3.551   0.776   3.618
  978HOH      O 3120   3.364   1.181   3.190
  978HOH     H1 3121   3.324   1.104   3.230
  978HOH     H2 3122   3.307   1.201   3.115
  979HOH      O 3123   3.272   3.903   0.961
  979HOH     H1 3124   3.355   3.881   1.005
  979HOH     H2 3125   3.299   3.931   0.873
  980HOH      O 3126   0.140   1.881   3.045
  980HOH     H1 3127   0.134   1.828   3.124
  980HOH     H2 3128   0.197   1.831   2.987
  981HOH      O 3129   3.286   3.044   0.664
  981HOH     H1 3130   3.327   2.988   0.599
  981HOH     H2 3131   3.352   3.110   0.685
  982HOH      O 3132   1.698   0.523   1.555
  982HOH     H1 3133   1.740   0.453   1.606
  982HOH     H2 3134   1.656   0.478   1.482
  983HOH      O 3135   0.198   1.319   2.761
  983HOH     H1 3136   0.207   1.349   2.671
  983HOH     H2 3137   0.126   1.371   2.796
  984HOH      O 3138   0.485   2.365   3.979
  984HOH     H1 3139   0.480   2.459   3.962
  984HOH     H2 3140   0.417   2.327   3.924
  985HOH      O 3141   3.914   1.534   1.755
  985HOH     H1 3142   3.858   1.458   1.769
  985HOH     H2 3143   3.916   1.546   1.660
  986HOH      O 3144   3.380   2.702   1.518
  986HOH     H1 3145   3.350   2.702   1.609
  986HOH     H2 3146   3.392   2.609   1.497
  987HOH      O 3147   3.112   4.039   0.645
  987HOH     H1 3148   3.193   3.999   0.613
  987HOH     H2 3149   3.045   4.014   0.581
  988HOH      O 3150   3.747   3.674   0.311
  988HOH     H1 3151   3.739   3.578   0.310
  988HOH     H2 3152   3.841   3.690   0.306
  989HOH      O 3153   1.770   1.557   1.761
  989HOH     H1 3154   1.838   1.502   1.724
  989HOH     H2 3155   1.793   1.646   1.732
  990HOH      O 3156   2.057   0.742   2.830
  990HOH     H1 3157   2.024   0.759   2.918
  990HOH     H2 3158   2.074   0.828   2.793
  991HOH      O 3159   0.463   0.887   2.162
  991HOH     H1 3160   0.522   0.813   2.173
  991HOH     H2 3161   0.396   0.874   2.229
  992HOH      O 3162   2.788   0.469   1.207
  992HOH     H1 3163   2.822   0.436   1.290
  992HOH     H2 3164   2.721   0.533   1.230
  993HOH      O 3165   1.540   1.013   2.961
  993HOH     H1 3166   1.538   0.976   3.049
  993HOH     H2 3167   1.508   1.103   2.972
  994HOH      O 3168   3.410   3.791   0.121
  994HOH     H1 3169   3.391   3.853   0.051
  994HOH     H2 3170   3.432   3.709   0.076
  995HOH      O 3171   0.672   3.834   0.373
  995HOH     H1 3172   0.715   3.915   0.397
  995HOH     H2 3173   0.580   3.858   0.359
  996HOH      O 3174   2.464   0.745   0.869
  996HOH     H1 3175   2.415   0.729   0.788
  996HOH     H2 3176   2.498   0.660   0.894
  997HOH      O 3177   0.635   1.228   2.575
  997HOH     H1 3178   0.589   1.309   2.552
  997HOH     H2 3179   0.589   1.197   2.653
  998HOH      O 3180   1.302   0.111   2.747
  998HOH     H1 3181   1.272   0.081   2.661
  998HOH     H2 3182   1.228   0.159   2.783
  999HOH      O 3183   2.491   0.660   3.766
  999HOH     H1 3184   2.559   0.608   3.724
  999HOH     H2 3185   2.437   0.595   3.812
 1000HOH      O 3186   2.659   1.797   3.639
 1000HOH     H1 3187   2.637   1.811   3.547
 1000HOH     H2 3188   2.740   1.846   3.652
 1001HOH      O 3189   0.819   2.032   3.180
 1001HOH     H1 3190   0.854   2.079   3.256
 1001HOH     H2 3191   0.776   1.955   3.217
 1002HOH      O 3192   3.792   3.256   3.859
 1002HOH     H1 3193   3.755   3.238   3.773
 1002HOH     H2 3194   3.745   3.334   3.890
 1003HOH      O 3195   3.492   1.845   0.510
 1003HOH     H1 3196   3.493   1.940   0.499
 1003HOH     H2 3197   3.482   1.832   0.604
 1004HOH      O 3198   2.586   1.971   0.467
 1004HOH     H1 3199   2.635   2.017   0.399
 1004HOH     H2 3200   2.599   2.024   0.546
 1005HOH      O 3201   0.442   0.696   1.478
 1005HOH     H1 3202   0.430   0.727   1.568
 1005HOH     H2 3203   0.535   0.708   1.460
 1006HOH      O 3204   0.918   3.876   0.122
 1006HOH     H1 3205   0.870   3.864   0.041
 1006HOH     H2 3206   0.956   3.964   0.115
 1007HOH      O 3207   0.881   1.739   2.916
 1007HOH     H1 3208   0.960   1.739   2.863
 1007HOH     H2 3209   0.912   1.755   3.005
 1008HOH      O 3210   1.112   0.100   0.189
 1008HOH     H1 3211   1.124   0.051   0.270
 1008HOH     H2 3212   1.201   0.121   0.161
 1009HOH      O 3213   1.070   2.622   1.751
 1009HOH     H1 3214   0.978   2.639   1.733
 1009HOH     H2 3215   1.084   2.654   1.840
 1010HOH      O 3216   3.130   0.055   0.113
 1010HOH     H1 3217   3.131  -0.027   0.163
 1010HOH     H2 3218   3.048   0.097   0.138
 1011HOH      O 3219   1.006   1.887   0.392
 1011HOH     H1 3220   1.084   1.862   0.440
 1011HOH     H2 3221   0.953   1.807   0.389
 1012HOH      O 3222   0.536   2.088   3.425
 1012HOH     H1 3223   0.463   2.068   3.484
 1012HOH     H2 3224   0.609   2.111   3.484
 1013HOH      O 3225   0.368   0.809   1.710
 1013HOH     H1 3226   0.426   0.752   1.760
 1013HOH     H2 3227   0.325   0.864   1.776
 1014HOH      O 3228   0.211   2.634   3.494
 1014HOH     H1 3229   0.190   2.658   3.404
 1014HOH     H2 3230   0.143   2.572   3.520
 1015HOH      O 3231   0.577   3.904   0.927
 1015HOH     H1 3232   0.494   3.868   0.960
 1015HOH     H2 3233   0.561   3.920   0.834
 1016HOH      O 3234   0.364   3.465   2.062
 1016HOH     H1 3235   0.300   3.513   2.009
 1016HOH     H2 3236   0.314   3.392   2.098
 1017HOH      O 3237   3.075   2.482   0.307
 1017HOH     H1 3238   3.118   2.496   0.392
 1017HOH     H2 3239   3.146   2.459   0.248
 1018HOH      O 3240   1.272   0.424   2.271
 1018HOH     H1 3241   1.319   0.350   2.308
 1018HOH     H2 3242   1.322   0.501   2.300
 1019HOH      O 3243   2.913   0.610   3.816
 1019HOH     H1 3244   2.877   0.682   3.866
 1019HOH     H2 3245   3.008   0.614   3.832
 1020HOH      O 3246   1.900   3.619   1.678
 1020HOH     H1 3247   1.840   3.601   1.751
 1020HOH     H2 3248   1.844   3.617   1.601
 1021HOH      O 3249   3.188   0.573   3.860
 1021HOH     H1 3250   3.277   0.543   3.842
 1021HOH     H2 3251   3.198   0.636   3.931
 1022HOH      O 3252   2.163   3.635   3.060
 1022HOH     H1 3253   2.165   3.654   3.154
 1022HOH     H2 3254   2.254   3.617   3.037
 1023HOH      O 3255   2.733   3.423   1.353
 1023HOH     H1 3256   2.662   3.387   1.407
 1023HOH     H2 3257   2.709   3.514   1.339
 1024HOH      O 3258   1.351   3.518   1.441
 1024HOH     H1 3259   1.278   3.456   1.440
 1024HOH     H2 3260   1.314   3.599   1.477
 1025HOH      O 3261   1.129   0.087   2.380
 1025HOH     H1 3262   1.158  -0.004   2.388
 1025HOH     H2 3263   1.144   0.109   2.289
 1026HOH      O 3264   2.418   3.775   2.891
 1026HOH     H1 3265   2.409   3.768   2.986
 1026HOH     H2 3266   2.344   3.830   2.865
 1027HOH      O 3267   0.695   2.182   3.627
 1027HOH     H1 3268   0.716   2.090   3.614
 1027HOH     H2 3269   0.777   2.221   3.659
 1028HOH      O 3270   3.443   2.412   0.941
 1028HOH     H1 3271   3.359   2.373   0.963
 1028HOH     H2 3272   3.507   2.364   0.994
 1029HOH      O 3273   2.905   3.093   0.853
 1029HOH     H1 3274   2.955   3.163   0.811
 1029HOH     H2 3275   2.818   3.097   0.812
 1030HOH      O 3276   3.835   2.695  -0.012
 1030HOH     H1 3277   3.794   2.609  -0.020
 1030HOH     H2 3278   3.838   2.712   0.082
 1031HOH      O 3279   1.184   2.563   2.080
 1031HOH     H1 3280   1.147   2.539   2.164
 1031HOH     H2 3281   1.142   2.646   2.058
 1032HOH      O 3282   1.753   1.284   2.826
 1032HOH     H1 3283   1.815   1.229   2.874
 1032HOH     H2 3284   1.723   1.229   2.754
 1033HOH      O 3285   1.674   1.011   0.175
 1033HOH     H1 3286   1.601   1.058   0.133
 1033HOH     H2 3287   1.742   1.007   0.107
 1034HOH      O 3288   0.657   1.383   1.484
 1034HOH     H1 3289   0.739   1.425   1.460
 1034HOH     H2 3290   0.619   1.440   1.551
 1035HOH      O 3291   0.440   1.718   3.910
 1035HOH     H1 3292   0.495   1.795   3.926
 1035HOH     H2 3293   0.363   1.754   3.866
 1036HOH      O 3294   3.761   2.506   2.811
 1036HOH     H1 3295   3.849   2.543   2.799
 1036HOH     H2 3296   3.759   2.477   2.902
 1037HOH      O 3297   1.692   1.313   1.375
 1037HOH     H1 3298   1.720   1.326   1.285
 1037HOH     H2 3299   1.597   1.300   1.368
 1038HOH      O 3300   1.394   2.589   1.860
 1038HOH     H1 3301   1.340   2.582   1.938
 1038HOH     H2 3302   1.448   2.667   1.874
 1039HOH      O 3303   0.133   2.065   1.033
 1039HOH     H1 3304   0.219   2.095   1.062
 1039HOH     H2 3305   0.101   2.135   0.976
 1040HOH      O 3306   0.450   2.852   1.469
 1040HOH     H1 3307   0.467   2.858   1.563
 1040HOH     H2 3308   0.374   2.795   1.462
 1041HOH      O 3309   0.994   0.757   2.754
 1041HOH     H1 3310   0.926   0.757   2.822
 1041HOH     H2 3311   0.985   0.672   2.712
 1042HOH      O 3312   1.663   3.988   2.689
 1042HOH     H1 3313   1.688   3.898   2.707
 1042HOH     H2 3314   1.610   3.983   2.609
 1043HOH      O 3315   2.941   2.079   2.632
 1043HOH     H1 3316   2.940   2.174   2.645
 1043HOH     H2 3317   2.976   2.044   2.714
 1044HOH      O 3318   2.979   1.419   2.791
 1044HOH     H1 3319   3.019   1.388   2.710
 1044HOH     H2 3320   2.953   1.509   2.773
 1045HOH      O 3321   1.707   0.450   3.367
 1045HOH     H1 3322   1.668   0.447   3.454
 1045HOH     H2 3323   1.799   0.429   3.381
 1046HOH      O 3324   3.877   0.279   0.918
 1046HOH     H1 3325   3.934   0.287   0.841
 1046HOH     H2 3326   3.828   0.361   0.920
 1047HOH      O 3327   2.003   3.201   1.666
 1047HOH     H1 3328   2.066   3.255   1.617
 1047HOH     H2 3329   1.974   3.136   1.602
 1048HOH      O 3330   3.717   3.633   3.545
 1048HOH     H1 3331   3.811   3.614   3.543
 1048HOH     H2 3332   3.676   3.553   3.510
 1049HOH      O 3333   3.678   2.308   3.622
 1049HOH     H1 3334   3.583   2.297   3.625
 1049HOH     H2 3335   3.693   2.364   3.545
 1050HOH      O 3336   3.990   1.422   2.849
 1050HOH     H1 3337   3.959   1.512   2.854
 1050HOH     H2 3338   3.943   1.376   2.918
 1051HOH      O 3339   3.843   2.798   2.253
 1051HOH     H1 3340   3.761   2.816   2.206
 1051HOH     H2 3341   3.899   2.872   2.231
 1052HOH      O 3342   0.251   0.661   2.569
 1052HOH     H1 3343   0.253   0.628   2.659
 1052HOH     H2 3344   0.188   0.733   2.572
 1053HOH      O 3345   0.633   2.535   0.846
 1053HOH     H1 3346   0.596   2.545   0.758
 1053HOH     H2 3347   0.653   2.624   0.873
 1054HOH      O 3348   1.110   1.735   2.745
 1054HOH     H1 3349   1.126   1.641   2.745
 1054HOH     H2 3350   1.132   1.764   2.656
 1055HOH      O 3351   1.361   3.226   4.031
 1055HOH     H1 3352   1.282   3.210   3.980
 1055HOH     H2 3353   1.348   3.314   4.068
 1056HOH      O 3354   3.146   1.342   2.573
 1056HOH     H1 3355   3.191   1.261   2.553
 1056HOH     H2 3356   3.210   1.411   2.555
 1057HOH      O 3357   2.914   3.961   2.707
 1057HOH     H1 3358   2.852   3.933   2.775
 1057HOH     H2 3359   2.922   4.056   2.721
 1058HOH      O 3360   1.434   3.404   0.961
 1058HOH     H1 3361   1.420   3.364   1.047
 1058HOH     H2 3362   1.434   3.331   0.900
 1059HOH      O 3363   0.415   1.660   3.419
 1059HOH     H1 3364   0.336   1.615   3.389
 1059HOH     H2 3365   0.464   1.593   3.467
 1060HOH      O 3366   1.656   3.521   3.644
 1060HOH     H1 3367   1.563   3.541   3.630
 1060HOH     H2 3368   1.688   3.495   3.558
 1061HOH      O 3369   0.526   2.384   3.549
 1061HOH     H1 3370   0.442   2.339   3.559
 1061HOH     H2 3371   0.592   2.316   3.559
 1062HOH      O 3372   2.241   1.457   0.164
 1062HOH     H1 3373   2.186   1.379   0.172
 1062HOH     H2 3374   2.185   1.522   0.122
 1063HOH      O 3375   3.613   2.862   2.120
 1063HOH     H1 3376   3.521   2.888   2.114
 1063HOH     H2 3377   3.621   2.787   2.062
 1064HOH      O 3378   0.211  -0.018   3.279
 1064HOH     H1 3379   0.185   0.072   3.262
 1064HOH     H2 3380   0.301  -0.012   3.310
 1065HOH      O 3381   3.674   2.489   3.086
 1065HOH     H1 3382   3.668   2.573   3.132
 1065HOH     H2 3383   3.601   2.438   3.120
 1066HOH      O 3384   3.195   3.284   1.625
 1066HOH     H1 3385   3.224   3.194   1.610
 1066HOH     H2 3386   3.109   3.275   1.666
 1067HOH      O 3387   3.246   3.690   0.714
 1067HOH     H1 3388   3.338   3.666   0.704
 1067HOH     H2 3389   3.240   3.776   0.673
 1068HOH      O 3390   1.918   1.859   2.646
 1068HOH     H1 3391   2.011   1.876   2.661
 1068HOH     H2 3392   1.876   1.944   2.658
 1069HOH      O 3393   1.181   0.694   2.438
 1069HOH     H1 3394   1.176   0.760   2.507
 1069HOH     H2 3395   1.187   0.610   2.484
 1070HOH      O 3396   0.336   1.118   3.090
 1070HOH     H1 3397   0.340   1.213   3.075
 1070HOH     H2 3398   0.269   1.087   3.029
 1071HOH      O 3399   3.208   3.943   2.602
 1071HOH     H1 3400   3.187   3.851   2.588
 1071HOH     H2 3401   3.173   3.964   2.688
 1072HOH      O 3402   2.058   3.592   0.422
 1072HOH     H1 3403   2.026   3.585   0.332
 1072HOH     H2 3404   2.152   3.576   0.414
 1073HOH      O 3405   3.428   2.189   1.459
 1073HOH     H1 3406   3.375   2.122   1.502
 1073HOH     H2 3407   3.380   2.210   1.379
 1074HOH      O 3408   1.051   3.090   0.729
 1074HOH     H1 3409   1.015   3.133   0.806
 1074HOH     H2 3410   1.049   2.997   0.750
 1075HOH      O 3411   1.488   2.185   1.463
 1075HOH     H1 3412   1.428   2.194   1.537
 1075HOH     H2 3413   1.547   2.260   1.471
 1076HOH      O 3414   2.909   0.692   0.733
 1076HOH     H1 3415   2.932   0.665   0.644
 1076HOH     H2 3416   2.829   0.643   0.752
 1077HOH      O 3417   0.900   1.992   3.579
 1077HOH     H1 3418   0.859   1.954   3.657
 1077HOH     H2 3419   0.984   1.947   3.571
 1078HOH      O 3420   0.862   2.469   0.400
 1078HOH     H1 3421   0.808   2.398   0.366
 1078HOH     H2 3422   0.944   2.428   0.425
 1079HOH      O 3423   0.728   2.905   0.053
 1079HOH     H1 3424   0.737   2.816   0.086
 1079HOH     H2 3425   0.816   2.941   0.056
 1080HOH      O 3426   3.916   2.895   3.522
 1080HOH     H1 3427   3.842   2.942   3.560
 1080HOH     H2 3428   3.920   2.927   3.432
 1081HOH      O 3429   1.732   3.380   3.405
 1081HOH     H1 3430   1.793   3.308   3.390
 1081HOH     H2 3431   1.749   3.441   3.334
 1082HOH      O 3432   1.127   0.821   3.016
 1082HOH     H1 3433   1.039   0.811   2.979
 1082HOH     H2 3434   1.185   0.783   2.950
 1083HOH      O 3435   3.063   3.493   2.855
 1083HOH     H1 3436   3.074   3.450   2.940
 1083HOH     H2 3437   3.143   3.545   2.844
 1084HOH      O 3438   2.737   0.989   0.365
 1084HOH     H1 3439   2.812   0.930   0.354
 1084HOH     H2 3440   2.771   1.075   0.338
 1085HOH      O 3441   1.661   3.860   0.546
 1085HOH     H1 3442   1.585   3.870   0.603
 1085HOH     H2 3443   1.700   3.947   0.543
 1086HOH      O 3444   2.023   4.038   1.308
 1086HOH     H1 3445   2.085   3.967   1.295
 1086HOH     H2 3446   1.999   4.032   1.401
 1087HOH      O 3447   2.056   0.831   0.807
 1087HOH     H1 3448   2.048   0.924   0.828
 1087HOH     H2 3449   2.134   0.824   0.752
 1088HOH      O 3450   0.558   2.648   3.614
 1088HOH     H1 3451   0.530   2.563   3.579
 1088HOH     H2 3452   0.630   2.626   3.673
 1089HOH      O 3453   1.088   1.363   3.740
 1089HOH     H1 3454   1.024   1.415   3.789
 1089HOH     H2 3455   1.044   1.343   3.657
 1090HOH      O 3456   1.427   1.799   3.766
 1090HOH     H1 3457   1.421   1.712   3.726
 1090HOH     H2 3458   1.355   1.799   3.830
 1091HOH      O 3459   0.721   0.511   0.046
 1091HOH     H1 3460   0.705   0.528  -0.047
 1091HOH     H2 3461   0.816   0.523   0.056
 1092HOH      O 3462   2.819   1.507   1.405
 1092HOH     H1 3463   2.769   1.468   1.333
 1092HOH     H2 3464   2.780   1.594   1.416
 1093HOH      O 3465   3.292   3.373   2.311
 1093HOH     H1 3466   3.245   3.289   2.310
 1093HOH     H2 3467   3.227   3.436   2.279
 1094HOH      O 3468   3.716   0.384   1.975
 1094HOH     H1 3469   3.755   0.471   1.976
 1094HOH     H2 3470   3.729   0.350   2.063
 1095HOH      O 3471   2.738   2.015   2.118
 1095HOH     H1 3472   2.649   2.036   2.087
 1095HOH     H2 3473   2.726   1.992   2.210
 1096HOH      O 3474   1.198   0.580   1.032
 1096HOH     H1 3475   1.287   0.609   1.013
 1096HOH     H2 3476   1.183   0.606   1.123
 1097HOH      O 3477   0.501   3.992   1.294
 1097HOH     H1 3478   0.568   3.938   1.250
 1097HOH     H2 3479   0.451   4.031   1.222
 1098HOH      O 3480   0.616   1.981   1.847
 1098HOH     H1 3481   0.538   2.003   1.797
 1098HOH     H2 3482   0.674   2.057   1.835
 1099HOH      O 3483   3.096   2.604   1.995
 1099HOH     H1 3484   3.021   2.637   2.044
 1099HOH     H2 3485   3.074   2.620   1.903
 1100HOH      O 3486   2.719   0.093   2.216
 1100HOH     H1 3487   2.779   0.061   2.283
 1100HOH     H2 3488   2.645   0.127   2.265
 1101HOH      O 3489   1.053   3.620   3.746
 1101HOH     H1 3490   1.069   3.530   3.772
 1101HOH     H2 3491   1.052   3.618   3.650
 1102HOH      O 3492   0.544   0.193   2.186
 1102HOH     H1 3493   0.551   0.223   2.096
 1102HOH     H2 3494   0.618   0.134   2.198
 1103HOH      O 3495   3.340   2.113   1.820
 1103HOH     H1 3496   3.312   2.100   1.729
 1103HOH     H2 3497   3.435   2.127   1.813
 1104HOH      O 3498   2.520   0.166   2.397
 1104HOH     H1 3499   2.591   0.230   2.401
 1104HOH     H2 3500   2.461   0.190   2.468
 1105HOH      O 3501   3.915   0.476   1.317
 1105HOH     H1 3502   3.875   0.538   1.256
 1105HOH     H2 3503   3.930   0.397   1.266
 1106HOH      O 3504   1.862   2.257   0.332
 1106HOH     H1 3505   1.769   2.268   0.350
 1106HOH     H2 3506   1.867   2.184   0.271
 1107HOH      O 3507   0.206   2.712   1.429
 1107HOH     H1 3508   0.150   2.709   1.506
 1107HOH     H2 3509   0.171   2.784   1.377
 1108HOH      O 3510   0.385   1.488   1.955
 1108HOH     H1 3511   0.475   1.514   1.974
 1108HOH     H2 3512   0.331   1.548   2.005
 1109HOH      O 3513   0.439   1.490   3.721
 1109HOH     H1 3514   0.527   1.470   3.691
 1109HOH     H2 3515   0.450   1.526   3.808
 1110HOH      O 3516   2.345   0.400   2.361
 1110HOH     H1 3517   2.313   0.464   2.425
 1110HOH     H2 3518   2.438   0.419   2.352
 1111HOH      O 3519   2.690   3.979   0.336
 1111HOH     H1 3520   2.634   3.981   0.413
 1111HOH     H2 3521   2.661   3.902   0.287
 1112HOH      O 3522   1.040   0.531   2.995
 1112HOH     H1 3523   0.987   0.528   3.075
 1112HOH     H2 3524   0.976   0.518   2.924
 1113HOH      O 3525   3.832   0.091   3.787
 1113HOH     H1 3526   3.839   0.009   3.739
 1113HOH     H2 3527   3.833   0.159   3.719
 1114HOH      O 3528   2.237   3.225   0.677
 1114HOH     H1 3529   2.178   3.150   0.688
 1114HOH     H2 3530   2.247   3.260   0.765
 1115HOH      O 3531   0.199   1.443   1.419
 1115HOH     H1 3532   0.251   1.437   1.499
 1115HOH     H2 3533   0.111   1.467   1.448
 1116HOH      O 3534   1.497   3.817   0.235
 1116HOH     H1 3535   1.560   3.746   0.251
 1116HOH     H2 3536   1.453   3.829   0.319
 1117HOH      O 3537   3.339   2.445   2.513
 1117HOH     H1 3538   3.387   2.365   2.535
 1117HOH     H2 3539   3.361   2.505   2.584
 1118HOH      O 3540   2.844   3.904   1.352
 1118HOH     H1 3541   2.798   3.848   1.289
 1118HOH     H2 3542   2.936   3.893   1.330
 1119HOH      O 3543   1.025   1.228   1.045
 1119HOH     H1 3544   1.069   1.155   1.090
 1119HOH     H2 3545   1.097   1.287   1.020
 1120HOH      O 3546   3.438   3.937   1.940
 1120HOH     H1 3547   3.452   3.987   2.021
 1120HOH     H2 3548   3.450   4.001   1.870
 1121HOH      O 3549   0.936   1.744   1.533
 1121HOH     H1 3550   0.959   1.666   1.484
 1121HOH     H2 3551   1.017   1.768   1.579
 1122HOH      O 3552   1.135   2.216   2.331
 1122HOH     H1 3553   1.206   2.154   2.344
 1122HOH     H2 3554   1.172   2.302   2.353
 1123HOH      O 3555   0.387   2.130   0.496
 1123HOH     H1 3556   0.410   2.160   0.409
 1123HOH     H2 3557   0.358   2.209   0.542
 1124HOH      O 3558   2.678   3.596   3.985
 1124HOH     H1 3559   2.754   3.553   3.945
 1124HOH     H2 3560   2.611   3.596   3.916
 1125HOH      O 3561   3.695   1.667   1.544
 1125HOH     H1 3562   3.776   1.624   1.520
 1125HOH     H2 3563   3.662   1.616   1.619
 1126HOH      O 3564   1.078   0.676   0.424
 1126HOH     H1 3565   1.152   0.693   0.482
 1126HOH     H2 3566   1.112   0.614   0.360
 1127HOH      O 3567   0.395   2.580   1.299
 1127HOH     H1 3568   0.330   2.636   1.342
 1127HOH     H2 3569   0.420   2.627   1.220
 1128HOH      O 3570   2.682   0.395   2.973
 1128HOH     H1 3571   2.621   0.412   3.045
 1128HOH     H2 3572   2.737   0.323   3.005
 1129HOH      O 3573   1.712   1.568   2.302
 1129HOH     H1 3574   1.730   1.625   2.377
 1129HOH     H2 3575   1.718   1.626   2.226
 1130HOH      O 3576   2.402   3.589   2.647
 1130HOH     H1 3577   2.430   3.640   2.723
 1130HOH     H2 3578   2.427   3.499   2.669
 1131HOH      O 3579   3.773   1.003   1.825
 1131HOH     H1 3580   3.848   0.980   1.880
 1131HOH     H2 3581   3.790   0.960   1.741
 1132HOH      O 3582   1.014   3.489   0.821
 1132HOH     H1 3583   0.986   3.557   0.761
 1132HOH     H2 3584   1.069   3.431   0.769
 1133HOH      O 3585   1.170   2.385   2.688
 1133HOH     H1 3586   1.124   2.466   2.666
 1133HOH     H2 3587   1.229   2.409   2.758
 1134HOH      O 3588   1.099   3.640   2.441
 1134HOH     H1 3589   1.189   3.628   2.412
 1134HOH     H2 3590   1.078   3.561   2.490
 1135HOH      O 3591   1.221   0.781   1.975
 1135HOH     H1 3592   1.282   0.822   2.037
 1135HOH     H2 3593   1.277   0.750   1.904
 1136HOH      O 3594   4.002   2.005   2.443
 1136HOH     H1 3595   4.037   1.937   2.386
 1136HOH     H2 3596   4.033   2.087   2.405
 1137HOH      O 3597   1.540   0.964   1.430
 1137HOH     H1 3598   1.509   1.055   1.426
 1137HOH     H2 3599   1.525   0.930   1.341
 1138HOH      O 3600   0.661   2.646   3.020
 1138HOH     H1 3601   0.658   2.599   3.104
 1138HOH     H2 3602   0.735   2.706   3.029
 1139HOH      O 3603   1.239   1.119   3.834
 1139HOH     H1 3604   1.331   1.138   3.815
 1139HOH     H2 3605   1.190   1.184   3.785
 1140HOH      O 3606   0.931   4.002   3.710
 1140HOH     H1 3607   0.984   4.032   3.784
 1140HOH     H2 3608   0.996   3.973   3.645
 1141HOH      O 3609   2.672   3.293   1.696
 1141HOH     H1 3610   2.613   3.346   1.641
 1141HOH     H2 3611   2.650   3.203   1.673
 1142HOH      O 3612   3.067   1.927   0.695
 1142HOH     H1 3613   3.075   1.931   0.600
 1142HOH     H2 3614   3.154   1.952   0.727
 1143HOH      O 3615   0.737   2.034   1.049
 1143HOH     H1 3616   0.679   1.988   0.988
 1143HOH     H2 3617   0.750   2.120   1.008
 1144HOH      O 3618   3.485   0.080   1.724
 1144HOH     H1 3619   3.565   0.121   1.757
 1144HOH     H2 3620   3.416   0.144   1.744
 1145HOH      O 3621   1.142   3.908   0.949
 1145HOH     H1 3622   1.205   3.842   0.923
 1145HOH     H2 3623   1.101   3.936   0.867
 1146HOH      O 3624   1.078   3.457   2.203
 1146HOH     H1 3625   1.147   3.522   2.217
 1146HOH     H2 3626   1.101   3.385   2.261
 1147HOH      O 3627   2.323   3.807   3.447
 1147HOH     H1 3628   2.407   3.803   3.400
 1147HOH     H2 3629   2.333   3.742   3.517
 1148HOH      O 3630   3.201   1.501   3.856
 1148HOH     H1 3631   3.170   1.451   3.931
 1148HOH     H2 3632   3.283   1.541   3.886
 1149HOH      O 3633   2.028   2.860   1.931
 1149HOH     H1 3634   2.053   2.948   1.957
 1149HOH     H2 3635   2.030   2.809   2.012
 1150HOH      O 3636   3.192   3.575   0.219
 1150HOH     H1 3637   3.210   3.481   0.210
 1150HOH     H2 3638   3.261   3.618   0.167
 1151HOH      O 3639   2.065   3.691   3.818
 1151HOH     H1 3640   2.032   3.630   3.884
 1151HOH     H2 3641   2.147   3.651   3.788
 1152HOH      O 3642   2.158   1.761   3.534
 1152HOH     H1 3643   2.242   1.753   3.579
 1152HOH     H2 3644   2.094   1.733   3.600
 1153HOH      O 3645   3.638   2.393   1.838
 1153HOH     H1 3646   3.567   2.417   1.779
 1153HOH     H2 3647   3.626   2.300   1.854
 1154HOH      O 3648   1.854   3.225   1.066
 1154HOH     H1 3649   1.924   3.211   1.003
 1154HOH     H2 3650   1.790   3.157   1.047
 1155HOH      O 3651   0.287   3.289   3.239
 1155HOH     H1 3652   0.331   3.260   3.159
 1155HOH     H2 3653   0.203   3.243   3.238
 1156HOH      O 3654   2.747   1.149   3.389
 1156HOH     H1 3655   2.690   1.185   3.456
 1156HOH     H2 3656   2.836   1.163   3.423
 1157HOH      O 3657   0.707   1.561   2.094
 1157HOH     H1 3658   0.802   1.566   2.097
 1157HOH     H2 3659   0.681   1.629   2.031
 1158HOH      O 3660   2.683   0.078   1.292
 1158HOH     H1 3661   2.721  -0.002   1.329
 1158HOH     H2 3662   2.757   0.136   1.276
 1159HOH      O 3663   3.445   3.616   1.027
 1159HOH     H1 3664   3.515   3.556   1.001
 1159HOH     H2 3665   3.489   3.682   1.081
 1160HOH      O 3666   0.791   1.647   3.679
 1160HOH     H1 3667   0.846   1.675   3.606
 1160HOH     H2 3668   0.719   1.710   3.681
 1161HOH      O 3669   2.096   3.542   3.504
 1161HOH     H1 3670   2.176   3.571   3.548
 1161HOH     H2 3671   2.063   3.471   3.559
 1162HOH      O 3672   0.384   2.719   1.055
 1162HOH     H1 3673   0.458   2.762   1.012
 1162HOH     H2 3674   0.308   2.773   1.029
 1163HOH      O 3675   1.959   0.851   1.618
 1163HOH     H1 3676   1.941   0.787   1.549
 1163HOH     H2 3677   1.933   0.935   1.580
 1164HOH      O 3678   2.240   2.238   1.363
 1164HOH     H1 3679   2.281   2.159   1.327
 1164HOH     H2 3680   2.165   2.204   1.412
 1165HOH      O 3681   3.623   0.499   1.034
 1165HOH     H1 3682   3.590   0.589   1.028
 1165HOH     H2 3683   3.605   0.473   1.124
 1166HOH      O 3684   0.256   0.229   1.861
 1166HOH     H1 3685   0.167   0.265   1.860
 1166HOH     H2 3686   0.310   0.301   1.830
 1167HOH      O 3687   3.028   3.230   2.392
 1167HOH     H1 3688   3.059   3.295   2.456
 1167HOH     H2 3689   2.933   3.230   2.403
 1168HOH      O 3690   0.041   0.256   0.720
 1168HOH     H1 3691   0.132   0.273   0.697
 1168HOH     H2 3692  -0.001   0.234   0.637
 1169HOH      O 3693   0.983   2.040   2.178
 1169HOH     H1 3694   1.025   2.111   2.227
 1169HOH     H2 3695   0.892   2.041   2.207
 1170HOH      O 3696   1.444   3.798   3.791
 1170HOH     H1 3697   1.527   3.754   3.812
 1170HOH     H2 3698   1.440   3.796   3.695
 1171HOH      O 3699   2.276   0.138   1.990
 1171HOH     H1 3700   2.253   0.062   2.043
 1171HOH     H2 3701   2.331   0.103   1.920
 1172HOH      O 3702   3.997   2.891   1.930
 1172HOH     H1 3703   4.038   2.805   1.937
 1172HOH     H2 3704   3.905   2.872   1.912
 1173HOH      O 3705   0.708   1.378   0.603
 1173HOH     H1 3706   0.724   1.284   0.614
 1173HOH     H2 3707   0.795   1.415   0.586
 1174HOH      O 3708   0.539   1.853   3.263
 1174HOH     H1 3709   0.484   1.791   3.310
 1174HOH     H2 3710   0.550   1.926   3.323
 1175HOH      O 3711   3.718   2.344   2.565
 1175HOH     H1 3712   3.765   2.394   2.633
 1175HOH     H2 3713   3.673   2.411   2.513
 1176HOH      O 3714   0.483   0.064   0.045
 1176HOH     H1 3715   0.537   0.032   0.117
 1176HOH     H2 3716   0.476  -0.010  -0.015
 1177HOH      O 3717   2.026   2.948   2.205
 1177HOH     H1 3718   2.082   2.925   2.279
 1177HOH     H2 3719   2.004   3.040   2.220
 1178HOH      O 3720   2.194   0.591   3.093
 1178HOH     H1 3721   2.234   0.625   3.013
 1178HOH     H2 3722   2.131   0.527   3.063
 1179HOH      O 3723   2.092   0.280   2.528
 1179HOH     H1 3724   2.045   0.209   2.573
 1179HOH     H2 3725   2.149   0.317   2.595
 1180HOH      O 3726   2.174   3.924   3.965
 1180HOH     H1 3727   2.093   3.884   3.933
 1180HOH     H2 3728   2.229   3.850   3.989
 1181HOH      O 3729   3.518   0.714   0.739
 1181HOH     H1 3730   3.607   0.684   0.756
 1181HOH     H2 3731   3.462   0.640   0.762
 1182HOH      O 3732   2.714   2.641   1.480
 1182HOH     H1 3733   2.753   2.728   1.482
 1182HOH     H2 3734   2.786   2.582   1.501
 1183HOH      O 3735   3.047   1.126   1.710
 1183HOH     H1 3736   2.985   1.130   1.782
 1183HOH     H2 3737   3.022   1.199   1.653
 1184HOH      O 3738   3.657   1.572   3.555
 1184HOH     H1 3739   3.601   1.642   3.523
 1184HOH     H2 3740   3.741   1.585   3.511
 1185HOH      O 3741   1.919   2.628   3.036
 1185HOH     H1 3742   1.983   2.566   3.072
 1185HOH     H2 3743   1.972   2.692   2.987
 1186HOH      O 3744   2.863   0.319   0.972
 1186HOH     H1 3745   2.950   0.358   0.958
 1186HOH     H2 3746   2.830   0.363   1.050
 1187HOH      O 3747   3.482   1.118   2.059
 1187HOH     H1 3748   3.416   1.112   1.990
 1187HOH     H2 3749   3.443   1.175   2.124
 1188HOH      O 3750   2.909   0.342   1.446
 1188HOH     H1 3751   2.982   0.378   1.496
 1188HOH     H2 3752   2.946   0.269   1.397
 1189HOH      O 3753   1.883   2.203   3.983
 1189HOH     H1 3754   1.846   2.197   3.895
 1189HOH     H2 3755   1.974   2.230   3.969
 1190HOH      O 3756   1.127   3.141   1.160
 1190HOH     H1 3757   1.085   3.181   1.236
 1190HOH     H2 3758   1.213   3.182   1.155
 1191HOH      O 3759   3.981   3.137   2.470
 1191HOH     H1 3760   3.948   3.206   2.528
 1191HOH     H2 3761   3.912   3.126   2.405
 1192HOH      O 3762   3.753   2.170   2.851
 1192HOH     H1 3763   3.817   2.126   2.794
 1192HOH     H2 3764   3.799   2.248   2.882
 1193HOH      O 3765   0.785   2.782   2.573
 1193HOH     H1 3766   0.714   2.788   2.509
 1193HOH     H2 3767   0.789   2.689   2.595
 1194HOH      O 3768   0.870   1.910   1.250
 1194HOH     H1 3769   0.852   1.978   1.185
 1194HOH     H2 3770   0.799   1.847   1.238
 1195HOH      O 3771   1.872   1.327   2.301
 1195HOH     H1 3772   1.797   1.384   2.317
 1195HOH     H2 3773   1.843   1.267   2.233
 1196HOH      O 3774   1.995   1.757   2.161
 1196HOH     H1 3775   1.998   1.774   2.255
 1196HOH     H2 3776   1.902   1.763   2.138
 1197HOH      O 3777   0.556   1.224   1.000
 1197HOH     H1 3778   0.530   1.132   1.000
 1197HOH     H2 3779   0.644   1.225   0.962
 1198HOH      O 3780   0.374   0.802   0.585
 1198HOH     H1 3781   0.418   0.792   0.669
 1198HOH     H2 3782   0.398   0.725   0.535
 1199HOH      O 3783   1.920   2.678   3.351
 1199HOH     H1 3784   1.975   2.645   3.422
 1199HOH     H2 3785   1.832   2.647   3.372
 1200HOH      O 3786   0.091   2.004   1.795
 1200HOH     H1 3787   0.064   1.988   1.885
 1200HOH     H2 3788   0.012   2.040   1.753
 1201HOH      O 3789   0.899   0.145   2.086
 1201HOH     H1 3790   0.844   0.125   2.162
 1201HOH     H2 3791   0.945   0.226   2.109
 1202HOH      O 3792   0.816   1.600   2.439
 1202HOH     H1 3793   0.857   1.513   2.443
 1202HOH     H2 3794   0.874   1.651   2.383
 1203HOH      O 3795   1.180   2.989   2.480
 1203HOH     H1 3796   1.146   2.901   2.463
 1203HOH     H2 3797   1.169   3.001   2.574
 1204HOH      O 3798   3.298   2.059   0.708
 1204HOH     H1 3799   3.330   2.128   0.766
 1204HOH     H2 3800   3.339   2.077   0.624
 1205HOH      O 3801   3.146   3.036   0.266
 1205HOH     H1 3802   3.184   3.121   0.288
 1205HOH     H2 3803   3.054   3.053   0.248
 1206HOH      O 3804   1.911   2.936   3.968
 1206HOH     H1 3805   1.959   2.854   3.956
 1206HOH     H2 3806   1.978   3.004   3.968
 1207HOH      O 3807   0.148   3.298   1.203
 1207HOH     H1 3808   0.167   3.349   1.282
 1207HOH     H2 3809   0.184   3.211   1.222
 1208HOH      O 3810   3.983   2.277   2.399
 1208HOH     H1 3811   3.994   2.332   2.477
 1208HOH     H2 3812   4.056   2.302   2.342
 1209HOH      O 3813   3.762   2.481   0.413
 1209HOH     H1 3814   3.713   2.536   0.352
 1209HOH     H2 3815   3.776   2.536   0.490
 1210HOH      O 3816   1.598   3.099   3.274
 1210HOH     H1 3817   1.662   3.035   3.242
 1210HOH     H2 3818   1.576   3.068   3.362
 1211HOH      O 3819   3.192   3.512   0.920
 1211HOH     H1 3820   3.267   3.534   0.975
 1211HOH     H2 3821   3.194   3.578   0.850
 1212HOH      O 3822   2.048   0.630   3.429
 1212HOH     H1 3823   2.124   0.675   3.466
 1212HOH     H2 3824   2.062   0.538   3.451
 1213HOH      O 3825   1.723   0.726   0.771
 1213HOH     H1 3826   1.764   0.663   0.829
 1213HOH     H2 3827   1.673   0.673   0.709
 1214HOH      O 3828   1.131   3.619   2.872
 1214HOH     H1 3829   1.129   3.706   2.913
 1214HOH     H2 3830   1.064   3.623   2.804
 1215HOH      O 3831   2.252   3.312   2.397
 1215HOH     H1 3832   2.209   3.226   2.399
 1215HOH     H2 3833   2.182   3.374   2.420
 1216HOH      O 3834   3.534   1.138   0.132
 1216HOH     H1 3835   3.575   1.064   0.177
 1216HOH     H2 3836   3.471   1.173   0.196
 1217HOH      O 3837   0.225   3.878   3.570
 1217HOH     H1 3838   0.286   3.806   3.587
 1217HOH     H2 3839   0.220   3.882   3.474
 1218HOH      O 3840   0.449   2.274   0.256
 1218HOH     H1 3841   0.438   2.270   0.161
 1218HOH     H2 3842   0.429   2.364   0.279
 1219HOH      O 3843   3.191   0.102   1.452
 1219HOH     H1 3844   3.179   0.180   1.505
 1219HOH     H2 3845   3.115   0.047   1.472
 1220HOH      O 3846   2.337   2.962   2.200
 1220HOH     H1 3847   2.291   3.004   2.127
 1220HOH     H2 3848   2.380   3.034   2.246
 1221HOH      O 3849   3.156   0.096   3.468
 1221HOH     H1 3850   3.128   0.010   3.437
 1221HOH     H2 3851   3.198   0.136   3.392
 1222HOH      O 3852   0.165   0.648   1.973
 1222HOH     H1 3853   0.241   0.597   2.002
 1222HOH     H2 3854   0.129   0.685   2.053
 1223HOH      O 3855   1.489   3.662   2.626
 1223HOH     H1 3856   1.497   3.736   2.565
 1223HOH     H2 3857   1.547   3.596   2.589
 1224HOH      O 3858   0.173   1.854   2.245
 1224HOH     H1 3859   0.140   1.766   2.224
 1224HOH     H2 3860   0.217   1.844   2.329
 1225HOH      O 3861   3.985   3.616   3.577
 1225HOH     H1 3862   4.010   3.596   3.487
 1225HOH     H2 3863   4.062   3.593   3.629
 1226HOH      O 3864   2.727   3.373   1.940
 1226HOH     H1 3865   2.723   3.348   1.848
 1226HOH     H2 3866   2.776   3.455   1.941
 1227HOH      O 3867   0.307   3.804   0.960
 1227HOH     H1 3868   0.308   3.781   0.867
 1227HOH     H2 3869   0.281   3.724   1.004
 1228HOH      O 3870   1.940   3.190   3.344
 1228HOH     H1 3871   1.962   3.100   3.321
 1228HOH     H2 3872   1.970   3.199   3.435
 1229HOH      O 3873   0.733   1.179   0.037
 1229HOH     H1 3874   0.746   1.204   0.129
 1229HOH     H2 3875   0.745   1.261  -0.011
 1230HOH      O 3876   2.672   3.059   0.686
 1230HOH     H1 3877   2.594   3.005   0.675
 1230HOH     H2 3878   2.707   3.068   0.597
 1231HOH      O 3879   1.739   2.554   0.343
 1231HOH     H1 3880   1.658   2.534   0.390
 1231HOH     H2 3881   1.807   2.553   0.410
 1232HOH      O 3882   1.778   1.419   3.076
 1232HOH     H1 3883   1.735   1.353   3.130
 1232HOH     H2 3884   1.783   1.379   2.989
 1233HOH      O 3885   3.157   1.879   1.250
 1233HOH     H1 3886   3.145   1.845   1.338
 1233HOH     H2 3887   3.222   1.821   1.210
 1234HOH      O 3888   2.594   0.760   3.107
 1234HOH     H1 3889   2.508   0.761   3.150
 1234HOH     H2 3890   2.628   0.849   3.120
 1235HOH      O 3891   1.805   2.812   2.840
 1235HOH     H1 3892   1.800   2.907   2.851
 1235HOH     H2 3893   1.714   2.785   2.827
 1236HOH      O 3894   1.768   1.061   1.576
 1236HOH     H1 3895   1.701   1.011   1.529
 1236HOH     H2 3896   1.771   1.145   1.531
 1237HOH      O 3897   2.325   3.961   1.500
 1237HOH     H1 3898   2.268   3.916   1.562
 1237HOH     H2 3899   2.280   3.951   1.416
 1238HOH      O 3900   1.719   2.617   3.827
 1238HOH     H1 3901   1.693   2.700   3.867
 1238HOH     H2 3902   1.637   2.572   3.810
 1239HOH      O 3903   0.988   3.820   3.257
 1239HOH     H1 3904   0.974   3.853   3.168
 1239HOH     H2 3905   0.900   3.804   3.290
 1240HOH      O 3906   3.121   0.301   0.607
 1240HOH     H1 3907   3.149   0.220   0.650
 1240HOH     H2 3908   3.026   0.302   0.619
 1241HOH      O 3909   1.025   0.517   1.777
 1241HOH     H1 3910   1.118   0.526   1.796
 1241HOH     H2 3911   0.999   0.603   1.743
 1242HOH      O 3912   3.165   1.553   3.397
 1242HOH     H1 3913   3.083   1.519   3.432
 1242HOH     H2 3914   3.145   1.645   3.375
 1243HOH      O 3915   2.181   2.962   3.328
 1243HOH     H1 3916   2.184   2.925   3.416
 1243HOH     H2 3917   2.089   2.953   3.301
 1244HOH      O 3918   1.586   3.555   0.392
 1244HOH     H1 3919   1.661   3.567   0.451
 1244HOH     H2 3920   1.525   3.500   0.441
 1245HOH      O 3921   1.626   1.927   0.443
 1245HOH     H1 3922   1.670   1.895   0.364
 1245HOH     H2 3923   1.674   2.007   0.466
 1246HOH      O 3924   2.335   0.200   0.330
 1246HOH     H1 3925   2.405   0.135   0.334
 1246HOH     H2 3926   2.366   0.265   0.267
 1247HOH      O 3927   3.208   2.032   1.572
 1247HOH     H1 3928   3.198   1.941   1.545
 1247HOH     H2 3929   3.130   2.050   1.625
 1248HOH      O 3930   3.188   3.116   2.219
 1248HOH     H1 3931   3.132   3.144   2.291
 1248HOH     H2 3932   3.128   3.110   2.144
 1249HOH      O 3933   1.984   2.002   1.142
 1249HOH     H1 3934   1.941   1.999   1.228
 1249HOH     H2 3935   1.988   2.095   1.121
 1250HOH      O 3936   3.287   3.966   3.930
 1250HOH     H1 3937   3.213   3.947   3.988
 1250HOH     H2 3938   3.263   4.049   3.889
 1251HOH      O 3939   3.303   3.180   1.857
 1251HOH     H1 3940   3.283   3.223   1.773
 1251HOH     H2 3941   3.311   3.252   1.919
 1252HOH      O 3942   0.374   2.067   1.762
 1252HOH     H1 3943   0.285   2.032   1.772
 1252HOH     H2 3944   0.389   2.069   1.668
 1253HOH      O 3945   2.368   3.628   0.373
 1253HOH     H1 3946   2.344   3.709   0.327
 1253HOH     H2 3947   2.460   3.641   0.396
 1254HOH      O 3948   3.254   0.737   1.491
 1254HOH     H1 3949   3.249   0.791   1.570
 1254HOH     H2 3950   3.178   0.764   1.439
 1255HOH      O 3951   2.009   3.094   3.618
 1255HOH     H1 3952   1.933   3.078   3.672
 1255HOH     H2 3953   2.050   3.008   3.608
 1256HOH      O 3954   3.943   2.707   2.737
 1256HOH     H1 3955   3.944   2.771   2.666
 1256HOH     H2 3956   3.976   2.756   2.813
 1257HOH      O 3957   0.913   3.927   0.737
 1257HOH     H1 3958   0.866   3.847   0.759
 1257HOH     H2 3959   0.856   3.971   0.673
 1258HOH      O 3960   3.477   3.883   1.571
 1258HOH     H1 3961   3.478   3.958   1.631
 1258HOH     H2 3962   3.504   3.920   1.487
 1259HOH      O 3963   0.575   3.995   1.886
 1259HOH     H1 3964   0.634   3.982   1.813
 1259HOH     H2 3965   0.567   4.090   1.895
 1260HOH      O 3966   0.073   1.079   1.678
 1260HOH     H1 3967  -0.022   1.094   1.671
 1260HOH     H2 3968   0.083   1.032   1.761
 1261HOH      O 3969   1.377   0.935   0.228
 1261HOH     H1 3970   1.283   0.947   0.216
 1261HOH     H2 3971   1.417   1.003   0.174
 1262HOH      O 3972   2.819   1.836   0.803
 1262HOH     H1 3973   2.816   1.751   0.759
 1262HOH     H2 3974   2.909   1.866   0.793
 1263HOH      O 3975   3.186   1.122   3.679
 1263HOH     H1 3976   3.226   1.037   3.662
 1263HOH     H2 3977   3.218   1.148   3.766
 1264HOH      O 3978   2.587   2.306   2.490
 1264HOH     H1 3979   2.604   2.214   2.468
 1264HOH     H2 3980   2.674   2.346   2.495
 1265HOH      O 3981   2.551   2.768   2.062
 1265HOH     H1 3982   2.555   2.848   2.114
 1265HOH     H2 3983   2.609   2.707   2.107
 1266HOH      O 3984   3.785   0.066   1.909
 1266HOH     H1 3985   3.819  -0.023   1.900
 1266HOH     H2 3986   3.845   0.120   1.858
 1267HOH      O 3987   1.973   2.682   3.911
 1267HOH     H1 3988   1.886   2.643   3.898
 1267HOH     H2 3989   2.027   2.642   3.843
 1268HOH      O 3990   1.757   0.914   3.462
 1268HOH     H1 3991   1.716   0.998   3.483
 1268HOH     H2 3992   1.804   0.889   3.541
 1269HOH      O 3993   0.246   3.767   1.608
 1269HOH     H1 3994   0.255   3.855   1.646
 1269HOH     H2 3995   0.305   3.713   1.661
 1270HOH      O 3996   0.077   1.740   2.699
 1270HOH     H1 3997  -0.005   1.772   2.737
 1270HOH     H2 3998   0.144   1.764   2.763
 1271HOH      O 3999   1.795   3.617   0.553
 1271HOH     H1 4000   1.888   3.633   0.539
 1271HOH     H2 4001   1.756   3.704   0.554
 1272HOH      O 4002   3.213   2.821   0.141
 1272HOH     H1 4003   3.131   2.795   0.100
 1272HOH     H2 4004   3.191   2.900   0.191
 1273HOH      O 4005   0.843   0.434   1.005
 1273HOH     H1 4006   0.896   0.492   1.059
 1273HOH     H2 4007   0.830   0.482   0.923
 1274HOH      O 4008   1.481   1.282   3.279
 1274HOH     H1 4009   1.472   1.266   3.185
 1274HOH     H2 4010   1.456   1.374   3.290
 1275HOH      O 4011   0.764   2.959   1.225
 1275HOH     H1 4012   0.857   2.940   1.215
 1275HOH     H2 4013   0.725   2.875   1.249
 1276HOH      O 4014   3.717   3.855   0.107
 1276HOH     H1 4015   3.623   3.872   0.116
 1276HOH     H2 4016   3.741   3.806   0.186
 1277HOH      O 4017   3.900   1.043   2.080
 1277HOH     H1 4018   3.993   1.062   2.071
 1277HOH     H2 4019   3.858   1.129   2.079
 1278HOH      O 4020   1.053   0.238   2.824
 1278HOH     H1 4021   1.008   0.323   2.820
 1278HOH     H2 4022   1.042   0.209   2.914
 1279HOH      O 4023   3.999   1.675   1.248
 1279HOH     H1 4024   3.938   1.730   1.199
 1279HOH     H2 4025   4.086   1.700   1.217
 1280HOH      O 4026   0.953   0.524   2.502
 1280HOH     H1 4027   0.959   0.533   2.407
 1280HOH     H2 4028   1.042   0.501   2.529
 1281HOH      O 4029   3.862   0.905   2.744
 1281HOH     H1 4030   3.837   0.895   2.835
 1281HOH     H2 4031   3.794   0.961   2.706
 1282HOH      O 4032   3.260   0.008   3.108
 1282HOH     H1 4033   3.274   0.079   3.170
 1282HOH     H2 4034   3.166  -0.010   3.111
 1283HOH      O 4035   2.917   2.799   2.233
 1283HOH     H1 4036   2.852   2.870   2.236
 1283HOH     H2 4037   2.920   2.773   2.141
 1284HOH      O 4038  -0.010   0.327   0.078
 1284HOH     H1 4039   0.083   0.309   0.076
 1284HOH     H2 4040  -0.021   0.404   0.023
 1285HOH      O 4041   2.891   2.774   1.951
 1285HOH     H1 4042   2.853   2.735   1.872
 1285HOH     H2 4043   2.961   2.831   1.918
 1286HOH      O 4044   1.977   3.460   2.966
 1286HOH     H1 4045   2.022   3.542   2.987
 1286HOH     H2 4046   2.037   3.414   2.908
 1287HOH      O 4047   2.696   2.575   0.283
 1287HOH     H1 4048   2.732   2.487   0.273
 1287HOH     H2 4049   2.770   2.633   0.266
 1288HOH      O 4050   2.905   0.939   1.119
 1288HOH     H1 4051   2.879   0.980   1.202
 1288HOH     H2 4052   2.942   0.854   1.145
 1289HOH      O 4053   0.247   0.476   3.123
 1289HOH     H1 4054   0.262   0.392   3.165
 1289HOH     H2 4055   0.173   0.514   3.170
 1290HOH      O 4056   0.442   0.456   1.818
 1290HOH     H1 4057   0.409   0.486   1.902
 1290HOH     H2 4058   0.487   0.532   1.781
 1291HOH      O 4059   2.909   2.093   0.098
 1291HOH     H1 4060   2.912   2.146   0.019
 1291HOH     H2 4061   2.979   2.128   0.154
 1292HOH      O 4062   1.403   2.119   3.974
 1292HOH     H1 4063   1.320   2.150   4.010
 1292HOH     H2 4064   1.469   2.155   4.033
 1293HOH      O 4065   0.713   2.267   0.287
 1293HOH     H1 4066   0.619   2.280   0.271
 1293HOH     H2 4067   0.719   2.182   0.330
 1294HOH      O 4068   0.377   3.379   1.708
 1294HOH     H1 4069   0.445   3.355   1.772
 1294HOH     H2 4070   0.416   3.452   1.659
 1295HOH      O 4071   2.549   2.157   2.768
 1295HOH     H1 4072   2.552   2.135   2.675
 1295HOH     H2 4073   2.587   2.245   2.773
 1296HOH      O 4074   0.576   3.441   3.630
 1296HOH     H1 4075   0.526   3.393   3.564
 1296HOH     H2 4076   0.615   3.373   3.685
 1297HOH      O 4077   0.053   3.562   3.312
 1297HOH     H1 4078   0.133   3.545   3.262
 1297HOH     H2 4079  -0.016   3.519   3.261
 1298HOH      O 4080   3.431   0.524   0.435
 1298HOH     H1 4081   3.504   0.503   0.493
 1298HOH     H2 4082   3.468   0.518   0.347
 1299HOH      O 4083   3.291   2.360   2.882
 1299HOH     H1 4084   3.369   2.414   2.868
 1299HOH     H2 4085   3.276   2.318   2.798
 1300HOH      O 4086   0.092   2.496   0.469
 1300HOH     H1 4087   0.101   2.559   0.541
 1300HOH     H2 4088   0.088   2.550   0.390
 1301HOH      O 4089   2.331   2.684   3.876
 1301HOH     H1 4090   2.261   2.644   3.825
 1301HOH     H2 4091   2.350   2.766   3.830
 1302HOH      O 4092   2.629   0.493   2.174
 1302HOH     H1 4093   2.662   0.437   2.244
 1302HOH     H2 4094   2.692   0.564   2.167
 1303HOH      O 4095   1.612   2.844   3.178
 1303HOH     H1 4096   1.603   2.805   3.265
 1303HOH     H2 4097   1.643   2.772   3.123
 1304HOH      O 4098   0.544   0.354   1.273
 1304HOH     H1 4099   0.606   0.314   1.334
 1304HOH     H2 4100   0.463   0.360   1.323
 1305HOH      O 4101   3.638   1.862   2.242
 1305HOH     H1 4102   3.674   1.932   2.188
 1305HOH     H2 4103   3.645   1.895   2.332
 1306HOH      O 4104   0.082   0.780   2.205
 1306HOH     H1 4105   0.162   0.809   2.250
 1306HOH     H2 4106   0.012   0.832   2.244
 1307HOH      O 4107   0.385   1.147   2.299
 1307HOH     H1 4108   0.415   1.127   2.211
 1307HOH     H2 4109   0.333   1.227   2.289
 1308HOH      O 4110   0.217   3.434   3.706
 1308HOH     H1 4111   0.272   3.424   3.784
 1308HOH     H2 4112   0.166   3.354   3.702
 1309HOH      O 4113   0.232   1.264   1.229
 1309HOH     H1 4114   0.227   1.322   1.306
 1309HOH     H2 4115   0.309   1.295   1.181
 1310HOH      O 4116   2.889   4.012   2.449
 1310HOH     H1 4117   2.935   3.942   2.401
 1310HOH     H2 4118   2.889   3.982   2.540
 1311HOH      O 4119   2.390   1.414   1.571
 1311HOH     H1 4120   2.354   1.335   1.611
 1311HOH     H2 4121   2.324   1.481   1.588
 1312HOH      O 4122   3.941   2.884   0.620
 1312HOH     H1 4123   3.926   2.967   0.665
 1312HOH     H2 4124   4.034   2.865   0.634
 1313HOH      O 4125   3.899   1.909   2.986
 1313HOH     H1 4126   3.992   1.902   3.009
 1313HOH     H2 4127   3.899   1.952   2.900
 1314HOH      O 4128   0.051   2.806   2.974
 1314HOH     H1 4129   0.138   2.817   3.013
 1314HOH     H2 4130  -0.005   2.777   3.046
 1315HOH      O 4131   3.704   1.246   0.842
 1315HOH     H1 4132   3.768   1.211   0.780
 1315HOH     H2 4133   3.736   1.333   0.863
 1316HOH      O 4134   1.386   0.370   3.787
 1316HOH     H1 4135   1.348   0.285   3.767
 1316HOH     H2 4136   1.475   0.366   3.752
 1317HOH      O 4137   3.877   0.929   0.650
 1317HOH     H1 4138   3.897   0.884   0.732
 1317HOH     H2 4139   3.949   0.903   0.591
 1318HOH      O 4140   2.463   2.380   1.972
 1318HOH     H1 4141   2.411   2.461   1.973
 1318HOH     H2 4142   2.553   2.409   1.986
 1319HOH      O 4143   1.011   0.357   3.744
 1319HOH     H1 4144   0.925   0.400   3.751
 1319HOH     H2 4145   1.022   0.313   3.828
 1320HOH      O 4146   4.012   2.569   0.906
 1320HOH     H1 4147   4.095   2.521   0.905
 1320HOH     H2 4148   3.945   2.500   0.909
 1321HOH      O 4149   0.871   0.669   1.201
 1321HOH     H1 4150   0.777   0.655   1.206
 1321HOH     H2 4151   0.881   0.753   1.157
 1322HOH      O 4152   2.637   3.663   2.448
 1322HOH     H1 4153   2.569   3.691   2.510
 1322HOH     H2 4154   2.603   3.584   2.408
 1323HOH      O 4155   3.911   3.382   2.597
 1323HOH     H1 4156   3.831   3.376   2.650
 1323HOH     H2 4157   3.896   3.457   2.539
 1324HOH      O 4158   3.780   2.926   0.404
 1324HOH     H1 4159   3.835   2.910   0.481
 1324HOH     H2 4160   3.798   3.017   0.381
 1325HOH      O 4161   2.175   1.471   2.641
 1325HOH     H1 4162   2.237   1.401   2.627
 1325HOH     H2 4163   2.090   1.427   2.649
 1326HOH      O 4164   3.508   0.935   3.682
 1326HOH     H1 4165   3.499   1.027   3.658
 1326HOH     H2 4166   3.541   0.938   3.772
 1327HOH      O 4167   0.148   3.044   3.115
 1327HOH     H1 4168   0.150   3.057   3.020
 1327HOH     H2 4169   0.058   3.067   3.141
 1328HOH      O 4170   4.005   3.736   0.231
 1328HOH     H1 4171   4.031   3.828   0.229
 1328HOH     H2 4172   4.033   3.702   0.146
 1329HOH      O 4173   3.826   2.028   0.274
 1329HOH     H1 4174   3.786   2.029   0.361
 1329HOH     H2 4175   3.890   2.099   0.275
 1330HOH      O 4176   1.590   1.126   3.531
 1330HOH     H1 4177   1.606   1.183   3.456
 1330HOH     H2 4178   1.532   1.177   3.588
 1331HOH      O 4179   1.700   3.388   2.061
 1331HOH     H1 4180   1.681   3.351   2.148
 1331HOH     H2 4181   1.776   3.339   2.030
 1332HOH      O 4182   0.656   2.171   3.019
 1332HOH     H1 4183   0.588   2.186   3.083
 1332HOH     H2 4184   0.725   2.125   3.067
 1333HOH      O 4185   0.806   2.058   0.066
 1333HOH     H1 4186   0.877   1.995   0.058
 1333HOH     H2 4187   0.835   2.117   0.137
 1334HOH      O 4188   1.501   3.969   1.384
 1334HOH     H1 4189   1.466   3.903   1.324
 1334HOH     H2 4190   1.464   3.946   1.469
 1335HOH      O 4191   2.580   1.022   0.823
 1335HOH     H1 4192   2.556   0.940   0.864
 1335HOH     H2 4193   2.625   0.997   0.742
 1336HOH      O 4194   1.803   2.117   1.714
 1336HOH     H1 4195   1.880   2.120   1.771
 1336HOH     H2 4196   1.822   2.180   1.644
 1337HOH      O 4197   1.542   3.090   0.473
 1337HOH     H1 4198   1.555   2.995   0.464
 1337HOH     H2 4199   1.488   3.114   0.397
 1338HOH      O 4200   2.765   1.608   1.916
 1338HOH     H1 4201   2.686   1.576   1.874
 1338HOH     H2 4202   2.756   1.583   2.008
 1339HOH      O 4203   0.082   2.326   2.795
 1339HOH     H1 4204   0.024   2.338   2.871
 1339HOH     H2 4205   0.033   2.364   2.722
 1340HOH      O 4206   1.416   3.120   2.472
 1340HOH     H1 4207   1.337   3.067   2.471
 1340HOH     H2 4208   1.453   3.106   2.559
 1341HOH      O 4209   2.001   2.223   1.484
 1341HOH     H1 4210   2.007   2.318   1.485
 1341HOH     H2 4211   1.928   2.204   1.425
 1342HOH      O 4212   2.555   3.025   1.360
 1342HOH     H1 4213   2.493   2.971   1.311
 1342HOH     H2 4214   2.546   3.112   1.322
 1343HOH      O 4215   2.333   3.711   4.004
 1343HOH     H1 4216   2.396   3.707   3.931
 1343HOH     H2 4217   2.327   3.621   4.035
 1344HOH      O 4218   0.084   0.012   0.200
 1344HOH     H1 4219   0.150   0.038   0.136
 1344HOH     H2 4220   0.002   0.012   0.151
 1345HOH      O 4221   3.250   3.641   1.270
 1345HOH     H1 4222   3.228   3.600   1.353
 1345HOH     H2 4223   3.272   3.567   1.212
 1346HOH      O 4224   3.776   2.146   3.831
 1346HOH     H1 4225   3.747   2.205   3.762
 1346HOH     H2 4226   3.797   2.064   3.787
 1347HOH      O 4227   0.979   1.161   2.893
 1347HOH     H1 4228   0.936   1.137   2.975
 1347HOH     H2 4229   0.913   1.212   2.845
 1348HOH      O 4230   3.374   2.937   0.429
 1348HOH     H1 4231   3.299   2.963   0.375
 1348HOH     H2 4232   3.408   2.857   0.387
 1349HOH      O 4233   1.594   0.319   1.952
 1349HOH     H1 4234   1.669   0.378   1.940
 1349HOH     H2 4235   1.621   0.259   2.021
 1350HOH      O 4236   1.540   0.742   3.347
 1350HOH     H1 4237   1.548   0.681   3.420
 1350HOH     H2 4238   1.627   0.782   3.340
 1351HOH      O 4239   3.275   1.426   1.541
 1351HOH     H1 4240   3.180   1.418   1.530
 1351HOH     H2 4241   3.293   1.382   1.624
 1352HOH      O 4242   2.562   0.499   0.963
 1352HOH     H1 4243   2.629   0.566   0.976
 1352HOH     H2 4244   2.545   0.465   1.051
 1353HOH      O 4245   2.667   0.846   2.459
 1353HOH     H1 4246   2.659   0.940   2.440
 1353HOH     H2 4247   2.683   0.806   2.373
 1354HOH      O 4248   1.995   1.072   0.601
 1354HOH     H1 4249   1.943   1.000   0.564
 1354HOH     H2 4250   2.084   1.052   0.574
 1355HOH      O 4251   1.447   1.521   2.215
 1355HOH     H1 4252   1.461   1.426   2.221
 1355HOH     H2 4253   1.522   1.559   2.259
 1356HOH      O 4254   0.019   0.282   1.139
 1356HOH     H1 4255  -0.026   0.293   1.055
 1356HOH     H2 4256   0.111   0.300   1.119
 1357HOH      O 4257   1.144   1.235   3.328
 1357HOH     H1 4258   1.175   1.173   3.262
 1357HOH     H2 4259   1.095   1.181   3.391
 1358HOH      O 4260   0.366   1.438   0.948
 1358HOH     H1 4261   0.428   1.369   0.972
 1358HOH     H2 4262   0.382   1.452   0.854
 1359HOH      O 4263   2.252   1.338   3.329
 1359HOH     H1 4264   2.345   1.357   3.311
 1359HOH     H2 4265   2.215   1.321   3.243
 1360HOH      O 4266   2.518   3.520   1.627
 1360HOH     H1 4267   2.471   3.539   1.708
 1360HOH     H2 4268   2.548   3.605   1.596
 1361HOH      O 4269   0.951   1.367   2.455
 1361HOH     H1 4270   0.945   1.291   2.398
 1361HOH     H2 4271   1.044   1.378   2.472
 1362HOH      O 4272  -0.005   0.512   2.270
 1362HOH     H1 4273  -0.015   0.607   2.264
 1362HOH     H2 4274   0.086   0.500   2.298
 1363HOH      O 4275   2.968   3.076   3.450
 1363HOH     H1 4276   2.990   3.167   3.432
 1363HOH     H2 4277   2.874   3.077   3.470
 1364HOH      O 4278   2.915   1.439   0.975
 1364HOH     H1 4279   2.851   1.381   1.015
 1364HOH     H2 4280   2.926   1.510   1.038
 1365HOH      O 4281   2.601   1.238   1.965
 1365HOH     H1 4282   2.597   1.188   1.884
 1365HOH     H2 4283   2.564   1.324   1.942
 1366HOH      O 4284   1.611   2.304   0.061
 1366HOH     H1 4285   1.701   2.299   0.031
 1366HOH     H2 4286   1.575   2.381   0.016
 1367HOH      O 4287   3.693   3.454   2.319
 1367HOH     H1 4288   3.749   3.412   2.254
 1367HOH     H2 4289   3.631   3.385   2.345
 1368HOH      O 4290   2.247   3.369   2.872
 1368HOH     H1 4291   2.290   3.403   2.951
 1368HOH     H2 4292   2.320   3.347   2.814
 1369HOH      O 4293   3.748   3.865   1.731
 1369HOH     H1 4294   3.653   3.872   1.722
 1369HOH     H2 4295   3.783   3.918   1.660
 1370HOH      O 4296   1.478   3.817   3.282
 1370HOH     H1 4297   1.519   3.847   3.363
 1370HOH     H2 4298   1.409   3.757   3.311
 1371HOH      O 4299   1.911   0.348   2.016
 1371HOH     H1 4300   1.995   0.311   2.042
 1371HOH     H2 4301   1.915   0.439   2.044
 1372HOH      O 4302   1.741   0.717   2.851
 1372HOH     H1 4303   1.693   0.651   2.901
 1372HOH     H2 4304   1.833   0.693   2.862
 1373HOH      O 4305   0.618   2.564   1.780
 1373HOH     H1 4306   0.611   2.499   1.710
 1373HOH     H2 4307   0.605   2.514   1.861
 1374HOH      O 4308   3.960   0.636   3.492
 1374HOH     H1 4309   3.993   0.658   3.404
 1374HOH     H2 4310   4.006   0.696   3.550
 1375HOH      O 4311   2.341   1.171   3.507
 1375HOH     H1 4312   2.343   1.089   3.458
 1375HOH     H2 4313   2.311   1.236   3.443
 1376HOH      O 4314   2.972   2.303   2.032
 1376HOH     H1 4315   3.042   2.354   1.991
 1376HOH     H2 4316   2.996   2.212   2.014
 1377HOH      O 4317   1.471   0.700   0.071
 1377HOH     H1 4318   1.446   0.776   0.122
 1377HOH     H2 4319   1.410   0.700  -0.004
 1378HOH      O 4320   3.868   3.675   2.319
 1378HOH     H1 4321   3.844   3.725   2.396
 1378HOH     H2 4322   3.792   3.619   2.302
 1379HOH      O 4323   3.922   3.032   1.089
 1379HOH     H1 4324   3.830   3.027   1.065
 1379HOH     H2 4325   3.942   3.125   1.091
 1380HOH      O 4326   1.769   1.224   3.819
 1380HOH     H1 4327   1.809   1.139   3.836
 1380HOH     H2 4328   1.806   1.252   3.736
 1381HOH      O 4329   1.781   3.209   0.526
 1381HOH     H1 4330   1.738   3.267   0.589
 1381HOH     H2 4331   1.713   3.146   0.501
 1382HOH      O 4332   3.525   0.763   1.779
 1382HOH     H1 4333   3.434   0.757   1.751
 1382HOH     H2 4334   3.569   0.692   1.732
 1383HOH      O 4335   1.010   0.609   2.241
 1383HOH     H1 4336   1.030   0.531   2.188
 1383HOH     H2 4337   1.094   0.633   2.280
 1384HOH      O 4338   3.806   1.628   2.690
 1384HOH     H1 4339   3.744   1.693   2.658
 1384HOH     H2 4340   3.785   1.617   2.782
 1385HOH      O 4341   1.796   0.768   1.857
 1385HOH     H1 4342   1.850   0.816   1.794
 1385HOH     H2 4343   1.859   0.717   1.908
 1386HOH      O 4344   0.603   3.129   3.190
 1386HOH     H1 4345   0.598   3.194   3.120
 1386HOH     H2 4346   0.535   3.066   3.170
 1387HOH      O 4347   3.494   2.109   2.857
 1387HOH     H1 4348   3.464   2.073   2.941
 1387HOH     H2 4349   3.586   2.131   2.872
 1388HOH      O 4350   0.719   3.733   3.293
 1388HOH     H1 4351   0.624   3.737   3.276
 1388HOH     H2 4352   0.726   3.719   3.387
 1389HOH      O 4353   1.987   2.693   0.156
 1389HOH     H1 4354   1.976   2.689   0.061
 1389HOH     H2 4355   1.973   2.603   0.185
 1390HOH      O 4356   3.616   2.286   3.307
 1390HOH     H1 4357   3.663   2.209   3.273
 1390HOH     H2 4358   3.551   2.306   3.240
 1391HOH      O 4359   2.391   0.852   0.041
 1391HOH     H1 4360   2.405   0.876   0.133
 1391HOH     H2 4361   2.331   0.920   0.009
 1392HOH      O 4362   1.319   1.764   2.219
 1392HOH     H1 4363   1.347   1.673   2.213
 1392HOH     H2 4364   1.250   1.772   2.154
 1393HOH      O 4365   3.924   0.208   3.141
 1393HOH     H1 4366   3.855   0.145   3.163
 1393HOH     H2 4367   3.881   0.273   3.085
 1394HOH      O 4368   1.868   0.081   1.087
 1394HOH     H1 4369   1.919   0.063   1.166
 1394HOH     H2 4370   1.876   0.000   1.036
 1395HOH      O 4371   2.207   2.132   2.980
 1395HOH     H1 4372   2.290   2.169   3.013
 1395HOH     H2 4373   2.231   2.046   2.947
 1396HOH      O 4374   1.703   3.204   1.683
 1396HOH     H1 4375   1.797   3.222   1.674
 1396HOH     H2 4376   1.661   3.288   1.668
 1397HOH      O 4377   0.057   1.617   2.206
 1397HOH     H1 4378   0.056   1.554   2.277
 1397HOH     H2 4379  -0.036   1.632   2.186
 1398HOH      O 4380   1.405   2.976   3.077
 1398HOH     H1 4381   1.387   2.926   2.997
 1398HOH     H2 4382   1.464   2.919   3.128
 1399HOH      O 4383   0.406   3.710   0.551
 1399HOH     H1 4384   0.357   3.676   0.626
 1399HOH     H2 4385   0.343   3.708   0.479
 1400HOH      O 4386   1.786   3.114   2.414
 1400HOH     H1 4387   1.753   3.138   2.501
 1400HOH     H2 4388   1.717   3.059   2.377
 1401HOH      O 4389   1.353   2.659   3.109
 1401HOH     H1 4390   1.448   2.662   3.110
 1401HOH     H2 4391   1.327   2.730   3.051
 1402HOH      O 4392   1.385   2.001   0.337
 1402HOH     H1 4393   1.462   1.988   0.393
 1402HOH     H2 4394   1.315   2.023   0.398
 1403HOH      O 4395   1.193   1.470   2.532
 1403HOH     H1 4396   1.166   1.544   2.478
 1403HOH     H2 4397   1.285   1.486   2.552
 1404HOH      O 4398   0.170   2.935   3.564
 1404HOH     H1 4399   0.076   2.922   3.573
 1404HOH     H2 4400   0.184   3.025   3.594
 1405HOH      O 4401   2.497   3.466   2.074
 1405HOH     H1 4402   2.501   3.533   2.006
 1405HOH     H2 4403   2.581   3.421   2.068
 1406HOH      O 4404   1.117   0.083   1.761
 1406HOH     H1 4405   1.153   0.113   1.845
 1406HOH     H2 4406   1.088   0.163   1.717
 1407HOH      O 4407   3.028   3.479   2.236
 1407HOH     H1 4408   2.994   3.411   2.178
 1407HOH     H2 4409   2.964   3.485   2.307
 1408HOH      O 4410   3.651   0.295   2.501
 1408HOH     H1 4411   3.591   0.284   2.574
 1408HOH     H2 4412   3.710   0.220   2.507
 1409HOH      O 4413   1.358   1.518   3.169
 1409HOH     H1 4414   1.297   1.449   3.143
 1409HOH     H2 4415   1.370   1.571   3.090
 1410HOH      O 4416   0.494   2.560   0.619
 1410HOH     H1 4417   0.421   2.499   0.623
 1410HOH     H2 4418   0.455   2.645   0.599
 1411HOH      O 4419   1.401   0.182   0.177
 1411HOH     H1 4420   1.439   0.113   0.124
 1411HOH     H2 4421   1.442   0.172   0.263
 1412HOH      O 4422   1.432   1.555   1.928
 1412HOH     H1 4423   1.453   1.526   2.017
 1412HOH     H2 4424   1.466   1.644   1.923
 1413HOH      O 4425   1.441   2.497   3.883
 1413HOH     H1 4426   1.419   2.443   3.807
 1413HOH     H2 4427   1.357   2.512   3.927
 1414HOH      O 4428   3.938   1.448   3.521
 1414HOH     H1 4429   3.998   1.425   3.450
 1414HOH     H2 4430   3.852   1.419   3.489
 1415HOH      O 4431   0.804   1.404   2.783
 1415HOH     H1 4432   0.754   1.367   2.711
 1415HOH     H2 4433   0.742   1.461   2.829
 1416HOH      O 4434   0.533   3.915   0.674
 1416HOH     H1 4435   0.466   3.971   0.634
 1416HOH     H2 4436   0.517   3.829   0.636
 1417HOH      O 4437   0.235   1.424   2.502
 1417HOH     H1 4438   0.162   1.485   2.493
 1417HOH     H2 4439   0.197   1.338   2.486
 1418HOH      O 4440   2.594   3.764   1.994
 1418HOH     H1 4441   2.582   3.858   1.999
 1418HOH     H2 4442   2.640   3.750   1.911
 1419HOH      O 4443   0.768   0.989   1.408
 1419HOH     H1 4444   0.703   1.057   1.391
 1419HOH     H2 4445   0.841   1.035   1.448
 1420HOH      O 4446   2.815   0.922   1.680
 1420HOH     H1 4447   2.782   0.998   1.633
 1420HOH     H2 4448   2.818   0.852   1.615
 1421HOH      O 4449   2.196   0.534   0.379
 1421HOH     H1 4450   2.264   0.588   0.420
 1421HOH     H2 4451   2.126   0.531   0.444
 1422HOH      O 4452   3.468   1.205   0.638
 1422HOH     H1 4453   3.491   1.129   0.692
 1422HOH     H2 4454   3.374   1.195   0.621
 1423HOH      O 4455   3.212   2.263   0.983
 1423HOH     H1 4456   3.157   2.309   0.919
 1423HOH     H2 4457   3.169   2.178   0.995
 1424HOH      O 4458   0.315   3.760   1.344
 1424HOH     H1 4459   0.340   3.849   1.317
 1424HOH     H2 4460   0.301   3.766   1.438
 1425HOH      O 4461   0.134   0.238   3.227
 1425HOH     H1 4462   0.045   0.225   3.194
 1425HOH     H2 4463   0.124   0.300   3.299
 1426HOH      O 4464   0.599   0.957   1.099
 1426HOH     H1 4465   0.553   0.987   1.178
 1426HOH     H2 4466   0.603   0.862   1.108
 1427HOH      O 4467   2.140   2.809   3.075
 1427HOH     H1 4468   2.172   2.812   3.165
 1427HOH     H2 4469   2.217   2.828   3.021
 1428HOH      O 4470   2.292   0.406   0.145
 1428HOH     H1 4471   2.355   0.471   0.113
 1428HOH     H2 4472   2.251   0.447   0.221
 1429HOH      O 4473   3.721   2.096   0.504
 1429HOH     H1 4474   3.646   2.148   0.475
 1429HOH     H2 4475   3.787   2.161   0.528
 1430HOH      O 4476   1.362   1.315   2.752
 1430HOH     H1 4477   1.373   1.409   2.735
 1430HOH     H2 4478   1.409   1.272   2.681
 1431HOH      O 4479   2.510   1.127   1.233
 1431HOH     H1 4480   2.449   1.110   1.162
 1431HOH     H2 4481   2.520   1.222   1.234
 1432HOH      O 4482   3.193   1.377   1.975
 1432HOH     H1 4483   3.228   1.297   1.934
 1432HOH     H2 4484   3.102   1.380   1.946
 1433HOH      O 4485   2.477   1.940   2.543
 1433HOH     H1 4486   2.571   1.957   2.541
 1433HOH     H2 4487   2.466   1.861   2.489
 1434HOH      O 4488   3.611   3.728   3.859
 1434HOH     H1 4489   3.660   3.697   3.935
 1434HOH     H2 4490   3.626   3.662   3.792
 1435HOH      O 4491   0.722   3.318   3.383
 1435HOH     H1 4492   0.741   3.376   3.309
 1435HOH     H2 4493   0.667   3.249   3.346
 1436HOH      O 4494   1.248   2.955   2.179
 1436HOH     H1 4495   1.220   2.960   2.271
 1436HOH     H2 4496   1.294   2.871   2.173
 1437HOH      O 4497   0.693   2.903   3.459
 1437HOH     H1 4498   0.611   2.864   3.428
 1437HOH     H2 4499   0.667   2.988   3.494
 1438HOH      O 4500   0.132   1.093   2.915
 1438HOH     H1 4501   0.187   1.048   2.851
 1438HOH     H2 4502   0.100   1.170   2.869
 1439HOH      O 4503   0.599   3.389   0.857
 1439HOH     H1 4504   0.509   3.383   0.889
 1439HOH     H2 4505   0.596   3.347   0.771
 1440HOH      O 4506   0.083   2.865   1.255
 1440HOH     H1 4507   0.142   2.939   1.269
 1440HOH     H2 4508  -0.005   2.903   1.265
 1441HOH      O 4509   2.311   2.949   3.814
 1441HOH     H1 4510   2.396   2.990   3.831
 1441HOH     H2 4511   2.251   2.991   3.875
 1442HOH      O 4512   0.442   2.799   1.734
 1442HOH     H1 4513   0.381   2.784   1.806
 1442HOH     H2 4514   0.520   2.747   1.758
 1443HOH      O 4515   1.119   1.368   3.055
 1443HOH     H1 4516   1.087   1.280   3.076
 1443HOH     H2 4517   1.085   1.385   2.967
 1444HOH      O 4518   0.052   3.413   1.461
 1444HOH     H1 4519   0.008   3.494   1.434
 1444HOH     H2 4520   0.068   3.425   1.555
 1445HOH      O 4521   0.646   0.422   2.329
 1445HOH     H1 4522   0.599   0.344   2.300
 1445HOH     H2 4523   0.596   0.453   2.405
 1446HOH      O 4524   3.667   1.358   1.251
 1446HOH     H1 4525   3.613   1.423   1.297
 1446HOH     H2 4526   3.605   1.290   1.224
 1447HOH      O 4527   3.418   1.600   3.981
 1447HOH     H1 4528   3.495   1.635   4.026
 1447HOH     H2 4529   3.362   1.567   4.051
 1448HOH      O 4530   0.584   3.456   0.545
 1448HOH     H1 4531   0.522   3.514   0.589
 1448HOH     H2 4532   0.535   3.422   0.469
 1449HOH      O 4533   3.541   0.796   1.083
 1449HOH     H1 4534   3.541   0.795   1.178
 1449HOH     H2 4535   3.569   0.884   1.060
 1450HOH      O 4536   3.760   2.041   2.094
 1450HOH     H1 4537   3.850   2.007   2.093
 1450HOH     H2 4538   3.770   2.132   2.122
 1451HOH      O 4539   3.383   3.393   2.024
 1451HOH     H1 4540   3.362   3.358   2.111
 1451HOH     H2 4541   3.426   3.476   2.042
 1452HOH      O 4542   2.628   3.217   0.369
 1452HOH     H1 4543   2.617   3.140   0.313
 1452HOH     H2 4544   2.541   3.256   0.375
 1453HOH      O 4545   2.343   0.613   3.477
 1453HOH     H1 4546   2.417   0.629   3.534
 1453HOH     H2 4547   2.310   0.527   3.504
 1454HOH      O 4548   3.267   0.985   1.597
 1454HOH     H1 4549   3.346   1.007   1.646
 1454HOH     H2 4550   3.200   1.044   1.631
 1455HOH      O 4551   1.436   3.820   1.154
 1455HOH     H1 4552   1.376   3.763   1.106
 1455HOH     H2 4553   1.520   3.807   1.111
 1456HOH      O 4554   2.740   3.014   2.223
 1456HOH     H1 4555   2.661   3.062   2.250
 1456HOH     H2 4556   2.748   3.034   2.129
 1457HOH      O 4557   1.658   1.119   2.160
 1457HOH     H1 4558   1.725   1.058   2.194
 1457HOH     H2 4559   1.638   1.086   2.073
 1458HOH      O 4560   0.214   0.107   4.016
 1458HOH     H1 4561   0.306   0.087   4.036
 1458HOH     H2 4562   0.217   0.152   3.931
 1459HOH      O 4563   2.191   2.498   2.611
 1459HOH     H1 4564   2.152   2.585   2.614
 1459HOH     H2 4565   2.198   2.471   2.702
 1460HOH      O 4566   1.815   1.686   1.372
 1460HOH     H1 4567   1.802   1.750   1.301
 1460HOH     H2 4568   1.756   1.715   1.441
 1461HOH      O 4569   3.531   0.018   2.983
 1461HOH     H1 4570   3.444  -0.019   2.970
 1461HOH     H2 4571   3.527   0.061   3.068
 1462HOH      O 4572   1.518   2.800   2.016
 1462HOH     H1 4573   1.555   2.884   1.986
 1462HOH     H2 4574   1.591   2.756   2.060
 1463HOH      O 4575   0.606   1.165   1.652
 1463HOH     H1 4576   0.519   1.131   1.629
 1463HOH     H2 4577   0.633   1.214   1.575
 1464HOH      O 4578   1.362   2.477   1.303
 1464HOH     H1 4579   1.441   2.496   1.252
 1464HOH     H2 4580   1.392   2.474   1.394
 1465HOH      O 4581   0.513   0.505   2.536
 1465HOH     H1 4582   0.531   0.439   2.603
 1465HOH     H2 4583   0.482   0.581   2.585
 1466HOH      O 4584   0.604   3.136   1.331
 1466HOH     H1 4585   0.555   3.166   1.254
 1466HOH     H2 4586   0.665   3.071   1.296
 1467HOH      O 4587   3.120   1.999   1.003
 1467HOH     H1 4588   3.122   1.941   1.080
 1467HOH     H2 4589   3.083   1.944   0.934
 1468HOH      O 4590   1.104   0.944   1.706
 1468HOH     H1 4591   1.059   0.861   1.693
 1468HOH     H2 4592   1.054   1.007   1.653
 1469HOH      O 4593   2.469   1.417   1.297
 1469HOH     H1 4594   2.417   1.398   1.375
 1469HOH     H2 4595   2.472   1.512   1.292
 1470HOH      O 4596   2.150   1.804   3.268
 1470HOH     H1 4597   2.206   1.882   3.271
 1470HOH     H2 4598   2.158   1.766   3.356
 1471HOH      O 4599   2.357   3.298   0.415
 1471HOH     H1 4600   2.278   3.292   0.362
 1471HOH     H2 4601   2.331   3.267   0.502
 1472HOH      O 4602   0.797   3.004   1.803
 1472HOH     H1 4603   0.849   3.047   1.736
 1472HOH     H2 4604   0.745   3.075   1.842
 1473HOH      O 4605   0.732   3.060   3.732
 1473HOH     H1 4606   0.797   2.994   3.708
 1473HOH     H2 4607   0.696   3.029   3.815
 1474HOH      O 4608   3.666   1.149   2.768
 1474HOH     H1 4609   3.617   1.067   2.764
 1474HOH     H2 4610   3.684   1.162   2.861
 1475HOH      O 4611   2.848   0.559   1.840
 1475HOH     H1 4612   2.855   0.473   1.797
 1475HOH     H2 4613   2.764   0.593   1.811
 1476HOH      O 4614   3.109   1.769   1.519
 1476HOH     H1 4615   3.087   1.708   1.449
 1476HOH     H2 4616   3.034   1.765   1.578
 1477HOH      O 4617   2.891   1.077   2.960
 1477HOH     H1 4618   2.906   1.042   2.872
 1477HOH     H2 4619   2.969   1.130   2.978
 1478HOH      O 4620   0.357   3.212   2.775
 1478HOH     H1 4621   0.322   3.137   2.727
 1478HOH     H2 4622   0.285   3.276   2.774
 1479HOH      O 4623   1.040   3.557   1.151
 1479HOH     H1 4624   0.992   3.541   1.232
 1479HOH     H2 4625   0.990   3.513   1.083
 1480HOH      O 4626   2.344   0.440   3.875
 1480HOH     H1 4627   2.318   0.419   3.785
 1480HOH     H2 4628   2.383   0.359   3.908
 1481HOH      O 4629   2.169   1.161   3.717
 1481HOH     H1 4630   2.188   1.208   3.799
 1481HOH     H2 4631   2.254   1.154   3.674
 1482HOH      O 4632   1.930   2.910   3.232
 1482HOH     H1 4633   1.921   2.823   3.272
 1482HOH     H2 4634   1.928   2.892   3.138
 1483HOH      O 4635   2.103   2.887   1.177
 1483HOH     H1 4636   2.188   2.864   1.140
 1483HOH     H2 4637   2.103   2.983   1.179
 1484HOH      O 4638   0.690   0.207   2.881
 1484HOH     H1 4639   0.602   0.207   2.919
 1484HOH     H2 4640   0.677   0.178   2.791
 1485HOH      O 4641   0.456   3.180   0.130
 1485HOH     H1 4642   0.394   3.171   0.058
 1485HOH     H2 4643   0.464   3.092   0.166
 1486HOH      O 4644   1.399   0.294   0.642
 1486HOH     H1 4645   1.371   0.361   0.704
 1486HOH     H2 4646   1.478   0.257   0.680
 1487HOH      O 4647   3.098   3.413   2.584
 1487HOH     H1 4648   3.077   3.450   2.669
 1487HOH     H2 4649   3.078   3.482   2.521
 1488HOH      O 4650   1.491   0.851   1.190
 1488HOH     H1 4651   1.559   0.894   1.139
 1488HOH     H2 4652   1.409   0.875   1.146
 1489HOH      O 4653   0.868   1.945   0.705
 1489HOH     H1 4654   0.772   1.939   0.700
 1489HOH     H2 4655   0.891   1.891   0.780
 1490HOH      O 4656   2.541   0.823   1.127
 1490HOH     H1 4657   2.521   0.828   1.034
 1490HOH     H2 4658   2.459   0.846   1.171
 1491HOH      O 4659   3.140   2.433   0.691
 1491HOH     H1 4660   3.162   2.490   0.765
 1491HOH     H2 4661   3.193   2.467   0.618
 1492HOH      O 4662   0.062   2.802   3.285
 1492HOH     H1 4663   0.034   2.891   3.262
 1492HOH     H2 4664   0.054   2.799   3.380
 1493HOH      O 4665   0.685   3.982   3.081
 1493HOH     H1 4666   0.634   4.063   3.092
 1493HOH     H2 4667   0.641   3.918   3.136
 1494HOH      O 4668   1.393   2.317   2.036
 1494HOH     H1 4669   1.336   2.383   2.076
 1494HOH     H2 4670   1.432   2.363   1.961
 1495HOH      O 4671   2.034   0.142   3.578
 1495HOH     H1 4672   1.990   0.143   3.663
 1495HOH     H2 4673   2.081   0.059   3.577
 1496HOH      O 4674   0.942   1.227   2.124
 1496HOH     H1 4675   0.976   1.192   2.042
 1496HOH     H2 4676   0.904   1.312   2.100
 1497HOH      O 4677   2.055   1.562   0.425
 1497HOH     H1 4678   2.140   1.565   0.381
 1497HOH     H2 4679   2.064   1.492   0.490
 1498HOH      O 4680   1.141   2.405   1.153
 1498HOH     H1 4681   1.170   2.402   1.061
 1498HOH     H2 4682   1.222   2.416   1.203
 1499HOH      O 4683   2.575   2.863   2.485
 1499HOH     H1 4684   2.652   2.903   2.445
 1499HOH     H2 4685   2.588   2.875   2.579
 1500HOH      O 4686   0.029   2.229   3.961
 1500HOH     H1 4687   0.052   2.149   4.009
 1500HOH     H2 4688  -0.066   2.227   3.955
 1501HOH      O 4689   0.773   1.043   3.065
 1501HOH     H1 4690   0.768   1.105   3.138
 1501HOH     H2 4691   0.681   1.028   3.041
 1502HOH      O 4692   2.459   1.503   1.910
 1502HOH     H1 4693   2.392   1.448   1.869
 1502HOH     H2 4694   2.422   1.591   1.908
 1503HOH      O 4695   3.895   1.302   3.070
 1503HOH     H1 4696   3.807   1.302   3.108
 1503HOH     H2 4697   3.922   1.210   3.072
 1504HOH      O 4698   2.244   1.567   2.882
 1504HOH     H1 4699   2.182   1.543   2.951
 1504HOH     H2 4700   2.203   1.532   2.802
 1505HOH      O 4701   3.442   1.718   2.123
 1505HOH     H1 4702   3.520   1.753   2.165
 1505HOH     H2 4703   3.384   1.794   2.113
 1506HOH      O 4704   3.787   0.408   3.362
 1506HOH     H1 4705   3.876   0.433   3.387
 1506HOH     H2 4706   3.774   0.448   3.276
 1507HOH      O 4707   0.611   3.312   1.842
 1507HOH     H1 4708   0.624   3.268   1.925
 1507HOH     H2 4709   0.611   3.242   1.777
 1508HOH      O 4710   1.391   0.195   1.835
 1508HOH     H1 4711   1.401   0.219   1.742
 1508HOH     H2 4712   1.471   0.227   1.876
 1509HOH      O 4713   0.107   1.174   3.736
 1509HOH     H1 4714   0.068   1.207   3.817
 1509HOH     H2 4715   0.121   1.253   3.683
 1510HOH      O 4716   0.653   2.792   0.947
 1510HOH     H1 4717   0.737   2.782   0.991
 1510HOH     H2 4718   0.646   2.886   0.931
 1511HOH      O 4719   0.171   0.079   1.468
 1511HOH     H1 4720   0.133   0.013   1.410
 1511HOH     H2 4721   0.184   0.033   1.551
 1512HOH      O 4722   3.106   2.284   1.403
 1512HOH     H1 4723   3.172   2.241   1.349
 1512HOH     H2 4724   3.026   2.235   1.386
 1513HOH      O 4725   0.163   0.367   3.739
 1513HOH     H1 4726   0.076   0.402   3.759
 1513HOH     H2 4727   0.222   0.423   3.788
 1514HOH      O 4728   0.425   1.026   0.281
 1514HOH     H1 4729   0.388   1.038   0.369
 1514HOH     H2 4730   0.508   0.980   0.297
 1515HOH      O 4731   0.949   1.691   3.467
 1515HOH     H1 4732   1.030   1.641   3.477
 1515HOH     H2 4733   0.975   1.770   3.421
 1516HOH      O 4734   0.143   2.210   1.545
 1516HOH     H1 4735   0.142   2.254   1.630
 1516HOH     H2 4736   0.088   2.265   1.489
 1517HOH      O 4737   0.374   0.476   0.679
 1517HOH     H1 4738   0.441   0.414   0.706
 1517HOH     H2 4739   0.339   0.440   0.597
 1518HOH      O 4740   2.963   3.744   0.648
 1518HOH     H1 4741   3.033   3.723   0.710
 1518HOH     H2 4742   2.980   3.686   0.573
 1519HOH      O 4743   0.618   1.741   1.252
 1519HOH     H1 4744   0.543   1.691   1.283
 1519HOH     H2 4745   0.602   1.755   1.159
 1520HOH      O 4746   0.067   0.096   2.035
 1520HOH     H1 4747   0.035   0.186   2.037
 1520HOH     H2 4748   0.148   0.100   1.986
 1521HOH      O 4749   2.467   0.862   1.952
 1521HOH     H1 4750   2.451   0.782   1.902
 1521HOH     H2 4751   2.558   0.855   1.980
 1522HOH      O 4752   1.563   0.607   3.580
 1522HOH     H1 4753   1.539   0.680   3.636
 1522HOH     H2 4754   1.649   0.579   3.612
 1523HOH      O 4755   1.960   1.720   3.716
 1523HOH     H1 4756   1.996   1.808   3.732
 1523HOH     H2 4757   1.886   1.736   3.657
 1524HOH      O 4758   2.753   0.691   1.006
 1524HOH     H1 4759   2.820   0.753   0.977
 1524HOH     H2 4760   2.698   0.742   1.066
 1525HOH      O 4761   1.211   1.230   2.312
 1525HOH     H1 4762   1.166   1.146   2.323
 1525HOH     H2 4763   1.234   1.258   2.400
 1526HOH      O 4764   1.947   2.534   0.549
 1526HOH     H1 4765   1.976   2.443   0.548
 1526HOH     H2 4766   2.021   2.582   0.585
 1527HOH      O 4767   1.168   2.180   0.056
 1527HOH     H1 4768   1.102   2.157   0.122
 1527HOH     H2 4769   1.120   2.224  -0.013
 1528HOH      O 4770   1.792   1.849   1.774
 1528HOH     H1 4771   1.775   1.941   1.753
 1528HOH     H2 4772   1.882   1.848   1.806
 1529HOH      O 4773   2.165   0.604   1.335
 1529HOH     H1 4774   2.148   0.512   1.318
 1529HOH     H2 4775   2.091   0.634   1.387
 1530HOH      O 4776   3.911   2.705   1.446
 1530HOH     H1 4777   3.956   2.788   1.434
 1530HOH     H2 4778   3.818   2.729   1.453
 1531HOH      O 4779   1.974   0.844   3.109
 1531HOH     H1 4780   1.921   0.772   3.143
 1531HOH     H2 4781   1.986   0.902   3.184
 1532HOH      O 4782   3.310   3.048   1.062
 1532HOH     H1 4783   3.327   2.994   1.139
 1532HOH     H2 4784   3.361   3.007   0.992
 1533HOH      O 4785   2.725   2.091   0.727
 1533HOH     H1 4786   2.750   1.999   0.732
 1533HOH     H2 4787   2.801   2.139   0.759
 1534HOH      O 4788   0.403   2.985   0.907
 1534HOH     H1 4789   0.452   3.026   0.978
 1534HOH     H2 4790   0.358   3.057   0.863
 1535HOH      O 4791   1.325   0.482   3.391
 1535HOH     H1 4792   1.397   0.546   3.398
 1535HOH     H2 4793   1.290   0.477   3.480
 1536HOH      O 4794   3.717   0.047   1.028
 1536HOH     H1 4795   3.744   0.039   1.119
 1536HOH     H2 4796   3.760   0.127   0.997
 1537HOH      O 4797   2.150   2.192   0.426
 1537HOH     H1 4798   2.121   2.111   0.385
 1537HOH     H2 4799   2.235   2.211   0.386
 1538HOH      O 4800   0.744   1.979   2.294
 1538HOH     H1 4801   0.705   1.911   2.350
 1538HOH     H2 4802   0.673   2.005   2.236
 1539HOH      O 4803   2.190   3.178   2.659
 1539HOH     H1 4804   2.181   3.098   2.607
 1539HOH     H2 4805   2.283   3.202   2.649
 1540HOH      O 4806   3.379   2.135   0.446
 1540HOH     H1 4807   3.454   2.193   0.433
 1540HOH     H2 4808   3.325   2.146   0.368
 1541HOH      O 4809   1.651   1.617   0.679
 1541HOH     H1 4810   1.583   1.670   0.639
 1541HOH     H2 4811   1.608   1.573   0.752
 1542HOH      O 4812   1.733   0.733   3.925
 1542HOH     H1 4813   1.787   0.658   3.949
 1542HOH     H2 4814   1.656   0.727   3.982
 1543HOH      O 4815   1.842   1.493   2.648
 1543HOH     H1 4816   1.836   1.435   2.723
 1543HOH     H2 4817   1.788   1.452   2.581
 1544HOH      O 4818   0.989   2.364   2.049
 1544HOH     H1 4819   1.074   2.391   2.016
 1544HOH     H2 4820   0.968   2.284   2.001
 1545HOH      O 4821   1.213   0.750   3.277
 1545HOH     H1 4822   1.301   0.732   3.244
 1545HOH     H2 4823   1.167   0.790   3.203
 1546HOH      O 4824   2.987   0.380   2.208
 1546HOH     H1 4825   3.016   0.315   2.272
 1546HOH     H2 4826   2.916   0.337   2.161
 1547HOH      O 4827   2.941   2.584   1.055
 1547HOH     H1 4828   3.027   2.580   1.014
 1547HOH     H2 4829   2.958   2.575   1.149
 1548HOH      O 4830   0.667   0.658   3.576
 1548HOH     H1 4831   0.601   0.722   3.551
 1548HOH     H2 4832   0.750   0.705   3.566
 1549HOH      O 4833   2.019   1.973   3.780
 1549HOH     H1 4834   2.106   1.996   3.812
 1549HOH     H2 4835   1.968   2.053   3.787
 1550HOH      O 4836   0.662   0.182   2.613
 1550HOH     H1 4837   0.621   0.124   2.549
 1550HOH     H2 4838   0.743   0.211   2.572
 1551HOH      O 4839   1.773   3.839   3.507
 1551HOH     H1 4840   1.842   3.781   3.476
 1551HOH     H2 4841   1.746   3.888   3.429
 1552HOH      O 4842   3.874   2.628   3.640
 1552HOH     H1 4843   3.839   2.599   3.556
 1552HOH     H2 4844   3.899   2.719   3.626
 1553HOH      O 4845   2.590   3.417   0.694
 1553HOH     H1 4846   2.551   3.379   0.773
 1553HOH     H2 4847   2.630   3.343   0.649
 1554HOH      O 4848   3.800   3.118   0.090
 1554HOH     H1 4849   3.711   3.092   0.065
 1554HOH     H2 4850   3.840   3.149   0.009
 1555HOH      O 4851   0.376   3.226   0.717
 1555HOH     H1 4852   0.297   3.272   0.748
 1555HOH     H2 4853   0.350   3.188   0.633
 1556HOH      O 4854   3.588   3.774   2.476
 1556HOH     H1 4855   3.505   3.820   2.465
 1556HOH     H2 4856   3.565   3.682   2.476
 1557HOH      O 4857   3.342   3.597   2.815
 1557HOH     H1 4858   3.408   3.594   2.883
 1557HOH     H2 4859   3.365   3.672   2.761
 1558HOH      O 4860   3.567   0.984   3.291
 1558HOH     H1 4861   3.504   1.038   3.338
 1558HOH     H2 4862   3.648   0.991   3.342
 1559HOH      O 4863   3.946   3.295   2.902
 1559HOH     H1 4864   3.925   3.252   2.986
 1559HOH     H2 4865   3.871   3.274   2.846
 1560HOH      O 4866   3.717   0.992   0.282
 1560HOH     H1 4867   3.787   0.929   0.265
 1560HOH     H2 4868   3.660   0.947   0.344
 1561HOH      O 4869   1.542   3.880   2.474
 1561HOH     H1 4870   1.505   3.944   2.414
 1561HOH     H2 4871   1.591   3.820   2.417
 1562HOH      O 4872   2.989   1.380   3.180
 1562HOH     H1 4873   3.026   1.342   3.100
 1562HOH     H2 4874   3.017   1.320   3.249
 1563HOH      O 4875   2.375   2.730   1.254
 1563HOH     H1 4876   2.468   2.717   1.238
 1563HOH     H2 4877   2.332   2.668   1.195
 1564HOH      O 4878   0.944   1.881   1.814
 1564HOH     H1 4879   1.009   1.862   1.746
 1564HOH     H2 4880   0.898   1.798   1.826
 1565HOH      O 4881   0.961   3.513   1.401
 1565HOH     H1 4882   0.883   3.460   1.414
 1565HOH     H2 4883   0.940   3.598   1.439
 1566HOH      O 4884   0.299   1.420   3.043
 1566HOH     H1 4885   0.334   1.464   2.966
 1566HOH     H2 4886   0.212   1.457   3.054
 1567HOH      O 4887   0.594   3.144   1.623
 1567HOH     H1 4888   0.645   3.063   1.630
 1567HOH     H2 4889   0.550   3.136   1.538
 1568HOH      O 4890   3.675   0.971   1.340
 1568HOH     H1 4891   3.608   1.028   1.301
 1568HOH     H2 4892   3.625   0.897   1.376
 1569HOH      O 4893   3.303   1.935   2.051
 1569HOH     H1 4894   3.219   1.892   2.066
 1569HOH     H2 4895   3.300   1.963   1.960
 1570HOH      O 4896   3.439   2.925   1.259
 1570HOH     H1 4897   3.414   2.938   1.351
 1570HOH     H2 4898   3.533   2.942   1.258
 1571HOH      O 4899   2.344   1.784   1.834
 1571HOH     H1 4900   2.375   1.864   1.791
 1571HOH     H2 4901   2.317   1.812   1.921
 1572HOH      O 4902   2.583   2.298   3.996
 1572HOH     H1 4903   2.516   2.347   4.043
 1572HOH     H2 4904   2.660   2.356   3.997
 1573HOH      O 4905   2.224   1.617   1.636
 1573HOH     H1 4906   2.188   1.667   1.563
 1573HOH     H2 4907   2.247   1.683   1.701
 1574HOH      O 4908   1.538   2.595   2.607
 1574HOH     H1 4909   1.544   2.511   2.653
 1574HOH     H2 4910   1.625   2.606   2.568
 1575HOH      O 4911   1.428   0.256   2.416
 1575HOH     H1 4912   1.522   0.271   2.430
 1575HOH     H2 4913   1.423   0.164   2.388
 1576HOH      O 4914   0.466   2.996   3.648
 1576HOH     H1 4915   0.496   2.971   3.736
 1576HOH     H2 4916   0.456   3.091   3.653
 1577HOH      O 4917   3.744   1.282   2.428
 1577HOH     H1 4918   3.676   1.338   2.465
 1577HOH     H2 4919   3.812   1.279   2.496
 1578HOH      O 4920   1.476   1.864   1.001
 1578HOH     H1 4921   1.552   1.876   0.944
 1578HOH     H2 4922   1.401   1.890   0.946
 1579HOH      O 4923   2.241   1.067   3.996
 1579HOH     H1 4924   2.159   1.020   3.985
 1579HOH     H2 4925   2.215   1.157   4.017
 1580HOH      O 4926   3.704   0.636   2.872
 1580HOH     H1 4927   3.623   0.677   2.845
 1580HOH     H2 4928   3.746   0.609   2.790
 1581HOH      O 4929   0.445   2.541   2.619
 1581HOH     H1 4930   0.477   2.451   2.625
 1581HOH     H2 4931   0.377   2.539   2.552
 1582HOH      O 4932   0.400   1.601   1.289
 1582HOH     H1 4933   0.318   1.558   1.313
 1582HOH     H2 4934   0.460   1.530   1.266
 1583HOH      O 4935   3.224   2.389   1.631
 1583HOH     H1 4936   3.181   2.345   1.557
 1583HOH     H2 4937   3.317   2.384   1.610
 1584HOH      O 4938   4.027   2.428   0.157
 1584HOH     H1 4939   3.934   2.404   0.159
 1584HOH     H2 4940   4.068   2.358   0.107
 1585HOH      O 4941   1.242   3.662   0.094
 1585HOH     H1 4942   1.309   3.717   0.134
 1585HOH     H2 4943   1.219   3.708   0.013
 1586HOH      O 4944   3.610   3.161   1.284
 1586HOH     H1 4945   3.557   3.238   1.304
 1586HOH     H2 4946   3.700   3.188   1.305
 1587HOH      O 4947   1.675   0.265   0.128
 1587HOH     H1 4948   1.673   0.198   0.059
 1587HOH     H2 4949   1.736   0.230   0.193
 1588HOH      O 4950   0.348   0.657   1.073
 1588HOH     H1 4951   0.270   0.672   1.127
 1588HOH     H2 4952   0.313   0.641   0.986
 1589HOH      O 4953   2.212   0.168   1.109
 1589HOH     H1 4954   2.155   0.123   1.171
 1589HOH     H2 4955   2.180   0.140   1.023
 1590HOH      O 4956   2.574   3.387   1.054
 1590HOH     H1 4957   2.653   3.358   1.100
 1590HOH     H2 4958   2.529   3.306   1.031
 1591HOH      O 4959   0.306   0.217   2.328
 1591HOH     H1 4960   0.322   0.230   2.421
 1591HOH     H2 4961   0.393   0.207   2.289
 1592HOH      O 4962   1.694   1.443   0.246
 1592HOH     H1 4963   1.707   1.366   0.302
 1592HOH     H2 4964   1.759   1.433   0.177
 1593HOH      O 4965   3.087   0.660   3.004
 1593HOH     H1 4966   3.136   0.581   2.981
 1593HOH     H2 4967   3.031   0.677   2.928
 1594HOH      O 4968   1.854   1.167   1.818
 1594HOH     H1 4969   1.837   1.101   1.885
 1594HOH     H2 4970   1.796   1.143   1.746
 1595HOH      O 4971   2.710   3.717   1.760
 1595HOH     H1 4972   2.641   3.754   1.706
 1595HOH     H2 4973   2.749   3.649   1.706
 1596HOH      O 4974   2.394   1.777   3.654
 1596HOH     H1 4975   2.413   1.871   3.653
 1596HOH     H2 4976   2.479   1.735   3.645
 1597HOH      O 4977   1.976   1.405   1.673
 1597HOH     H1 4978   1.993   1.326   1.725
 1597HOH     H2 4979   2.058   1.453   1.675
 1598HOH      O 4980   0.782   1.416   3.824
 1598HOH     H1 4981   0.779   1.478   3.751
 1598HOH     H2 4982   0.728   1.456   3.892
 1599HOH      O 4983   3.701   0.517   0.507
 1599HOH     H1 4984   3.739   0.498   0.593
 1599HOH     H2 4985   3.772   0.499   0.445
 1600HOH      O 4986   3.883   3.513   0.795
 1600HOH     H1 4987   3.790   3.494   0.804
 1600HOH     H2 4988   3.922   3.478   0.875
 1601HOH      O 4989   3.001   2.002   1.737
 1601HOH     H1 4990   2.993   2.012   1.832
 1601HOH     H2 4991   2.937   1.935   1.714
 1602HOH      O 4992   3.120   1.922   0.409
 1602HOH     H1 4993   3.165   1.993   0.364
 1602HOH     H2 4994   3.125   1.848   0.349
 1603HOH      O 4995   3.292   0.264   2.492
 1603HOH     H1 4996   3.334   0.231   2.571
 1603HOH     H2 4997   3.336   0.218   2.421
 1604HOH      O 4998   3.661   0.999   0.940
 1604HOH     H1 4999   3.670   1.089   0.909
 1604HOH     H2 5000   3.747   0.961   0.927
 1605HOH      O 5001   2.119   0.318   1.425
 1605HOH     H1 5002   2.200   0.267   1.421
 1605HOH     H2 5003   2.053   0.262   1.384
 1606HOH      O 5004   0.328   1.436   1.664
 1606HOH     H1 5005   0.382   1.507   1.630
 1606HOH     H2 5006   0.360   1.423   1.753
 1607HOH      O 5007   3.866   2.874   2.540
 1607HOH     H1 5008   3.903   2.961   2.547
 1607HOH     H2 5009   3.836   2.868   2.449
 1608HOH      O 5010   3.480   2.527   2.806
 1608HOH     H1 5011   3.572   2.502   2.808
 1608HOH     H2 5012   3.480   2.620   2.784
 1609HOH      O 5013   3.566   0.717   1.394
 1609HOH     H1 5014   3.560   0.638   1.340
 1609HOH     H2 5015   3.573   0.684   1.484
 1610HOH      O 5016   0.675   1.581   2.930
 1610HOH     H1 5017   0.735   1.654   2.914
 1610HOH     H2 5018   0.688   1.559   3.023
 1611HOH      O 5019   1.845   1.737   1.003
 1611HOH     H1 5020   1.842   1.784   0.920
 1611HOH     H2 5021   1.780   1.781   1.058
 1612HOH      O 5022   0.877   2.263   2.395
 1612HOH     H1 5023   0.967   2.248   2.365
 1612HOH     H2 5024   0.873   2.218   2.479
 1613HOH      O 5025   3.493   3.658   3.096
 1613HOH     H1 5026   3.418   3.684   3.149
 1613HOH     H2 5027   3.558   3.726   3.111
 1614HOH      O 5028   1.875   3.627   2.012
 1614HOH     H1 5029   1.804   3.570   2.040
 1614HOH     H2 5030   1.952   3.597   2.060
 1615HOH      O 5031   1.696   0.960   0.907
 1615HOH     H1 5032   1.753   0.946   0.983
 1615HOH     H2 5033   1.718   0.888   0.848
 1616HOH      O 5034   2.632   2.609   1.229
 1616HOH     H1 5035   2.681   2.612   1.311
 1616HOH     H2 5036   2.569   2.538   1.242
 1617HOH      O 5037   0.015   3.526   2.183
 1617HOH     H1 5038  -0.041   3.601   2.205
 1617HOH     H2 5039   0.055   3.500   2.266
 1618HOH      O 5040   1.983   0.426   2.946
 1618HOH     H1 5041   1.893   0.426   2.914
 1618HOH     H2 5042   2.034   0.460   2.872
 1619HOH      O 5043   1.374   2.396   3.394
 1619HOH     H1 5044   1.454   2.368   3.349
 1619HOH     H2 5045   1.311   2.411   3.323
 1620HOH      O 5046   0.852   3.569   1.748
 1620HOH     H1 5047   0.856   3.496   1.811
 1620HOH     H2 5048   0.810   3.531   1.671
 1621HOH      O 5049   2.376   2.350   0.956
 1621HOH     H1 5050   2.471   2.346   0.940
 1621HOH     H2 5051   2.357   2.270   1.005
 1622HOH      O 5052   1.716   0.274   1.456
 1622HOH     H1 5053   1.645   0.271   1.391
 1622HOH     H2 5054   1.740   0.183   1.469
 1623HOH      O 5055   2.857   1.859   1.287
 1623HOH     H1 5056   2.812   1.864   1.203
 1623HOH     H2 5057   2.949   1.878   1.267
 1624HOH      O 5058   1.820   0.857   0.547
 1624HOH     H1 5059   1.791   0.811   0.626
 1624HOH     H2 5060   1.754   0.834   0.481
 1625HOH      O 5061   3.386   0.961   1.339
 1625HOH     H1 5062   3.362   1.019   1.411
 1625HOH     H2 5063   3.339   0.879   1.356
 1626HOH      O 5064   3.403   1.525   2.622
 1626HOH     H1 5065   3.473   1.551   2.562
 1626HOH     H2 5066   3.385   1.604   2.673
 1627HOH      O 5067   3.616   1.375   0.057
 1627HOH     H1 5068   3.657   1.336  -0.020
 1627HOH     H2 5069   3.589   1.300   0.110
 1628HOH      O 5070   3.760   3.714   1.025
 1628HOH     H1 5071   3.845   3.760   1.027
 1628HOH     H2 5072   3.726   3.722   1.114
 1629HOH      O 5073   1.109   1.102   0.220
 1629HOH     H1 5074   1.073   1.191   0.218
 1629HOH     H2 5075   1.032   1.045   0.229
 1630HOH      O 5076   1.876   2.464   1.101
 1630HOH     H1 5077   1.904   2.504   1.018
 1630HOH     H2 5078   1.933   2.388   1.112
 1631HOH      O 5079   0.502   0.632   0.413
 1631HOH     H1 5080   0.534   0.702   0.355
 1631HOH     H2 5081   0.565   0.561   0.401
 1632HOH      O 5082   2.969   1.634   3.569
 1632HOH     H1 5083   2.894   1.693   3.569
 1632HOH     H2 5084   2.946   1.567   3.634
 1633HOH      O 5085   0.503   2.627   3.912
 1633HOH     H1 5086   0.495   2.722   3.917
 1633HOH     H2 5087   0.431   2.599   3.856
 1634HOH      O 5088   3.070   1.771   2.119
 1634HOH     H1 5089   3.082   1.723   2.200
 1634HOH     H2 5090   3.014   1.714   2.065
 1635HOH      O 5091   2.724   1.763   2.316
 1635HOH     H1 5092   2.798   1.786   2.372
 1635HOH     H2 5093   2.759   1.696   2.257
 1636HOH      O 5094   1.715   1.806   2.449
 1636HOH     H1 5095   1.750   1.857   2.376
 1636HOH     H2 5096   1.776   1.823   2.521
 1637HOH      O 5097   1.800   2.206   1.324
 1637HOH     H1 5098   1.773   2.202   1.232
 1637HOH     H2 5099   1.730   2.255   1.368
 1638HOH      O 5100   3.466   1.772   3.479
 1638HOH     H1 5101   3.374   1.763   3.453
 1638HOH     H2 5102   3.477   1.866   3.494
 1639HOH      O 5103   0.924   2.557   0.009
 1639HOH     H1 5104   0.892   2.468  -0.000
 1639HOH     H2 5105   0.861   2.600   0.067
 1640HOH      O 5106   2.782   0.054   3.385
 1640HOH     H1 5107   2.709   0.062   3.446
 1640HOH     H2 5108   2.807  -0.039   3.390
 1641HOH      O 5109   2.049   1.489   2.050
 1641HOH     H1 5110   1.955   1.474   2.048
 1641HOH     H2 5111   2.058   1.576   2.089
 1642HOH      O 5112   2.774   1.131   2.406
 1642HOH     H1 5113   2.866   1.106   2.408
 1642HOH     H2 5114   2.768   1.206   2.465
 1643HOH      O 5115   0.971   3.327   3.047
 1643HOH     H1 5116   0.951   3.375   2.967
 1643HOH     H2 5117   1.020   3.250   3.017
 1644HOH      O 5118   2.473   1.015   1.492
 1644HOH     H1 5119   2.477   1.062   1.409
 1644HOH     H2 5120   2.445   0.927   1.469
 1645HOH      O 5121   1.389   1.831   1.935
 1645HOH     H1 5122   1.422   1.912   1.972
 1645HOH     H2 5123   1.302   1.821   1.973
 1646HOH      O 5124   0.900   3.445   1.999
 1646HOH     H1 5125   0.896   3.364   2.050
 1646HOH     H2 5126   0.946   3.507   2.055
 1647HOH      O 5127   2.253   0.105   2.358
 1647HOH     H1 5128   2.213   0.170   2.416
 1647HOH     H2 5129   2.345   0.132   2.353
 1648HOH      O 5130   0.034   2.635   1.942
 1648HOH     H1 5131   0.014   2.574   2.013
 1648HOH     H2 5132  -0.010   2.598   1.865
 1649HOH      O 5133   1.714   1.871   3.803
 1649HOH     H1 5134   1.620   1.892   3.802
 1649HOH     H2 5135   1.757   1.951   3.773
 1650HOH      O 5136   2.738   3.878   0.732
 1650HOH     H1 5137   2.781   3.887   0.817
 1650HOH     H2 5138   2.783   3.805   0.690
 1651HOH      O 5139   1.639   3.744   3.090
 1651HOH     H1 5140   1.575   3.702   3.033
 1651HOH     H2 5141   1.588   3.777   3.164
 1652HOH      O 5142   2.246   2.114   1.027
 1652HOH     H1 5143   2.256   2.145   0.937
 1652HOH     H2 5144   2.223   2.021   1.017
 1653HOH      O 5145   2.243   1.870   1.252
 1653HOH     H1 5146   2.300   1.940   1.283
 1653HOH     H2 5147   2.179   1.915   1.197
 1654HOH      O 5148   1.099   3.237   2.381
 1654HOH     H1 5149   1.108   3.299   2.454
 1654HOH     H2 5150   1.124   3.153   2.418
 1655HOH      O 5151   2.716   1.938   3.948
 1655HOH     H1 5152   2.798   1.907   3.987
 1655HOH     H2 5153   2.659   1.862   3.950
 1656HOH      O 5154   0.112   1.755   3.297
 1656HOH     H1 5155   0.069   1.793   3.373
 1656HOH     H2 5156   0.082   1.664   3.295
 1657HOH      O 5157   0.024   3.837   2.777
 1657HOH     H1 5158   0.007   3.857   2.685
 1657HOH     H2 5159   0.119   3.840   2.785
 1658HOH      O 5160   1.841   2.176   3.711
 1658HOH     H1 5161   1.756   2.160   3.670
 1658HOH     H2 5162   1.856   2.269   3.699
 1659HOH      O 5163   3.480   0.505   3.813
 1659HOH     H1 5164   3.552   0.463   3.860
 1659HOH     H2 5165   3.523   0.554   3.742
 1660HOH      O 5166   0.267   2.299   3.825
 1660HOH     H1 5167   0.225   2.347   3.754
 1660HOH     H2 5168   0.195   2.267   3.879
 1661HOH      O 5169   2.069   1.737   1.459
 1661HOH     H1 5170   2.124   1.777   1.391
 1661HOH     H2 5171   1.979   1.749   1.426
 1662HOH      O 5172   2.020   0.284   3.187
 1662HOH     H1 5173   2.000   0.338   3.111
 1662HOH     H2 5174   2.091   0.227   3.158
 1663HOH      O 5175   0.922   3.353   2.793
 1663HOH     H1 5176   0.909   3.436   2.747
 1663HOH     H2 5177   0.989   3.308   2.741
 1664HOH      O 5178   1.327   3.886   0.457
 1664HOH     H1 5179   1.240   3.896   0.418
 1664HOH     H2 5180   1.310   3.839   0.539
 1665HOH      O 5181   2.996   0.359   0.038
 1665HOH     H1 5182   3.004   0.401  -0.047
 1665HOH     H2 5183   2.933   0.288   0.024
 1666HOH      O 5184   0.593   3.844   2.842
 1666HOH     H1 5185   0.653   3.864   2.770
 1666HOH     H2 5186   0.610   3.911   2.908
 1667HOH      O 5187   2.135   1.623   0.847
 1667HOH     H1 5188   2.219   1.617   0.801
 1667HOH     H2 5189   2.099   1.534   0.841
 1668HOH      O 5190   1.366   3.442   0.176
 1668HOH     H1 5191   1.343   3.445   0.268
 1668HOH     H2 5192   1.324   3.520   0.139
 1669HOH      O 5193   2.043   1.524   3.087
 1669HOH     H1 5194   2.089   1.443   3.066
 1669HOH     H2 5195   1.966   1.496   3.136
 1670HOH      O 5196   2.720   3.521   3.043
 1670HOH     H1 5197   2.660   3.448   3.056
 1670HOH     H2 5198   2.749   3.513   2.952
 1671HOH      O 5199   2.219   3.597   2.282
 1671HOH     H1 5200   2.241   3.509   2.250
 1671HOH     H2 5201   2.278   3.610   2.356
 1672HOH      O 5202   3.681   3.466   3.985
 1672HOH     H1 5203   3.588   3.490   3.988
 1672HOH     H2 5204   3.705   3.453   4.077
 1673HOH      O 5205   3.689   3.849   3.127
 1673HOH     H1 5206   3.783   3.860   3.113
 1673HOH     H2 5207   3.651   3.934   3.107
 1674HOH      O 5208   2.003   0.445   1.622
 1674HOH     H1 5209   1.991   0.527   1.574
 1674HOH     H2 5210   2.046   0.387   1.559
 1675HOH      O 5211   1.668   0.032   3.638
 1675HOH     H1 5212   1.617   0.043   3.558
 1675HOH     H2 5213   1.718  -0.048   3.624
 1676HOH      O 5214   3.314   1.392   3.533
 1676HOH     H1 5215   3.323   1.411   3.627
 1676HOH     H2 5216   3.265   1.466   3.498
 1677HOH      O 5217   2.213   0.252   2.827
 1677HOH     H1 5218   2.199   0.344   2.805
 1677HOH     H2 5219   2.164   0.240   2.909
 1678HOH      O 5220   2.447   3.338   1.438
 1678HOH     H1 5221   2.406   3.404   1.382
 1678HOH     H2 5222   2.453   3.379   1.524
 1679HOH      O 5223   2.046   3.931   0.727
 1679HOH     H1 5224   1.988   3.961   0.657
 1679HOH     H2 5225   2.120   3.892   0.681
 1680HOH      O 5226   0.791   3.634   2.242
 1680HOH     H1 5227   0.794   3.563   2.178
 1680HOH     H2 5228   0.701   3.667   2.236
 1681HOH      O 5229   3.042   0.985   0.064
 1681HOH     H1 5230   3.101   0.988   0.139
 1681HOH     H2 5231   2.980   1.057   0.078
 1682HOH      O 5232   2.218   3.844   1.252
 1682HOH     H1 5233   2.308   3.833   1.222
 1682HOH     H2 5234   2.170   3.772   1.211
 1683HOH      O 5235   3.750   0.083   2.833
 1683HOH     H1 5236   3.806   0.022   2.883
 1683HOH     H2 5237   3.669   0.088   2.884
 1684HOH      O 5238   1.151   3.886   2.558
 1684HOH     H1 5239   1.118   3.893   2.647
 1684HOH     H2 5240   1.146   3.793   2.537
 1685HOH      O 5241   0.554   1.959   0.606
 1685HOH     H1 5242   0.526   1.949   0.697
 1685HOH     H2 5243   0.491   2.019   0.567
 1686HOH      O 5244   0.830   1.096   3.701
 1686HOH     H1 5245   0.738   1.091   3.675
 1686HOH     H2 5246   0.828   1.142   3.785
 1687HOH      O 5247   2.677   3.837   2.817
 1687HOH     H1 5248   2.715   3.754   2.790
 1687HOH     H2 5249   2.583   3.820   2.825
 1688HOH      O 5250   3.949   2.529   2.207
 1688HOH     H1 5251   3.910   2.613   2.229
 1688HOH     H2 5252   3.879   2.465   2.218
 1689HOH      O 5253   3.378   0.577   2.752
 1689HOH     H1 5254   3.289   0.587   2.719
 1689HOH     H2 5255   3.433   0.595   2.676
 1690HOH      O 5256   2.018   2.577   0.895
 1690HOH     H1 5257   2.065   2.553   0.815
 1690HOH     H2 5258   2.031   2.672   0.903
 1691HOH      O 5259   0.615   2.264   2.544
 1691HOH     H1 5260   0.546   2.221   2.493
 1691HOH     H2 5261   0.695   2.215   2.523
 1692HOH      O 5262   3.777   2.457   1.461
 1692HOH     H1 5263   3.843   2.391   1.482
 1692HOH     H2 5264   3.827   2.536   1.441
 1693HOH      O 5265   3.992   0.437   2.732
 1693HOH     H1 5266   3.965   0.481   2.651
 1693HOH     H2 5267   3.910   0.415   2.776
 1694HOH      O 5268   1.455   1.155   0.062
 1694HOH     H1 5269   1.367   1.163   0.025
 1694HOH     H2 5270   1.497   1.239   0.043
 1695HOH      O 5271   0.776   3.592   3.795
 1695HOH     H1 5272   0.746   3.503   3.813
 1695HOH     H2 5273   0.871   3.587   3.801
 1696HOH      O 5274   0.890   2.546   2.245
 1696HOH     H1 5275   0.877   2.484   2.173
 1696HOH     H2 5276   0.878   2.493   2.324
 1697HOH      O 5277   2.940   0.158   1.216
 1697HOH     H1 5278   2.902   0.203   1.140
 1697HOH     H2 5279   3.023   0.123   1.185
 1698HOH      O 5280   3.509   2.626   1.963
 1698HOH     H1 5281   3.556   2.544   1.950
 1698HOH     H2 5282   3.454   2.610   2.040
 1699HOH      O 5283   0.682   3.687   3.550
 1699HOH     H1 5284   0.698   3.683   3.644
 1699HOH     H2 5285   0.656   3.598   3.526
 1700HOH      O 5286   0.285   1.764   2.849
 1700HOH     H1 5287   0.338   1.688   2.825
 1700HOH     H2 5288   0.349   1.829   2.878
 1701HOH      O 5289   2.187   0.374   2.115
 1701HOH     H1 5290   2.224   0.396   2.201
 1701HOH     H2 5291   2.232   0.294   2.089
 1702HOH      O 5292   4.049   3.247   3.704
 1702HOH     H1 5293   4.018   3.254   3.614
 1702HOH     H2 5294   3.980   3.290   3.756
 1703HOH      O 5295   2.905   0.196   2.798
 1703HOH     H1 5296   2.880   0.275   2.750
 1703HOH     H2 5297   2.869   0.209   2.886
 1704HOH      O 5298   0.309   0.946   1.929
 1704HOH     H1 5299   0.372   0.895   1.981
 1704HOH     H2 5300   0.316   1.035   1.965
 1705HOH      O 5301   2.215   2.032   0.714
 1705HOH     H1 5302   2.179   1.984   0.788
 1705HOH     H2 5303   2.180   1.986   0.637
 1706HOH      O 5304   2.291   0.346   3.607
 1706HOH     H1 5305   2.337   0.269   3.574
 1706HOH     H2 5306   2.198   0.320   3.609
 1707HOH      O 5307   2.558   0.392   1.918
 1707HOH     H1 5308   2.632   0.385   1.857
 1707HOH     H2 5309   2.598   0.423   2.000
 1708HOH      O 5310   0.539   1.963   0.016
 1708HOH     H1 5311   0.629   1.978   0.045
 1708HOH     H2 5312   0.524   2.027  -0.053
 1709HOH      O 5313   2.513   0.514   2.771
 1709HOH     H1 5314   2.570   0.469   2.833
 1709HOH     H2 5315   2.471   0.583   2.823
 1710HOH      O 5316   3.425   1.277   0.946
 1710HOH     H1 5317   3.393   1.193   0.915
 1710HOH     H2 5318   3.521   1.271   0.938
 1711HOH      O 5319   1.726   2.275   2.982
 1711HOH     H1 5320   1.694   2.283   3.072
 1711HOH     H2 5321   1.814   2.238   2.991
 1712HOH      O 5322   0.188   1.848   0.470
 1712HOH     H1 5323   0.235   1.923   0.434
 1712HOH     H2 5324   0.172   1.791   0.395
 1713HOH      O 5325   1.713   0.403   2.891
 1713HOH     H1 5326   1.654   0.332   2.867
 1713HOH     H2 5327   1.667   0.449   2.961
 1714HOH      O 5328   1.916   0.338   0.761
 1714HOH     H1 5329   1.874   0.396   0.825
 1714HOH     H2 5330   2.003   0.321   0.797
 1715HOH      O 5331   1.569   2.832   0.588
 1715HOH     H1 5332   1.602   2.775   0.657
 1715HOH     H2 5333   1.488   2.869   0.624
 1716HOH      O 5334   1.352   1.272   0.739
 1716HOH     H1 5335   1.294   1.236   0.672
 1716HOH     H2 5336   1.438   1.237   0.716
 1717HOH      O 5337   0.551   0.936   2.931
 1717HOH     H1 5338   0.554   0.862   2.870
 1717HOH     H2 5339   0.481   0.914   2.993
 1718HOH      O 5340   0.157   0.720   3.674
 1718HOH     H1 5341   0.210   0.657   3.723
 1718HOH     H2 5342   0.194   0.720   3.586
 1719HOH      O 5343   1.444   1.213   1.559
 1719HOH     H1 5344   1.475   1.240   1.645
 1719HOH     H2 5345   1.361   1.260   1.548
 1720HOH      O 5346   1.667   0.148   2.156
 1720HOH     H1 5347   1.716   0.204   2.216
 1720HOH     H2 5348   1.733   0.091   2.118
 1721HOH      O 5349   1.600   2.563   1.180
 1721HOH     H1 5350   1.625   2.651   1.208
 1721HOH     H2 5351   1.684   2.518   1.165
 1722HOH      O 5352   0.772   2.601   3.797
 1722HOH     H1 5353   0.833   2.608   3.870
 1722HOH     H2 5354   0.687   2.585   3.838
 1723HOH      O 5355   1.966   3.247   2.245
 1723HOH     H1 5356   1.901   3.215   2.308
 1723HOH     H2 5357   1.962   3.342   2.252
 1724HOH      O 5358   3.177   1.543   0.575
 1724HOH     H1 5359   3.250   1.526   0.634
 1724HOH     H2 5360   3.214   1.597   0.506
 1725HOH      O 5361   0.326   0.545   3.861
 1725HOH     H1 5362   0.374   0.496   3.928
 1725HOH     H2 5363   0.385   0.618   3.839
 1726HOH      O 5364   2.166   2.360   3.935
 1726HOH     H1 5365   2.172   2.436   3.877
 1726HOH     H2 5366   2.124   2.394   4.014
 1727HOH      O 5367   0.561   0.714   0.109
 1727HOH     H1 5368   0.539   0.770   0.035
 1727HOH     H2 5369   0.627   0.653   0.074
 1728HOH      O 5370   0.416   2.441   2.242
 1728HOH     H1 5371   0.396   2.395   2.160
 1728HOH     H2 5372   0.507   2.419   2.260
 1729HOH      O 5373   0.940   3.849   2.289
 1729HOH     H1 5374   0.876   3.783   2.263
 1729HOH     H2 5375   0.994   3.806   2.355
 1730HOH      O 5376   0.762   3.476   1.062
 1730HOH     H1 5377   0.709   3.445   0.989
 1730HOH     H2 5378   0.762   3.571   1.053
 1731HOH      O 5379   2.900   3.598   2.462
 1731HOH     H1 5380   2.921   3.687   2.436
 1731HOH     H2 5381   2.804   3.594   2.459
 1732HOH      O 5382   3.297   3.776   3.306
 1732HOH     H1 5383   3.374   3.833   3.302
 1732HOH     H2 5384   3.226   3.833   3.334
 1733HOH      O 5385   0.402   1.806   1.530
 1733HOH     H1 5386   0.492   1.802   1.562
 1733HOH     H2 5387   0.393   1.894   1.494
 1734HOH      O 5388   2.039   2.720   2.618
 1734HOH     H1 5389   1.973   2.676   2.563
 1734HOH     H2 5390   1.987   2.770   2.681
 1735HOH      O 5391   0.719   2.274   1.483
 1735HOH     H1 5392   0.787   2.341   1.477
 1735HOH     H2 5393   0.646   2.318   1.526
 1736HOH      O 5394   0.219   0.531   1.423
 1736HOH     H1 5395   0.186   0.553   1.510
 1736HOH     H2 5396   0.297   0.586   1.413
 1737HOH      O 5397   3.349   2.598   1.254
 1737HOH     H1 5398   3.361   2.664   1.322
 1737HOH     H2 5399   3.435   2.558   1.243
 1738HOH      O 5400   3.453   0.032   1.367
 1738HOH     H1 5401   3.358   0.027   1.375
 1738HOH     H2 5402   3.478   0.108   1.419
 1739HOH      O 5403   3.792   2.485   3.420
 1739HOH     H1 5404   3.884   2.478   3.393
 1739HOH     H2 5405   3.745   2.426   3.360
 1740HOH      O 5406   2.811   1.603   0.175
 1740HOH     H1 5407   2.824   1.685   0.223
 1740HOH     H2 5408   2.723   1.574   0.200
 1741HOH      O 5409   0.439   2.433   1.015
 1741HOH     H1 5410   0.407   2.519   1.040
 1741HOH     H2 5411   0.511   2.452   0.954
 1742HOH      O 5412   1.021   1.084   3.521
 1742HOH     H1 5413   1.070   1.004   3.543
 1742HOH     H2 5414   0.956   1.092   3.591
 1743HOH      O 5415   0.108   1.964   3.965
 1743HOH     H1 5416   0.044   1.914   4.016
 1743HOH     H2 5417   0.180   1.903   3.951
 1744HOH      O 5418   0.813   3.928   2.668
 1744HOH     H1 5419   0.819   4.022   2.683
 1744HOH     H2 5420   0.868   3.913   2.590
 1745HOH      O 5421   3.124   0.522   0.246
 1745HOH     H1 5422   3.083   0.474   0.175
 1745HOH     H2 5423   3.122   0.613   0.217
 1746HOH      O 5424   1.663   3.519   1.336
 1746HOH     H1 5425   1.569   3.526   1.353
 1746HOH     H2 5426   1.699   3.603   1.363
 1747HOH      O 5427   0.815   0.043   0.945
 1747HOH     H1 5428   0.860   0.020   0.864
 1747HOH     H2 5429   0.728   0.003   0.936
 1748HOH      O 5430   0.778   3.556   0.256
 1748HOH     H1 5431   0.712   3.538   0.323
 1748HOH     H2 5432   0.764   3.648   0.233
 1749HOH      O 5433   0.370   2.676   3.020
 1749HOH     H1 5434   0.363   2.595   2.969
 1749HOH     H2 5435   0.464   2.689   3.031
 1750HOH      O 5436   0.064   3.063   3.905
 1750HOH     H1 5437   0.000   2.999   3.874
 1750HOH     H2 5438   0.050   3.139   3.848
 1751HOH      O 5439   2.539   2.340   0.465
 1751HOH     H1 5440   2.516   2.277   0.533
 1751HOH     H2 5441   2.634   2.350   0.473
 1752HOH      O 5442   1.208   3.145   2.922
 1752HOH     H1 5443   1.257   3.090   2.983
 1752HOH     H2 5444   1.268   3.158   2.848
 1753HOH      O 5445   3.415   1.470   0.702
 1753HOH     H1 5446   3.447   1.390   0.662
 1753HOH     H2 5447   3.434   1.461   0.795
 1754HOH      O 5448   0.510   1.222   3.401
 1754HOH     H1 5449   0.556   1.195   3.480
 1754HOH     H2 5450   0.566   1.192   3.329
 1755HOH      O 5451   1.282   1.815   1.222
 1755HOH     H1 5452   1.287   1.875   1.296
 1755HOH     H2 5453   1.361   1.832   1.172
 1756HOH      O 5454   2.170   1.253   1.324
 1756HOH     H1 5455   2.205   1.276   1.238
 1756HOH     H2 5456   2.094   1.311   1.335
 1757HOH      O 5457   1.134   0.248   0.494
 1757HOH     H1 5458   1.100   0.327   0.451
 1757HOH     H2 5459   1.223   0.271   0.521
 1758HOH      O 5460   0.518   3.600   2.935
 1758HOH     H1 5461   0.548   3.676   2.885
 1758HOH     H2 5462   0.582   3.590   3.005
 1759HOH      O 5463   0.612   3.610   0.013
 1759HOH     H1 5464   0.689   3.642  -0.036
 1759HOH     H2 5465   0.649   3.576   0.095
 1760HOH      O 5466   0.373   1.237   3.898
 1760HOH     H1 5467   0.307   1.290   3.853
 1760HOH     H2 5468   0.351   1.245   3.990
 1761HOH      O 5469   0.196   2.192   2.229
 1761HOH     H1 5470   0.165   2.115   2.182
 1761HOH     H2 5471   0.224   2.253   2.161
 1762HOH      O 5472   0.648   0.666   2.147
 1762HOH     H1 5473   0.697   0.711   2.078
 1762HOH     H2 5474   0.698   0.586   2.164
 1763HOH      O 5475   1.022   3.473   0.157
 1763HOH     H1 5476   1.086   3.544   0.169
 1763HOH     H2 5477   0.943   3.504   0.200
 1764HOH      O 5478   3.590   1.797   0.082
 1764HOH     H1 5479   3.597   1.803   0.177
 1764HOH     H2 5480   3.601   1.887   0.051
 1765HOH      O 5481   1.430   3.495   2.056
 1765HOH     H1 5482   1.518   3.471   2.087
 1765HOH     H2 5483   1.390   3.411   2.034
 1766HOH      O 5484   0.576   3.581   1.910
 1766HOH     H1 5485   0.623   3.499   1.897
 1766HOH     H2 5486   0.504   3.559   1.969
 1767HOH      O 5487   0.334   1.045   1.531
 1767HOH     H1 5488   0.345   0.961   1.577
 1767HOH     H2 5489   0.240   1.062   1.535
 1768HOH      O 5490   0.787   0.634   3.154
 1768HOH     H1 5491   0.707   0.612   3.203
 1768HOH     H2 5492   0.844   0.675   3.219
 1769HOH      O 5493   2.987   3.129   0.556
 1769HOH     H1 5494   3.037   3.195   0.604
 1769HOH     H2 5495   2.945   3.178   0.485
 1770HOH      O 5496   2.538   1.538   0.183
 1770HOH     H1 5497   2.485   1.581   0.250
 1770HOH     H2 5498   2.486   1.462   0.157
 1771HOH      O 5499   1.695   2.414   1.495
 1771HOH     H1 5500   1.782   2.454   1.502
 1771HOH     H2 5501   1.644   2.455   1.565
 1772HOH      O 5502   2.189   2.634   0.674
 1772HOH     H1 5503   2.253   2.703   0.653
 1772HOH     H2 5504   2.243   2.556   0.688
 1773HOH      O 5505   3.043   0.632   2.360
 1773HOH     H1 5506   3.061   0.702   2.297
 1773HOH     H2 5507   3.030   0.554   2.306
 1774HOH      O 5508   3.977   3.530   0.467
 1774HOH     H1 5509   4.014   3.562   0.385
 1774HOH     H2 5510   4.044   3.473   0.503
 1775HOH      O 5511   0.915   2.371   3.668
 1775HOH     H1 5512   0.955   2.392   3.584
 1775HOH     H2 5513   0.888   2.456   3.704
 1776HOH      O 5514   0.406   1.228   0.555
 1776HOH     H1 5515   0.488   1.179   0.554
 1776HOH     H2 5516   0.412   1.284   0.632
 1777HOH      O 5517   1.053   2.761   3.873
 1777HOH     H1 5518   1.068   2.674   3.910
 1777HOH     H2 5519   1.042   2.746   3.779
 1778HOH      O 5520   3.571   0.908   3.942
 1778HOH     H1 5521   3.634   0.837   3.953
 1778HOH     H2 5522   3.511   0.898   4.017
 1779HOH      O 5523   1.959   3.513   2.274
 1779HOH     H1 5524   2.047   3.549   2.283
 1779HOH     H2 5525   1.901   3.584   2.302
 1780HOH      O 5526   2.192   1.910   2.039
 1780HOH     H1 5527   2.235   1.973   2.096
 1780HOH     H2 5528   2.113   1.883   2.087
 1781HOH      O 5529   1.139   1.141   1.931
 1781HOH     H1 5530   1.230   1.145   1.962
 1781HOH     H2 5531   1.142   1.083   1.855
 1782HOH      O 5532   2.528   3.950   2.564
 1782HOH     H1 5533   2.595   3.953   2.632
 1782HOH     H2 5534   2.557   4.014   2.499
 1783HOH      O 5535   3.909   2.540   1.727
 1783HOH     H1 5536   3.842   2.504   1.668
 1783HOH     H2 5537   3.981   2.564   1.668
 1784HOH      O 5538   1.450   2.593   0.511
 1784HOH     H1 5539   1.489   2.676   0.538
 1784HOH     H2 5540   1.429   2.548   0.593
 1785HOH      O 5541   2.485   0.422   3.141
 1785HOH     H1 5542   2.472   0.328   3.129
 1785HOH     H2 5543   2.401   0.461   3.119
 1786HOH      O 5544   3.706   1.224   3.872
 1786HOH     H1 5545   3.739   1.139   3.900
 1786HOH     H2 5546   3.745   1.238   3.786
 1787HOH      O 5547   0.597   0.231   1.924
 1787HOH     H1 5548   0.686   0.262   1.905
 1787HOH     H2 5549   0.541   0.286   1.869
 1788HOH      O 5550   2.408   0.746   1.404
 1788HOH     H1 5551   2.393   0.680   1.472
 1788HOH     H2 5552   2.332   0.739   1.346
 1789HOH      O 5553   3.453   3.729   3.550
 1789HOH     H1 5554   3.395   3.766   3.484
 1789HOH     H2 5555   3.497   3.657   3.506
 1790HOH      O 5556   3.694   3.229   3.605
 1790HOH     H1 5557   3.747   3.213   3.526
 1790HOH     H2 5558   3.617   3.276   3.574
 1791HOH      O 5559   2.293   2.098   2.242
 1791HOH     H1 5560   2.319   2.151   2.317
 1791HOH     H2 5561   2.365   2.109   2.180
 1792HOH      O 5562   3.763   1.273   1.727
 1792HOH     H1 5563   3.723   1.187   1.740
 1792HOH     H2 5564   3.811   1.265   1.645
 1793HOH      O 5565   2.955   0.004   0.410
 1793HOH     H1 5566   2.869  -0.024   0.379
 1793HOH     H2 5567   2.973   0.085   0.361
 1794HOH      O 5568   1.701   1.342   0.585
 1794HOH     H1 5569   1.646   1.420   0.576
 1794HOH     H2 5570   1.659   1.291   0.655
 1795HOH      O 5571   1.482   0.488   0.267
 1795HOH     H1 5572   1.526   0.407   0.242
 1795HOH     H2 5573   1.479   0.540   0.187
 1796HOH      O 5574   2.960   0.825   0.338
 1796HOH     H1 5575   3.011   0.780   0.406
 1796HOH     H2 5576   2.932   0.755   0.280
 1797HOH      O 5577   4.010   3.738   0.682
 1797HOH     H1 5578   3.994   3.751   0.588
 1797HOH     H2 5579   3.945   3.673   0.709
 1798HOH      O 5580   0.043   0.851   0.132
 1798HOH     H1 5581   0.130   0.856   0.092
 1798HOH     H2 5582   0.034   0.933   0.181
 1799HOH      O 5583   0.291   1.378   0.157
 1799HOH     H1 5584   0.255   1.328   0.230
 1799HOH     H2 5585   0.364   1.427   0.195
 1800HOH      O 5586   2.993   1.500   2.393
 1800HOH     H1 5587   2.991   1.463   2.481
 1800HOH     H2 5588   2.989   1.595   2.406
 1801HOH      O 5589   0.078   0.636   0.308
 1801HOH     H1 5590   0.155   0.590   0.275
 1801HOH     H2 5591   0.070   0.713   0.252
 1802HOH      O 5592   1.628   0.786   0.385
 1802HOH     H1 5593   1.578   0.849   0.335
 1802HOH     H2 5594   1.644   0.714   0.324
 1803HOH      O 5595   1.233   2.874   1.601
 1803HOH     H1 5596   1.260   2.789   1.634
 1803HOH     H2 5597   1.162   2.854   1.539
 1804HOH      O 5598   1.355   2.814  -0.003
 1804HOH     H1 5599   1.382   2.724   0.013
 1804HOH     H2 5600   1.290   2.833   0.065
 1805HOH      O 5601   2.910   0.334   3.789
 1805HOH     H1 5602   2.821   0.302   3.775
 1805HOH     H2 5603   2.903   0.429   3.779
 1806HOH      O 5604   1.514   1.903   1.419
 1806HOH     H1 5605   1.510   1.859   1.504
 1806HOH     H2 5606   1.499   1.995   1.439
 1807HOH      O 5607   2.397   0.717   2.904
 1807HOH     H1 5608   2.469   0.749   2.957
 1807HOH     H2 5609   2.385   0.783   2.836
 1808HOH      O 5610   0.346   2.443   2.918
 1808HOH     H1 5611   0.277   2.425   2.854
 1808HOH     H2 5612   0.416   2.382   2.896
 1809HOH      O 5613   0.327  -0.013   1.707
 1809HOH     H1 5614   0.291   0.062   1.754
 1809HOH     H2 5615   0.413  -0.027   1.746
 1810HOH      O 5616   3.259   1.062   2.518
 1810HOH     H1 5617   3.338   1.104   2.551
 1810HOH     H2 5618   3.291   0.989   2.464
 1811HOH      O 5619   2.366   0.587   1.997
 1811HOH     H1 5620   2.430   0.517   1.988
 1811HOH     H2 5621   2.282   0.546   1.977
 1812HOH      O 5622   0.285   3.000   0.012
 1812HOH     H1 5623   0.200   3.002  -0.033
 1812HOH     H2 5624   0.283   2.920   0.063
 1813HOH      O 5625   0.601   0.680   1.760
 1813HOH     H1 5626   0.663   0.716   1.823
 1813HOH     H2 5627   0.642   0.694   1.675
 1814HOH      O 5628   1.538   3.358   2.322
 1814HOH     H1 5629   1.473   3.315   2.378
 1814HOH     H2 5630   1.601   3.395   2.384
 1815HOH      O 5631   0.192   3.177   2.093
 1815HOH     H1 5632   0.193   3.175   2.189
 1815HOH     H2 5633   0.256   3.112   2.067
 1816HOH      O 5634   2.377   1.952   2.839
 1816HOH     H1 5635   2.455   2.007   2.841
 1816HOH     H2 5636   2.320   1.993   2.774
 1817HOH      O 5637   3.348   1.730   1.171
 1817HOH     H1 5638   3.307   1.654   1.131
 1817HOH     H2 5639   3.377   1.700   1.257
 1818HOH      O 5640   3.417   3.545   2.536
 1818HOH     H1 5641   3.395   3.489   2.610
 1818HOH     H2 5642   3.372   3.506   2.461
 1819HOH      O 5643   1.002   0.912   2.065
 1819HOH     H1 5644   1.071   0.850   2.043
 1819HOH     H2 5645   1.013   0.984   2.003
 1820HOH      O 5646   0.085   1.477   3.257
 1820HOH     H1 5647   0.030   1.417   3.207
 1820HOH     H2 5648   0.165   1.427   3.274
 1821HOH      O 5649   2.890   4.053   1.641
 1821HOH     H1 5650   2.885   4.012   1.554
 1821HOH     H2 5651   2.910   3.980   1.700
 1822HOH      O 5652   3.240   0.964   3.339
 1822HOH     H1 5653   3.245   0.935   3.430
 1822HOH     H2 5654   3.169   0.911   3.301
 1823HOH      O 5655   2.704   1.565   2.902
 1823HOH     H1 5656   2.771   1.599   2.843
 1823HOH     H2 5657   2.622   1.601   2.869
 1824HOH      O 5658   1.349   0.531   2.813
 1824HOH     H1 5659   1.337   0.622   2.840
 1824HOH     H2 5660   1.312   0.480   2.885
 1825HOH      O 5661   4.024   1.282  -0.035
 1825HOH     H1 5662   4.042   1.330   0.045
 1825HOH     H2 5663   3.982   1.201  -0.005
 1826HOH      O 5664   1.499   1.247   3.775
 1826HOH     H1 5665   1.593   1.229   3.779
 1826HOH     H2 5666   1.490   1.332   3.818
 1827HOH      O 5667   1.912   3.804   3.028
 1827HOH     H1 5668   1.836   3.747   3.037
 1827HOH     H2 5669   1.960   3.793   3.110
 1828HOH      O 5670   3.195   2.132   0.221
 1828HOH     H1 5671   3.217   2.224   0.207
 1828HOH     H2 5672   3.250   2.083   0.160
 1829HOH      O 5673   0.252   2.083   2.712
 1829HOH     H1 5674   0.319   2.148   2.734
 1829HOH     H2 5675   0.170   2.122   2.742
 1830HOH      O 5676   0.501   1.270   2.810
 1830HOH     H1 5677   0.520   1.237   2.897
 1830HOH     H2 5678   0.405   1.272   2.805
 1831HOH      O 5679   0.848   0.311   3.359
 1831HOH     H1 5680   0.885   0.396   3.382
 1831HOH     H2 5681   0.867   0.300   3.266
 1832HOH      O 5682   3.932   3.208   3.430
 1832HOH     H1 5683   3.921   3.282   3.371
 1832HOH     H2 5684   3.923   3.131   3.373
 1833HOH      O 5685   0.105   3.352   1.733
 1833HOH     H1 5686   0.088   3.421   1.797
 1833HOH     H2 5687   0.200   3.356   1.718
 1834HOH      O 5688   0.117   1.023   0.935
 1834HOH     H1 5689   0.124   1.078   1.013
 1834HOH     H2 5690   0.125   1.085   0.862
 1835HOH      O 5691   2.117   2.299   3.328
 1835HOH     H1 5692   2.111   2.215   3.372
 1835HOH     H2 5693   2.123   2.363   3.398
 1836HOH      O 5694   0.024   3.871   1.363
 1836HOH     H1 5695  -0.019   3.822   1.292
 1836HOH     H2 5696   0.105   3.823   1.380
 1837HOH      O 5697   1.439   2.928   1.283
 1837HOH     H1 5698   1.478   3.015   1.288
 1837HOH     H2 5699   1.487   2.876   1.347
 1838HOH      O 5700   2.226   0.758   3.767
 1838HOH     H1 5701   2.317   0.785   3.780
 1838HOH     H2 5702   2.192   0.817   3.700
 1839HOH      O 5703   1.722   0.556   2.188
 1839HOH     H1 5704   1.649   0.582   2.244
 1839HOH     H2 5705   1.714   0.613   2.111
 1840HOH      O 5706   2.763   0.090   0.608
 1840HOH     H1 5707   2.830   0.042   0.559
 1840HOH     H2 5708   2.724   0.025   0.666
 1841HOH      O 5709   3.551   1.396   0.404
 1841HOH     H1 5710   3.541   1.339   0.480
 1841HOH     H2 5711   3.462   1.422   0.381
 1842HOH      O 5712   2.587   1.999   1.575
 1842HOH     H1 5713   2.623   1.919   1.613
 1842HOH     H2 5714   2.651   2.067   1.595
 1843HOH      O 5715   0.611   0.081   1.551
 1843HOH     H1 5716   0.590   0.173   1.537
 1843HOH     H2 5717   0.532   0.034   1.525
 1844HOH      O 5718   1.556   2.314   0.339
 1844HOH     H1 5719   1.584   2.292   0.250
 1844HOH     H2 5720   1.466   2.344   0.329
 1845HOH      O 5721   0.043   0.547   3.950
 1845HOH     H1 5722   0.132   0.581   3.962
 1845HOH     H2 5723   0.004   0.605   3.885
 1846HOH      O 5724   2.914   1.042   3.703
 1846HOH     H1 5725   2.912   0.954   3.665
 1846HOH     H2 5726   3.006   1.068   3.698
 1847HOH      O 5727   1.082   0.263   3.200
 1847HOH     H1 5728   1.033   0.330   3.151
 1847HOH     H2 5729   1.161   0.249   3.147
 1848HOH      O 5730   3.722   0.043   0.329
 1848HOH     H1 5731   3.743   0.055   0.237
 1848HOH     H2 5732   3.627   0.051   0.334
 1849HOH      O 5733   3.427   2.884   2.371
 1849HOH     H1 5734   3.470   2.941   2.307
 1849HOH     H2 5735   3.361   2.836   2.321
 1850HOH      O 5736   3.921   2.873   0.176
 1850HOH     H1 5737   3.928   2.955   0.127
 1850HOH     H2 5738   3.868   2.895   0.252
 1851HOH      O 5739   2.017   3.316   0.821
 1851HOH     H1 5740   1.951   3.249   0.803
 1851HOH     H2 5741   2.043   3.347   0.735
 1852HOH      O 5742   2.524   3.135   2.342
 1852HOH     H1 5743   2.583   3.208   2.359
 1852HOH     H2 5744   2.494   3.107   2.429
 1853HOH      O 5745   3.491   0.879   2.539
 1853HOH     H1 5746   3.483   0.785   2.525
 1853HOH     H2 5747   3.552   0.909   2.472
 1854HOH      O 5748   0.895   2.609   1.458
 1854HOH     H1 5749   0.852   2.639   1.378
 1854HOH     H2 5750   0.882   2.681   1.520
 1855HOH      O 5751   3.507   3.619   0.633
 1855HOH     H1 5752   3.504   3.675   0.556
 1855HOH     H2 5753   3.562   3.666   0.695
 1856HOH      O 5754   0.015   1.970   2.066
 1856HOH     H1 5755   0.070   1.930   2.133
 1856HOH     H2 5756  -0.012   1.896   2.010
 1857HOH      O 5757   0.252   0.377   0.468
 1857HOH     H1 5758   0.272   0.435   0.395
 1857HOH     H2 5759   0.232   0.293   0.426
 1858HOH      O 5760   2.452   1.116   2.693
 1858HOH     H1 5761   2.495   1.197   2.722
 1858HOH     H2 5762   2.427   1.134   2.602
 1859HOH      O 5763   2.973   3.909   3.879
 1859HOH     H1 5764   2.997   3.821   3.908
 1859HOH     H2 5765   2.879   3.915   3.894
 1860HOH      O 5766   3.202   2.604   0.940
 1860HOH     H1 5767   3.215   2.686   0.892
 1860HOH     H2 5768   3.267   2.607   1.010
 1861HOH      O 5769   1.232   1.079   2.805
 1861HOH     H1 5770   1.280   1.160   2.785
 1861HOH     H2 5771   1.149   1.110   2.842
 1862HOH      O 5772   2.698   0.428   3.326
 1862HOH     H1 5773   2.621   0.401   3.276
 1862HOH     H2 5774   2.752   0.475   3.262
 1863HOH      O 5775   1.168   1.774   2.457
 1863HOH     H1 5776   1.217   1.724   2.392
 1863HOH     H2 5777   1.082   1.788   2.416
 1864HOH      O 5778   0.435   3.345   0.356
 1864HOH     H1 5779   0.446   3.310   0.268
 1864HOH     H2 5780   0.370   3.415   0.346
 1865HOH      O 5781   3.485   0.437   1.264
 1865HOH     H1 5782   3.498   0.386   1.344
 1865HOH     H2 5783   3.399   0.411   1.232
 1866HOH      O 5784   2.755   0.893   1.934
 1866HOH     H1 5785   2.783   0.917   1.846
 1866HOH     H2 5786   2.791   0.805   1.948
 1867HOH      O 5787   2.342   3.973   0.981
 1867HOH     H1 5788   2.291   3.909   0.930
 1867HOH     H2 5789   2.375   4.034   0.915
 1868HOH      O 5790   0.846   0.119   1.215
 1868HOH     H1 5791   0.842   0.041   1.160
 1868HOH     H2 5792   0.823   0.191   1.156
 1869HOH      O 5793   3.932   3.678   1.660
 1869HOH     H1 5794   3.855   3.730   1.684
 1869HOH     H2 5795   4.006   3.730   1.688
 1870HOH      O 5796   0.015   1.884   1.520
 1870HOH     H1 5797   0.068   1.820   1.569
 1870HOH     H2 5798   0.056   1.968   1.539
 1871HOH      O 5799   0.509   1.455   2.526
 1871HOH     H1 5800   0.414   1.445   2.526
 1871HOH     H2 5801   0.525   1.536   2.478
 1872HOH      O 5802   0.872   0.888   1.033
 1872HOH     H1 5803   0.787   0.924   1.057
 1872HOH     H2 5804   0.935   0.941   1.082
 1873HOH      O 5805   2.206   3.400   1.959
 1873HOH     H1 5806   2.283   3.452   1.983
 1873HOH     H2 5807   2.197   3.414   1.864
 1874HOH      O 5808   1.217   0.173   0.943
 1874HOH     H1 5809   1.192   0.111   0.874
 1874HOH     H2 5810   1.146   0.238   0.943
 1875HOH      O 5811   3.050   0.557   2.016
 1875HOH     H1 5812   2.983   0.549   1.948
 1875HOH     H2 5813   3.029   0.487   2.078
 1876HOH      O 5814   0.711   3.845   1.154
 1876HOH     H1 5815   0.806   3.845   1.145
 1876HOH     H2 5816   0.679   3.868   1.067
 1877HOH      O 5817   2.583   0.463   1.479
 1877HOH     H1 5818   2.543   0.478   1.393
 1877HOH     H2 5819   2.636   0.384   1.467
 1878HOH      O 5820   2.046   0.934   2.667
 1878HOH     H1 5821   1.978   1.000   2.655
 1878HOH     H2 5822   2.064   0.901   2.578
 1879HOH      O 5823   3.839   0.644   1.986
 1879HOH     H1 5824   3.757   0.648   1.937
 1879HOH     H2 5825   3.890   0.718   1.954
 1880HOH      O 5826   3.817   3.952   2.301
 1880HOH     H1 5827   3.909   3.936   2.322
 1880HOH     H2 5828   3.786   4.010   2.371
 1881HOH      O 5829   0.970   1.779   2.251
 1881HOH     H1 5830   1.008   1.755   2.167
 1881HOH     H2 5831   0.945   1.870   2.241
 1882HOH      O 5832   0.309   3.072   1.275
 1882HOH     H1 5833   0.372   3.020   1.326
 1882HOH     H2 5834   0.363   3.133   1.226
 1883HOH      O 5835   0.794   2.485   2.608
 1883HOH     H1 5836   0.778   2.436   2.689
 1883HOH     H2 5837   0.749   2.434   2.540
 1884HOH      O 5838   3.796   1.868   0.669
 1884HOH     H1 5839   3.755   1.932   0.611
 1884HOH     H2 5840   3.881   1.907   0.691
 1885HOH      O 5841   1.204   1.428   0.887
 1885HOH     H1 5842   1.171   1.492   0.823
 1885HOH     H2 5843   1.264   1.374   0.838
 1886HOH      O 5844   0.215   2.514   1.684
 1886HOH     H1 5845   0.182   2.446   1.742
 1886HOH     H2 5846   0.238   2.586   1.743
 1887HOH      O 5847   1.721   1.892   1.207
 1887HOH     H1 5848   1.730   1.979   1.167
 1887HOH     H2 5849   1.640   1.898   1.257
 1888HOH      O 5850   0.446   3.544   1.491
 1888HOH     H1 5851   0.467   3.621   1.544
 1888HOH     H2 5852   0.393   3.578   1.419
 1889HOH      O 5853   3.492   1.269   2.582
 1889HOH     H1 5854   3.467   1.361   2.594
 1889HOH     H2 5855   3.530   1.243   2.665
 1890HOH      O 5856   0.226   3.595   1.151
 1890HOH     H1 5857   0.247   3.652   1.225
 1890HOH     H2 5858   0.131   3.602   1.142
 1891HOH      O 5859   0.906   0.826   3.322
 1891HOH     H1 5860   0.881   0.865   3.406
 1891HOH     H2 5861   0.933   0.901   3.268
 1892HOH      O 5862   3.887   2.351   1.941
 1892HOH     H1 5863   3.809   2.383   1.896
 1892HOH     H2 5864   3.864   2.354   2.034
 1893HOH      O 5865   2.428   0.216   2.674
 1893HOH     H1 5866   2.474   0.299   2.690
 1893HOH     H2 5867   2.354   0.217   2.734
 1894HOH      O 5868   0.988   1.782   3.170
 1894HOH     H1 5869   1.014   1.874   3.159
 1894HOH     H2 5870   1.071   1.736   3.187
 1895HOH      O 5871   0.954   2.177   3.367
 1895HOH     H1 5872   0.923   2.130   3.445
 1895HOH     H2 5873   1.034   2.221   3.396
 1896HOH      O 5874   1.467   0.678   0.899
 1896HOH     H1 5875   1.553   0.717   0.918
 1896HOH     H2 5876   1.419   0.748   0.855
 1897HOH      O 5877   0.183   1.711   3.827
 1897HOH     H1 5878   0.183   1.634   3.884
 1897HOH     H2 5879   0.111   1.695   3.766
 1898HOH      O 5880   0.539   1.491   0.269
 1898HOH     H1 5881   0.517   1.530   0.354
 1898HOH     H2 5882   0.558   1.399   0.289
 1899HOH      O 5883   2.662   2.113   0.219
 1899HOH     H1 5884   2.689   2.078   0.134
 1899HOH     H2 5885   2.720   2.188   0.233
 1900HOH      O 5886   2.502   1.784   3.169
 1900HOH     H1 5887   2.444   1.839   3.223
 1900HOH     H2 5888   2.552   1.846   3.116
 1901HOH      O 5889   1.688   3.474   1.787
 1901HOH     H1 5890   1.682   3.450   1.880
 1901HOH     H2 5891   1.614   3.430   1.746
 1902HOH      O 5892   0.064   3.262   0.521
 1902HOH     H1 5893   0.126   3.207   0.473
 1902HOH     H2 5894  -0.022   3.227   0.497
 1903HOH      O 5895   1.174   3.398   2.664
 1903HOH     H1 5896   1.263   3.420   2.639
 1903HOH     H2 5897   1.169   3.418   2.758
 1904HOH      O 5898   3.136   3.507   1.470
 1904HOH     H1 5899   3.072   3.472   1.408
 1904HOH     H2 5900   3.172   3.429   1.512
 1905HOH      O 5901   2.133   3.497   2.633
 1905HOH     H1 5902   2.223   3.531   2.632
 1905HOH     H2 5903   2.140   3.412   2.675
 1906HOH      O 5904   0.252   0.784   3.058
 1906HOH     H1 5905   0.233   0.694   3.031
 1906HOH     H2 5906   0.171   0.831   3.042
 1907HOH      O 5907   3.584   2.285   0.356
 1907HOH     H1 5908   3.644   2.349   0.393
 1907HOH     H2 5909   3.541   2.330   0.284
 1908HOH      O 5910   3.472   3.984   3.372
 1908HOH     H1 5911   3.558   3.969   3.412
 1908HOH     H2 5912   3.485   4.060   3.315
 1909HOH      O 5913   2.757   3.725   2.209
 1909HOH     H1 5914   2.704   3.733   2.130
 1909HOH     H2 5915   2.694   3.701   2.278
 1910HOH      O 5916   0.283   3.816   2.736
 1910HOH     H1 5917   0.296   3.726   2.706
 1910HOH     H2 5918   0.311   3.815   2.828
 1911HOH      O 5919   2.639   2.353   0.872
 1911HOH     H1 5920   2.660   2.434   0.824
 1911HOH     H2 5921   2.699   2.354   0.947
 1912HOH      O 5922   1.878   0.970   2.228
 1912HOH     H1 5923   1.873   0.889   2.279
 1912HOH     H2 5924   1.966   1.004   2.245
 1913HOH      O 5925   1.890   0.020   2.916
 1913HOH     H1 5926   1.804   0.059   2.935
 1913HOH     H2 5927   1.885  -0.068   2.952
 1914HOH      O 5928   3.797   0.701   2.281
 1914HOH     H1 5929   3.823   0.635   2.217
 1914HOH     H2 5930   3.717   0.739   2.246
 1915HOH      O 5931   1.492   1.510   2.599
 1915HOH     H1 5932   1.500   1.605   2.598
 1915HOH     H2 5933   1.540   1.482   2.520
 1916HOH      O 5934   0.007   3.857   3.230
 1916HOH     H1 5935   0.089   3.904   3.247
 1916HOH     H2 5936   0.010   3.783   3.290
 1917HOH      O 5937   1.430   3.068   0.225
 1917HOH     H1 5938   1.389   3.104   0.146
 1917HOH     H2 5939   1.391   2.981   0.234
 1918HOH      O 5940   3.930   2.213   0.890
 1918HOH     H1 5941   3.906   2.162   0.967
 1918HOH     H2 5942   3.851   2.264   0.870
 1919HOH      O 5943   0.467   3.225   1.101
 1919HOH     H1 5944   0.428   3.301   1.058
 1919HOH     H2 5945   0.551   3.213   1.056
 1920HOH      O 5946   3.870   2.024   1.109
 1920HOH     H1 5947   3.961   1.996   1.094
 1920HOH     H2 5948   3.845   1.982   1.191
 1921HOH      O 5949   0.845   1.083   2.496
 1921HOH     H1 5950   0.782   1.153   2.515
 1921HOH     H2 5951   0.863   1.042   2.580
 1922HOH      O 5952   0.245   2.446   3.210
 1922HOH     H1 5953   0.273   2.537   3.208
 1922HOH     H2 5954   0.295   2.404   3.140
 1923HOH      O 5955   1.801   0.335   1.754
 1923HOH     H1 5956   1.830   0.343   1.845
 1923HOH     H2 5957   1.870   0.379   1.703
 1924HOH      O 5958   2.385   1.632   0.725
 1924HOH     H1 5959   2.393   1.701   0.659
 1924HOH     H2 5960   2.426   1.555   0.684
 1925HOH      O 5961   3.776   0.514   0.802
 1925HOH     H1 5962   3.712   0.513   0.874
 1925HOH     H2 5963   3.859   0.538   0.844
 1926HOH      O 5964   3.039   3.125   1.094
 1926HOH     H1 5965   2.993   3.113   1.010
 1926HOH     H2 5966   3.127   3.091   1.078
 1927HOH      O 5967   3.874   3.389   3.223
 1927HOH     H1 5968   3.794   3.438   3.205
 1927HOH     H2 5969   3.857   3.301   3.189
 1928HOH      O 5970   3.043   2.444   2.891
 1928HOH     H1 5971   3.056   2.518   2.832
 1928HOH     H2 5972   3.130   2.405   2.901
 1929HOH      O 5973   2.987   3.528   1.929
 1929HOH     H1 5974   3.009   3.619   1.910
 1929HOH     H2 5975   3.012   3.515   2.020
 1930HOH      O 5976   1.903   0.247   3.829
 1930HOH     H1 5977   1.851   0.179   3.872
 1930HOH     H2 5978   1.978   0.260   3.888
 1931HOH      O 5979   0.110   0.501   1.756
 1931HOH     H1 5980   0.029   0.539   1.722
 1931HOH     H2 5981   0.142   0.564   1.820
 1932HOH      O 5982   2.637   2.434   2.785
 1932HOH     H1 5983   2.660   2.455   2.876
 1932HOH     H2 5984   2.566   2.495   2.764
 1933HOH      O 5985   0.415   2.951   3.088
 1933HOH     H1 5986   0.327   2.986   3.104
 1933HOH     H2 5987   0.400   2.860   3.061
 1934HOH      O 5988   1.005   2.768   1.995
 1934HOH     H1 5989   0.923   2.780   2.042
 1934HOH     H2 5990   0.983   2.782   1.903
 1935HOH      O 5991   2.258   2.692   2.240
 1935HOH     H1 5992   2.324   2.642   2.287
 1935HOH     H2 5993   2.306   2.763   2.198
 1936HOH      O 5994   2.106   3.259   0.273
 1936HOH     H1 5995   2.050   3.232   0.200
 1936HOH     H2 5996   2.072   3.211   0.349
 1937HOH      O 5997   3.899   2.119   1.741
 1937HOH     H1 5998   3.889   2.195   1.799
 1937HOH     H2 5999   3.844   2.138   1.665
 1938HOH      O 6000   1.464   2.473   1.624
 1938HOH     H1 6001   1.457   2.514   1.711
 1938HOH     H2 6002   1.373   2.456   1.599
 1939HOH      O 6003   0.073   2.663   0.274
 1939HOH     H1 6004   0.022   2.737   0.241
 1939HOH     H2 6005   0.031   2.586   0.235
 1940HOH      O 6006   2.252   2.780   0.080
 1940HOH     H1 6007   2.172   2.735   0.105
 1940HOH     H2 6008   2.271   2.748  -0.008
 1941HOH      O 6009   2.981   3.526   0.451
 1941HOH     H1 6010   3.071   3.520   0.420
 1941HOH     H2 6011   2.938   3.449   0.414
 1942HOH      O 6012   0.744   1.086   1.878
 1942HOH     H1 6013   0.712   1.106   1.790
 1942HOH     H2 6014   0.678   1.123   1.937
 1943HOH      O 6015   0.025   2.993   2.194
 1943HOH     H1 6016   0.056   2.968   2.107
 1943HOH     H2 6017   0.033   3.088   2.196
 1944HOH      O 6018   3.203   0.092   2.848
 1944HOH     H1 6019   3.119   0.138   2.842
 1944HOH     H2 6020   3.200   0.047   2.933
 1945HOH      O 6021   2.673   1.748   1.498
 1945HOH     H1 6022   2.718   1.806   1.436
 1945HOH     H2 6023   2.600   1.712   1.447
 1946HOH      O 6024   1.449   0.732   1.591
 1946HOH     H1 6025   1.484   0.789   1.522
 1946HOH     H2 6026   1.521   0.673   1.613
 1947HOH      O 6027   2.348   0.096   3.384
 1947HOH     H1 6028   2.297   0.015   3.392
 1947HOH     H2 6029   2.345   0.117   3.291
 1948HOH      O 6030   2.963   1.421   1.851
 1948HOH     H1 6031   2.920   1.341   1.821
 1948HOH     H2 6032   2.892   1.477   1.883
 1949HOH      O 6033   2.090   2.534   2.362
 1949HOH     H1 6034   2.145   2.600   2.321
 1949HOH     H2 6035   2.147   2.492   2.428
 1950HOH      O 6036   0.504   0.763   3.792
 1950HOH     H1 6037   0.567   0.713   3.740
 1950HOH     H2 6038   0.544   0.850   3.802
 1951HOH      O 6039   0.206   2.314   3.487
 1951HOH     H1 6040   0.150   2.298   3.563
 1951HOH     H2 6041   0.185   2.243   3.427
 1952HOH      O 6042   2.518   3.874   3.717
 1952HOH     H1 6043   2.484   3.813   3.781
 1952HOH     H2 6044   2.483   3.844   3.633
 1953HOH      O 6045   1.898   0.756   3.644
 1953HOH     H1 6046   1.876   0.694   3.713
 1953HOH     H2 6047   1.932   0.702   3.573
 1954HOH      O 6048   1.255   2.137   1.698
 1954HOH     H1 6049   1.228   2.215   1.650
 1954HOH     H2 6050   1.345   2.155   1.724
 1955HOH      O 6051   3.359   1.228   3.943
 1955HOH     H1 6052   3.412   1.266   3.873
 1955HOH     H2 6053   3.419   1.170   3.990
 1956HOH      O 6054   2.866   1.164   1.935
 1956HOH     H1 6055   2.804   1.096   1.960
 1956HOH     H2 6056   2.898   1.199   2.018
 1957HOH      O 6057   3.678   1.661   1.949
 1957HOH     H1 6058   3.662   1.610   1.869
 1957HOH     H2 6059   3.606   1.725   1.950
 1958HOH      O 6060   1.461   0.850   3.701
 1958HOH     H1 6061   1.531   0.914   3.685
 1958HOH     H2 6062   1.392   0.873   3.640
 1959HOH      O 6063   0.920   3.968   1.425
 1959HOH     H1 6064   0.944   3.933   1.339
 1959HOH     H2 6065   0.859   4.039   1.407
 1960HOH      O 6066   1.057   3.279   0.357
 1960HOH     H1 6067   1.104   3.317   0.431
 1960HOH     H2 6068   1.038   3.353   0.300
 1961HOH      O 6069   1.934   0.436   0.245
 1961HOH     H1 6070   1.876   0.414   0.318
 1961HOH     H2 6071   2.018   0.457   0.286
 1962HOH      O 6072   0.305   0.019   1.120
 1962HOH     H1 6073   0.276   0.095   1.069
 1962HOH     H2 6074   0.304  -0.054   1.058
 1963HOH      O 6075   0.499   0.166   3.113
 1963HOH     H1 6076   0.430   0.232   3.111
 1963HOH     H2 6077   0.543   0.179   3.197
 1964HOH      O 6078   1.593   2.715   3.448
 1964HOH     H1 6079   1.630   2.630   3.424
 1964HOH     H2 6080   1.506   2.695   3.482
 1965HOH      O 6081   0.839   3.506   2.478
 1965HOH     H1 6082   0.849   3.573   2.411
 1965HOH     H2 6083   0.776   3.444   2.441
 1966HOH      O 6084   2.918   4.051   3.659
 1966HOH     H1 6085   2.938   3.999   3.737
 1966HOH     H2 6086   2.919   3.987   3.587
 1967HOH      O 6087   1.563   1.559   1.539
 1967HOH     H1 6088   1.587   1.475   1.499
 1967HOH     H2 6089   1.600   1.554   1.627
 1968HOH      O 6090   3.535   3.240   2.348
 1968HOH     H1 6091   3.450   3.283   2.340
 1968HOH     H2 6092   3.525   3.182   2.424
 1969HOH      O 6093   0.630   1.596   3.203
 1969HOH     H1 6094   0.620   1.685   3.237
 1969HOH     H2 6095   0.542   1.572   3.174
 1970HOH      O 6096   3.700   0.279   1.733
 1970HOH     H1 6097   3.703   0.306   1.825
 1970HOH     H2 6098   3.792   0.266   1.709
 1971HOH      O 6099   1.761   2.629   2.425
 1971HOH     H1 6100   1.802   2.551   2.388
 1971HOH     H2 6101   1.747   2.686   2.349
 1972HOH      O 6102   3.374   2.073   3.150
 1972HOH     H1 6103   3.334   2.071   3.236
 1972HOH     H2 6104   3.359   2.162   3.118
 1973HOH      O 6105   1.882   1.765   0.713
 1973HOH     H1 6106   1.821   1.696   0.687
 1973HOH     H2 6107   1.966   1.720   0.726
 1974HOH      O 6108   3.143   2.018   2.407
 1974HOH     H1 6109   3.062   2.053   2.444
 1974HOH     H2 6110   3.168   2.081   2.339
 1975HOH      O 6111   1.918   3.260   0.072
 1975HOH     H1 6112   1.855   3.317   0.115
 1975HOH     H2 6113   1.869   3.218   0.001
 1976HOH      O 6114   2.414   2.255   3.086
 1976HOH     H1 6115   2.505   2.231   3.071
 1976HOH     H2 6116   2.418   2.342   3.126
 1977HOH      O 6117   3.053   2.295   3.271
 1977HOH     H1 6118   3.083   2.383   3.296
 1977HOH     H2 6119   3.129   2.239   3.286
 1978HOH      O 6120   0.731   3.888   1.625
 1978HOH     H1 6121   0.792   3.865   1.555
 1978HOH     H2 6122   0.690   3.970   1.597
 1979HOH      O 6123   1.542   1.288   2.369
 1979HOH     H1 6124   1.588   1.244   2.441
 1979HOH     H2 6125   1.585   1.255   2.290
 1980HOH      O 6126   0.606   1.456   3.494
 1980HOH     H1 6127   0.688   1.456   3.445
 1980HOH     H2 6128   0.561   1.377   3.464
 1981HOH      O 6129   3.466   3.314   0.661
 1981HOH     H1 6130   3.507   3.317   0.747
 1981HOH     H2 6131   3.475   3.403   0.628
 1982HOH      O 6132   2.160   1.828   2.951
 1982HOH     H1 6133   2.205   1.885   2.889
 1982HOH     H2 6134   2.186   1.739   2.925
 1983HOH      O 6135   1.112   1.601   0.694
 1983HOH     H1 6136   1.036   1.618   0.749
 1983HOH     H2 6137   1.136   1.686   0.657
 1984HOH      O 6138   1.420   3.363   0.589
 1984HOH     H1 6139   1.474   3.292   0.556
 1984HOH     H2 6140   1.471   3.401   0.661
 1985HOH      O 6141   2.311   0.600   2.526
 1985HOH     H1 6142   2.379   0.665   2.545
 1985HOH     H2 6143   2.238   0.652   2.491
 1986HOH      O 6144   0.529   2.001   2.105
 1986HOH     H1 6145   0.582   1.971   2.030
 1986HOH     H2 6146   0.455   2.047   2.064
 1987HOH      O 6147   0.846   0.822   2.306
 1987HOH     H1 6148   0.881   0.755   2.248
 1987HOH     H2 6149   0.793   0.774   2.370
 1988HOH      O 6150   1.266   2.651   3.631
 1988HOH     H1 6151   1.264   2.568   3.677
 1988HOH     H2 6152   1.199   2.643   3.563
 1989HOH      O 6153   2.918   2.731   0.279
 1989HOH     H1 6154   2.950   2.641   0.278
 1989HOH     H2 6155   2.947   2.767   0.362
 1990HOH      O 6156   0.378   2.077   1.480
 1990HOH     H1 6157   0.415   2.114   1.400
 1990HOH     H2 6158   0.294   2.122   1.490
 1991HOH      O 6159   3.904   3.169   1.746
 1991HOH     H1 6160   3.843   3.145   1.816
 1991HOH     H2 6161   3.972   3.219   1.790
 1992HOH      O 6162   2.886   1.274   2.197
 1992HOH     H1 6163   2.966   1.303   2.241
 1992HOH     H2 6164   2.835   1.232   2.267
 1993HOH      O 6165   3.877   1.530   3.915
 1993HOH     H1 6166   3.910   1.456   3.966
 1993HOH     H2 6167   3.813   1.572   3.973
 1994HOH      O 6168   3.113   1.276   2.975
 1994HOH     H1 6169   3.069   1.332   2.912
 1994HOH     H2 6170   3.197   1.255   2.935
 1995HOH      O 6171   0.225   0.649   0.823
 1995HOH     H1 6172   0.205   0.717   0.758
 1995HOH     H2 6173   0.275   0.584   0.775
 1996HOH      O 6174   2.607   3.761   0.211
 1996HOH     H1 6175   2.617   3.702   0.285
 1996HOH     H2 6176   2.644   3.713   0.137
 1997HOH      O 6177   0.113   2.209   0.721
 1997HOH     H1 6178   0.124   2.117   0.697
 1997HOH     H2 6179   0.042   2.208   0.786
 1998HOH      O 6180   3.598   3.427   0.229
 1998HOH     H1 6181   3.538   3.493   0.193
 1998HOH     H2 6182   3.553   3.394   0.307
 1999HOH      O 6183   0.622   1.369   2.277
 1999HOH     H1 6184   0.597   1.418   2.356
 1999HOH     H2 6185   0.637   1.436   2.211
 2000HOH      O 6186   0.392   1.736   2.110
 2000HOH     H1 6187   0.459   1.709   2.173
 2000HOH     H2 6188   0.340   1.802   2.156
 2001HOH      O 6189   1.294   1.521   1.159
 2001HOH     H1 6190   1.295   1.616   1.143
 2001HOH     H2 6191   1.253   1.484   1.081
 2002HOH      O 6192   3.663   3.388   1.673
 2002HOH     H1 6193   3.735   3.444   1.702
 2002HOH     H2 6194   3.590   3.411   1.730
 2003HOH      O 6195   0.704   3.312   3.831
 2003HOH     H1 6196   0.727   3.234   3.781
 2003HOH     H2 6197   0.748   3.301   3.916
 2004HOH      O 6198   3.010   1.349   1.515
 2004HOH     H1 6199   2.953   1.422   1.491
 2004HOH     H2 6200   3.035   1.309   1.432
 2005HOH      O 6201   0.726   3.069   2.545
 2005HOH     H1 6202   0.763   2.982   2.533
 2005HOH     H2 6203   0.690   3.068   2.634
 2006HOH      O 6204   2.218   0.844   1.186
 2006HOH     H1 6205   2.188   0.890   1.265
 2006HOH     H2 6206   2.161   0.768   1.179
 2007HOH      O 6207   3.924   1.336   2.242
 2007HOH     H1 6208   3.869   1.329   2.320
 2007HOH     H2 6209   3.866   1.310   2.170
 2008HOH      O 6210   0.765   2.046   0.439
 2008HOH     H1 6211   0.703   2.040   0.512
 2008HOH     H2 6212   0.841   1.995   0.468
 2009HOH      O 6213   3.027   0.362   3.104
 2009HOH     H1 6214   2.969   0.435   3.124
 2009HOH     H2 6215   2.970   0.295   3.067
 2010HOH      O 6216   3.102   2.930   1.825
 2010HOH     H1 6217   3.160   2.932   1.749
 2010HOH     H2 6218   3.120   3.012   1.871
 2011HOH      O 6219   2.698   2.130   1.190
 2011HOH     H1 6220   2.689   2.051   1.138
 2011HOH     H2 6221   2.745   2.191   1.133
 2012HOH      O 6222   2.410   0.170   1.445
 2012HOH     H1 6223   2.401   0.079   1.472
 2012HOH     H2 6224   2.489   0.171   1.390
 2013HOH      O 6225   2.829   0.800  -0.006
 2013HOH     H1 6226   2.817   0.746   0.072
 2013HOH     H2 6227   2.903   0.857   0.016
 2014HOH      O 6228   1.455   2.441   0.754
 2014HOH     H1 6229   1.403   2.407   0.827
 2014HOH     H2 6230   1.486   2.362   0.708
 2015HOH      O 6231   0.960   3.166   2.112
 2015HOH     H1 6232   1.009   3.203   2.185
 2015HOH     H2 6233   1.008   3.087   2.087
 2016HOH      O 6234   0.650   1.096   0.554
 2016HOH     H1 6235   0.635   1.030   0.486
 2016HOH     H2 6236   0.633   1.049   0.636
 2017HOH      O 6237   2.413   1.128   3.055
 2017HOH     H1 6238   2.383   1.073   3.128
 2017HOH     H2 6239   2.508   1.117   3.055
 2018HOH      O 6240   2.319   1.371   1.061
 2018HOH     H1 6241   2.389   1.395   1.123
 2018HOH     H2 6242   2.245   1.425   1.087
 2019HOH      O 6243   0.526   0.766   2.666
 2019HOH     H1 6244   0.432   0.782   2.671
 2019HOH     H2 6245   0.556   0.821   2.595
 2020HOH      O 6246   3.614   1.501   1.740
 2020HOH     H1 6247   3.646   1.411   1.737
 2020HOH     H2 6248   3.545   1.499   1.806
 2021HOH      O 6249   2.738   1.895   1.048
 2021HOH     H1 6250   2.771   1.877   0.961
 2021HOH     H2 6251   2.649   1.859   1.048
 2022HOH      O 6252   1.288   0.169   3.043
 2022HOH     H1 6253   1.319   0.082   3.015
 2022HOH     H2 6254   1.365   0.210   3.082
 2023HOH      O 6255   0.465   2.951   0.300
 2023HOH     H1 6256   0.548   2.924   0.338
 2023HOH     H2 6257   0.431   2.872   0.258
 2024HOH      O 6258   0.503   2.242   2.780
 2024HOH     H1 6259   0.552   2.184   2.838
 2024HOH     H2 6260   0.548   2.235   2.695
 2025HOH      O 6261   1.309   1.608   1.558
 2025HOH     H1 6262   1.403   1.592   1.548
 2025HOH     H2 6263   1.296   1.698   1.527
 2026HOH      O 6264   2.958   1.062   1.381
 2026HOH     H1 6265   3.010   1.014   1.446
 2026HOH     H2 6266   2.874   1.077   1.425
 2027HOH      O 6267   3.493   0.268   1.510
 2027HOH     H1 6268   3.545   0.265   1.590
 2027HOH     H2 6269   3.403   0.277   1.541
 2028HOH      O 6270   3.710   2.137   1.517
 2028HOH     H1 6271   3.615   2.132   1.508
 2028HOH     H2 6272   3.743   2.059   1.473
 2029HOH      O 6273   2.234   2.867   1.471
 2029HOH     H1 6274   2.230   2.959   1.498
 2029HOH     H2 6275   2.256   2.870   1.378
 2030HOH      O 6276   2.467   3.470   2.348
 2030HOH     H1 6277   2.470   3.463   2.253
 2030HOH     H2 6278   2.389   3.420   2.373
 2031HOH      O 6279   1.331   2.463   2.897
 2031HOH     H1 6280   1.356   2.539   2.949
 2031HOH     H2 6281   1.411   2.439   2.850
 2032HOH      O 6282   1.053   1.820   1.073
 2032HOH     H1 6283   0.986   1.854   1.132
 2032HOH     H2 6284   1.129   1.807   1.130
 2033HOH      O 6285   1.148   1.920   3.428
 2033HOH     H1 6286   1.228   1.960   3.462
 2033HOH     H2 6287   1.143   1.950   3.337
 2034HOH      O 6288   3.212   0.071   1.128
 2034HOH     H1 6289   3.228   0.004   1.061
 2034HOH     H2 6290   3.226   0.025   1.211
 2035HOH      O 6291   3.993   1.450   0.187
 2035HOH     H1 6292   4.063   1.486   0.241
 2035HOH     H2 6293   3.930   1.414   0.250
 2036HOH      O 6294   3.899   0.460   0.334
 2036HOH     H1 6295   3.975   0.518   0.331
 2036HOH     H2 6296   3.902   0.412   0.251
 2037HOH      O 6297   0.880   2.783   3.102
 2037HOH     H1 6298   0.876   2.864   3.052
 2037HOH     H2 6299   0.942   2.728   3.055
 2038HOH      O 6300   1.451   3.652   2.914
 2038HOH     H1 6301   1.468   3.641   2.820
 2038HOH     H2 6302   1.365   3.693   2.918
 2039HOH      O 6303   3.770   1.745   1.105
 2039HOH     H1 6304   3.756   1.650   1.097
 2039HOH     H2 6305   3.721   1.782   1.031
 2040HOH      O 6306   1.849   0.503   3.748
 2040HOH     H1 6307   1.919   0.438   3.754
 2040HOH     H2 6308   1.803   0.497   3.831
 2041HOH      O 6309   2.819   0.176   4.009
 2041HOH     H1 6310   2.764   0.201   3.935
 2041HOH     H2 6311   2.810   0.081   4.016
 2042HOH      O 6312   3.999   3.378   1.021
 2042HOH     H1 6313   4.059   3.338   1.084
 2042HOH     H2 6314   3.926   3.410   1.075
 2043HOH      O 6315   0.951   3.053   3.367
 2043HOH     H1 6316   0.918   3.134   3.329
 2043HOH     H2 6317   0.875   2.994   3.366
 2044HOH      O 6318   1.991   2.198   2.482
 2044HOH     H1 6319   2.076   2.243   2.484
 2044HOH     H2 6320   2.000   2.132   2.414
 2045HOH      O 6321   3.294   1.529   0.995
 2045HOH     H1 6322   3.218   1.505   0.943
 2045HOH     H2 6323   3.333   1.446   1.020
 2046HOH      O 6324   1.156   0.960   2.318
 2046HOH     H1 6325   1.162   0.909   2.399
 2046HOH     H2 6326   1.215   0.917   2.257
 2047HOH      O 6327   1.493   1.837   1.684
 2047HOH     H1 6328   1.579   1.853   1.722
 2047HOH     H2 6329   1.439   1.804   1.756
 2048HOH      O 6330   0.193   1.478   3.949
 2048HOH     H1 6331   0.222   1.436   4.030
 2048HOH     H2 6332   0.110   1.437   3.929
 2049HOH      O 6333   1.724   0.327   1.104
 2049HOH     H1 6334   1.779   0.249   1.110
 2049HOH     H2 6335   1.637   0.297   1.132
 2050HOH      O 6336   2.731   1.324   2.574
 2050HOH     H1 6337   2.645   1.323   2.531
 2050HOH     H2 6338   2.717   1.377   2.653
 2051HOH      O 6339   3.273   0.295   1.707
 2051HOH     H1 6340   3.216   0.252   1.772
 2051HOH     H2 6341   3.236   0.383   1.697
 2052HOH      O 6342   1.265   0.146   3.656
 2052HOH     H1 6343   1.310   0.070   3.620
 2052HOH     H2 6344   1.196   0.166   3.593
 2053HOH      O 6345   0.776   0.815   1.925
 2053HOH     H1 6346   0.750   0.905   1.909
 2053HOH     H2 6347   0.862   0.822   1.968
 2054HOH      O 6348   0.548   0.533   3.352
 2054HOH     H1 6349   0.495   0.456   3.374
 2054HOH     H2 6350   0.556   0.581   3.434
 2055HOH      O 6351   3.485   3.223   0.406
 2055HOH     H1 6352   3.484   3.128   0.396
 2055HOH     H2 6353   3.508   3.237   0.498
 2056HOH      O 6354   2.520   3.331   3.012
 2056HOH     H1 6355   2.460   3.278   3.064
 2056HOH     H2 6356   2.508   3.301   2.922
 2057HOH      O 6357   0.324   2.923   2.700
 2057HOH     H1 6358   0.383   2.870   2.754
 2057HOH     H2 6359   0.336   2.888   2.611
 2058HOH      O 6360   2.308   2.227   2.526
 2058HOH     H1 6361   2.278   2.280   2.600
 2058HOH     H2 6362   2.400   2.254   2.514
 2059HOH      O 6363   3.627   1.622   3.133
 2059HOH     H1 6364   3.569   1.698   3.141
 2059HOH     H2 6365   3.568   1.546   3.136
 2060HOH      O 6366   1.263   3.138   3.315
 2060HOH     H1 6367   1.292   3.090   3.393
 2060HOH     H2 6368   1.172   3.111   3.302
 2061HOH      O 6369   2.111   0.179   1.756
 2061HOH     H1 6370   2.174   0.233   1.709
 2061HOH     H2 6371   2.153   0.159   1.840
 2062HOH      O 6372   2.918   3.502   1.025
 2062HOH     H1 6373   3.002   3.501   0.980
 2062HOH     H2 6374   2.927   3.437   1.095
 2063HOH      O 6375   1.542   0.679   2.382
 2063HOH     H1 6376   1.594   0.652   2.457
 2063HOH     H2 6377   1.481   0.744   2.417
 2064HOH      O 6378   2.851   0.157   3.073
 2064HOH     H1 6379   2.907   0.079   3.080
 2064HOH     H2 6380   2.777   0.138   3.131
 2065HOH      O 6381   3.521   3.387   3.461
 2065HOH     H1 6382   3.430   3.371   3.487
 2065HOH     H2 6383   3.518   3.390   3.365
 2066HOH      O 6384   1.135   3.654   1.929
 2066HOH     H1 6385   1.215   3.664   1.877
 2066HOH     H2 6386   1.164   3.668   2.019
 2067HOH      O 6387   0.272   0.669   3.448
 2067HOH     H1 6388   0.221   0.696   3.371
 2067HOH     H2 6389   0.355   0.715   3.439
 2068HOH      O 6390   1.687   2.111   1.046
 2068HOH     H1 6391   1.626   2.181   1.024
 2068HOH     H2 6392   1.687   2.053   0.970
 2069HOH      O 6393   0.072   3.271   0.123
 2069HOH     H1 6394  -0.017   3.245   0.145
 2069HOH     H2 6395   0.108   3.197   0.075
 2070HOH      O 6396   2.059   0.630   1.040
 2070HOH     H1 6397   2.118   0.565   1.001
 2070HOH     H2 6398   2.047   0.695   0.971
 2071HOH      O 6399   0.535   1.692   2.373
 2071HOH     H1 6400   0.620   1.660   2.404
 2071HOH     H2 6401   0.515   1.768   2.427
 2072HOH      O 6402   1.824   1.217   0.347
 2072HOH     H1 6403   1.767   1.141   0.337
 2072HOH     H2 6404   1.796   1.257   0.430
 2073HOH      O 6405   0.381   0.908   0.891
 2073HOH     H1 6406   0.406   0.866   0.974
 2073HOH     H2 6407   0.290   0.934   0.904
 2074HOH      O 6408   1.053   3.869   1.649
 2074HOH     H1 6409   1.089   3.951   1.683
 2074HOH     H2 6410   1.027   3.890   1.559
 2075HOH      O 6411   1.009   2.340   1.473
 2075HOH     H1 6412   1.035   2.317   1.384
 2075HOH     H2 6413   0.979   2.430   1.467
 2076HOH      O 6414   3.332   3.291   2.689
 2076HOH     H1 6415   3.330   3.221   2.624
 2076HOH     H2 6416   3.252   3.341   2.673
 2077HOH      O 6417   2.081   1.492   3.485
 2077HOH     H1 6418   2.142   1.445   3.429
 2077HOH     H2 6419   2.106   1.584   3.476
 2078HOH      O 6420   3.095   2.534   1.292
 2078HOH     H1 6421   3.184   2.568   1.285
 2078HOH     H2 6422   3.107   2.443   1.321
 2079HOH      O 6423   3.843   1.642   2.960
 2079HOH     H1 6424   3.859   1.736   2.959
 2079HOH     H2 6425   3.780   1.630   3.031
 2080HOH      O 6426   2.128   0.255   3.991
 2080HOH     H1 6427   2.194   0.197   3.954
 2080HOH     H2 6428   2.177   0.313   4.049
 2081HOH      O 6429   1.398   3.938   3.009
 2081HOH     H1 6430   1.423   3.891   3.089
 2081HOH     H2 6431   1.479   3.977   2.978
 2082HOH      O 6432   0.044   1.040   0.308
 2082HOH     H1 6433   0.086   1.126   0.315
 2082HOH     H2 6434   0.024   1.016   0.398
 2083HOH      O 6435   3.581   2.465   1.241
 2083HOH     H1 6436   3.611   2.420   1.162
 2083HOH     H2 6437   3.643   2.438   1.309
 2084HOH      O 6438   3.281   1.130   1.878
 2084HOH     H1 6439   3.191   1.121   1.848
 2084HOH     H2 6440   3.329   1.063   1.830
 2085HOH      O 6441   2.834   1.624   3.182
 2085HOH     H1 6442   2.863   1.534   3.193
 2085HOH     H2 6443   2.833   1.637   3.087
 2086HOH      O 6444   2.049   2.426   0.223
 2086HOH     H1 6445   1.980   2.377   0.269
 2086HOH     H2 6446   2.126   2.416   0.279
 2087HOH      O 6447   2.555   2.711   4.042
 2087HOH     H1 6448   2.482   2.703   3.981
 2087HOH     H2 6449   2.623   2.754   3.992
 2088HOH      O 6450   3.548   0.080   3.987
 2088HOH     H1 6451   3.514   0.025   3.916
 2088HOH     H2 6452   3.476   0.140   4.007
 2089HOH      O 6453   3.356   1.998   3.806
 2089HOH     H1 6454   3.370   2.027   3.716
 2089HOH     H2 6455   3.387   1.908   3.807
 2090HOH      O 6456   1.829   1.677   3.257
 2090HOH     H1 6457   1.770   1.601   3.263
 2090HOH     H2 6458   1.773   1.748   3.224
 2091HOH      O 6459   1.840   1.193   3.234
 2091HOH     H1 6460   1.848   1.171   3.141
 2091HOH     H2 6461   1.888   1.124   3.279
 2092HOH      O 6462   1.121   1.861   2.049
 2092HOH     H1 6463   1.085   1.938   2.092
 2092HOH     H2 6464   1.063   1.846   1.974
 2093HOH      O 6465   2.047   1.918   1.793
 2093HOH     H1 6466   2.092   1.938   1.711
 2093HOH     H2 6467   2.117   1.905   1.857
 2094HOH      O 6468   2.181   1.015   1.420
 2094HOH     H1 6469   2.250   1.000   1.484
 2094HOH     H2 6470   2.196   1.104   1.388
 2095HOH      O 6471   1.340   0.332   1.607
 2095HOH     H1 6472   1.342   0.415   1.656
 2095HOH     H2 6473   1.248   0.304   1.611
 2096HOH      O 6474   1.727   2.267   2.560
 2096HOH     H1 6475   1.817   2.239   2.541
 2096HOH     H2 6476   1.695   2.303   2.478
 2097HOH      O 6477   1.755   3.396   3.866
 2097HOH     H1 6478   1.719   3.431   3.784
 2097HOH     H2 6479   1.850   3.402   3.855
 2098HOH      O 6480   3.969   1.654   3.694
 2098HOH     H1 6481   3.935   1.621   3.777
 2098HOH     H2 6482   3.961   1.580   3.634
 2099HOH      O 6483   2.807   2.358   0.547
 2099HOH     H1 6484   2.851   2.416   0.610
 2099HOH     H2 6485   2.800   2.274   0.592
 2100HOH      O 6486   3.052   0.688   1.142
 2100HOH     H1 6487   3.016   0.599   1.135
 2100HOH     H2 6488   3.124   0.690   1.080
 2101HOH      O 6489   1.827   3.961   2.061
 2101HOH     H1 6490   1.918   3.970   2.089
 2101HOH     H2 6491   1.824   3.878   2.014
 2102HOH      O 6492   0.947   3.039   1.481
 2102HOH     H1 6493   1.009   3.103   1.516
 2102HOH     H2 6494   0.929   3.070   1.392
 2103HOH      O 6495   2.951   0.720   1.439
 2103HOH     H1 6496   2.977   0.660   1.369
 2103HOH     H2 6497   2.862   0.747   1.416
 2104HOH      O 6498   3.217   0.363   1.226
 2104HOH     H1 6499   3.206   0.268   1.221
 2104HOH     H2 6500   3.177   0.396   1.145
 2105HOH      O 6501   1.833   0.672   3.244
 2105HOH     H1 6502   1.769   0.638   3.306
 2105HOH     H2 6503   1.917   0.635   3.273
 2106HOH      O 6504   0.047   1.871   3.547
 2106HOH     H1 6505   0.016   1.791   3.590
 2106HOH     H2 6506   0.038   1.939   3.614
 2107HOH      O 6507   3.840   0.032   1.568
 2107HOH     H1 6508   3.838   0.009   1.475
 2107HOH     H2 6509   3.881   0.118   1.571
 2108HOH      O 6510   3.168   3.747   1.645
 2108HOH     H1 6511   3.258   3.780   1.638
 2108HOH     H2 6512   3.173   3.659   1.607
 2109HOH      O 6513   1.639   2.818   0.012
 2109HOH     H1 6514   1.549   2.845  -0.005
 2109HOH     H2 6515   1.681   2.897   0.047
 2110HOH      O 6516   2.153   3.489   1.717
 2110HOH     H1 6517   2.083   3.548   1.743
 2110HOH     H2 6518   2.130   3.461   1.628
 2111HOH      O 6519   2.661   0.562   2.545
 2111HOH     H1 6520   2.614   0.550   2.628
 2111HOH     H2 6521   2.668   0.657   2.536
   4.02727   4.02727   4.02727   0.00000   0.00000   0.00000   0.00000   0.00000   0.00000
