Generated with MDTraj, t= 1892.0
 6521
    1MOL     O1    1   2.725   1.161   3.027
    1MOL     O2    2   2.712   1.376   3.020
    1MOL     N1    3   2.752   1.267   2.980
    1MOL     C1    4   2.808   1.260   2.838
    1MOL     C2    5   2.795   1.137   2.762
    1MOL     C3    6   2.877   1.364   2.779
    1MOL     C4    7   2.839   1.130   2.628
    1MOL     C5    8   2.905   1.364   2.641
    1MOL     C6    9   2.894   1.246   2.569
    1MOL     C7   10   2.823   1.011   2.544
    1MOL     O3   11   2.823   0.906   2.599
    1MOL     O4   12   2.849   1.019   2.429
    1MOL     H1   13   2.744   1.054   2.810
    1MOL     H2   14   2.885   1.458   2.833
    1MOL     H3   15   2.942   1.456   2.596
    1MOL     H4   16   2.929   1.240   2.466
    2OCB     C1   17   2.883   2.674   3.187
    2OCB     C2   18   2.776   2.631   2.938
    2OCB     C3   19   2.761   2.729   3.150
    2OCB     C4   20   2.950   2.590   3.099
    2OCB     C5   21   2.895   2.567   2.972
    2OCB     C6   22   2.703   2.714   3.025
    2OCB     O1   23   2.714   2.594   2.824
    2OCB     C7   24   2.568   2.781   2.992
    2OCB     C8   25   2.600   2.499   2.826
    2OCB     O2   26   2.479   2.574   2.809
    2OCB     C9   27   2.414   2.589   2.928
    2OCB    C10   28   2.455   2.685   3.021
    2OCB    C11   29   2.387   2.684   3.143
    2OCB    C12   30   2.303   2.500   2.951
    2OCB    C13   31   2.290   2.592   3.172
    2OCB    C14   32   2.252   2.497   3.080
    2OCB     O3   33   2.170   2.385   3.113
    2OCB    C15   34   2.241   2.580   3.321
    2OCB    C16   35   2.338   2.488   3.403
    2OCB    C17   36   2.313   2.347   3.401
    2OCB    C18   37   2.237   2.280   3.177
    2OCB     O4   38   2.214   2.290   3.323
    2OCB     O5   39   3.064   2.522   3.141
    2OCB    C19   40   2.941   2.700   3.326
    2OCB    C20   41   2.903   2.587   3.422
    2OCB     O6   42   3.094   2.448   3.351
    2OCB    C21   43   2.988   2.475   3.435
    2OCB    C22   44   2.391   2.262   3.475
    2OCB    C23   45   2.488   2.315   3.556
    2OCB    C24   46   2.953   2.365   3.513
    2OCB    C25   47   2.832   2.374   3.585
    2OCB     O7   48   2.562   2.219   3.623
    2OCB     O8   49   2.783   2.258   3.644
    2OCB    C26   50   2.688   2.178   3.565
    2OCB    C27   51   2.791   2.601   3.504
    2OCB    C28   52   2.754   2.490   3.584
    2OCB    C29   53   2.451   2.531   3.470
    2OCB    C30   54   2.622   2.497   3.651
    2OCB    C31   55   2.520   2.449   3.563
    2OCB    C32   56   3.055   2.405   3.220
    2OCB    C33   57   2.220   2.718   3.396
    2OCB    C34   58   2.150   2.699   3.538
    2OCB    C35   59   2.056   2.816   3.574
    2OCB     O9   60   2.041   2.844   3.691
    2OCB    C36   61   2.556   2.921   3.056
    2OCB    C37   62   2.415   2.991   3.025
    2OCB    C38   63   2.383   3.121   3.103
    2OCB    O10   64   2.456   3.217   3.102
    2OCB    C39   65   2.917   2.844   3.386
    2OCB    C40   66   2.989   2.957   3.312
    2OCB    C41   67   2.931   3.094   3.336
    2OCB    O11   68   2.856   3.141   3.256
    2OCB    C42   69   2.592   2.639   3.710
    2OCB    C43   70   2.458   2.643   3.782
    2OCB    C44   71   2.472   2.579   3.922
    2OCB    O12   72   2.416   2.473   3.945
    2OCB    C45   73   2.625   2.409   2.708
    2OCB    C46   74   2.670   2.205   2.513
    2OCB    C47   75   2.524   2.330   2.657
    2OCB    C48   76   2.752   2.387   2.656
    2OCB    C49   77   2.772   2.286   2.561
    2OCB    C50   78   2.539   2.226   2.566
    2OCB    C51   79   3.133   2.290   3.168
    2OCB    C52   80   3.278   2.072   3.058
    2OCB    C53   81   3.177   2.180   3.245
    2OCB    C54   82   3.159   2.284   3.036
    2OCB    C55   83   3.225   2.178   2.980
    2OCB    C56   84   3.245   2.072   3.192
    2OCB    C57   85   2.712   2.029   3.583
    2OCB    C58   86   2.751   1.759   3.588
    2OCB    C59   87   2.597   1.942   3.574
    2OCB    C60   88   2.840   1.978   3.602
    2OCB    C61   89   2.862   1.840   3.602
    2OCB    C62   90   2.617   1.808   3.579
    2OCB    C63   91   2.191   2.147   3.120
    2OCB    C64   92   2.134   1.891   3.030
    2OCB    C65   93   2.184   2.035   3.210
    2OCB    C66   94   2.157   2.128   2.984
    2OCB    C67   95   2.128   1.997   2.945
    2OCB    C68   96   2.160   1.902   3.168
    2OCB    O13   97   3.232   2.160   2.845
    2OCB    O14   98   2.985   1.784   3.613
    2OCB    O15   99   2.516   1.712   3.579
    2OCB    O16  100   2.897   2.266   2.504
    2OCB    O17  101   2.437   2.156   2.512
    2OCB    O18  102   2.183   1.788   3.246
    2OCB    O19  103   2.099   1.968   2.810
    2OCB    C69  104   3.099   1.854   3.566
    2OCB    C70  105   3.343   1.966   3.500
    2OCB    C71  106   3.125   1.885   3.432
    2OCB    C72  107   3.195   1.876   3.666
    2OCB    C73  108   3.317   1.938   3.632
    2OCB    C74  109   3.252   1.930   3.401
    2OCB    O20  110   3.286   1.963   3.271
    2OCB    C75  111   3.017   2.296   2.573
    2OCB    C76  112   3.242   2.369   2.721
    2OCB    C77  113   3.083   2.411   2.541
    2OCB    C78  114   3.063   2.213   2.673
    2OCB    C79  115   3.178   2.247   2.750
    2OCB    C80  116   3.194   2.452   2.611
    2OCB    C81  117   2.383   1.750   3.548
    2OCB    C82  118   2.114   1.775   3.481
    2OCB    C83  119   2.286   1.777   3.645
    2OCB    C84  120   2.345   1.753   3.411
    2OCB    C85  121   2.215   1.781   3.382
    2OCB    C86  122   2.145   1.784   3.616
    2OCB    C87  123   2.048   1.774   3.725
    2OCB    O21  124   2.079   1.719   3.829
    2OCB    C88  125   1.994   2.355   2.543
    2OCB    O22  126   2.027   2.454   2.482
    2OCB    C89  127   3.265   2.579   2.573
    2OCB    O23  128   3.204   2.663   2.508
    2OCB    O24  129   1.986   2.864   3.488
    2OCB    O25  130   2.531   2.639   4.008
    2OCB    O26  131   2.968   3.162   3.429
    2OCB    C90  132   3.406   1.983   3.741
    2OCB    O27  133   3.492   2.064   3.709
    2OCB    O28  134   1.873   2.336   2.563
    2OCB    O29  135   1.933   1.807   3.699
    2OCB    O30  136   3.376   1.969   3.860
    2OCB    O31  137   3.379   2.596   2.607
    2OCB    O32  138   2.282   3.126   3.165
    2OCB    C91  139   2.314   2.151   2.573
    2OCB    C92  140   2.046   2.153   2.671
    2OCB    C93  141   2.272   2.054   2.659
    2OCB    C94  142   2.222   2.248   2.532
    2OCB    C95  143   2.090   2.250   2.582
    2OCB    C96  144   2.139   2.056   2.714
    2OCB    C97  145   2.369   1.948   2.709
    2OCB    C98  146   2.984   2.088   2.712
    2OCB    C99  147   3.023   1.846   3.327
    2OCB      C  148   2.450   1.720   3.298
    2OCB     H1  149   2.711   2.782   3.231
    2OCB     H2  150   2.932   2.485   2.910
    2OCB     H3  151   2.574   2.799   2.885
    2OCB     H4  152   2.592   2.444   2.921
    2OCB     H5  153   2.417   2.752   3.222
    2OCB     H6  154   2.274   2.430   2.873
    2OCB     H7  155   2.148   2.522   3.326
    2OCB     H8  156   2.343   2.292   3.149
    2OCB     H9  157   3.050   2.697   3.317
    2OCB    H10  158   2.378   2.155   3.466
    2OCB    H11  159   3.009   2.274   3.531
    2OCB    H12  160   2.685   2.195   3.457
    2OCB    H13  161   2.729   2.688   3.482
    2OCB    H14  162   2.488   2.632   3.459
    2OCB    H15  163   2.621   2.430   3.738
    2OCB    H16  164   2.949   2.378   3.220
    2OCB    H17  165   2.313   2.775   3.400
    2OCB    H18  166   2.149   2.771   3.332
    2OCB    H19  167   2.088   2.610   3.534
    2OCB    H20  168   2.230   2.687   3.612
    2OCB    H21  169   2.630   2.991   3.018
    2OCB    H22  170   2.564   2.931   3.165
    2OCB    H23  171   2.413   3.020   2.920
    2OCB    H24  172   2.337   2.915   3.034
    2OCB    H25  173   2.810   2.867   3.387
    2OCB    H26  174   2.931   2.836   3.494
    2OCB    H27  175   3.089   2.952   3.356
    2OCB    H28  176   2.992   2.935   3.205
    2OCB    H29  177   2.683   2.671   3.762
    2OCB    H30  178   2.580   2.715   3.633
    2OCB    H31  179   2.431   2.748   3.791
    2OCB    H32  180   2.380   2.598   3.720
    2OCB    H33  181   2.688   2.121   2.446
    2OCB    H34  182   2.427   2.359   2.697
    2OCB    H35  183   2.831   2.456   2.682
    2OCB    H36  184   3.321   1.984   3.010
    2OCB    H37  185   3.148   2.173   3.350
    2OCB    H38  186   3.109   2.356   2.970
    2OCB    H39  187   2.762   1.652   3.576
    2OCB    H40  188   2.495   1.975   3.560
    2OCB    H41  189   2.926   2.044   3.613
    2OCB    H42  190   2.107   1.792   2.993
    2OCB    H43  191   2.214   2.055   3.312
    2OCB    H44  192   2.164   2.216   2.921
    2OCB    H45  193   3.435   2.013   3.468
    2OCB    H46  194   3.171   1.851   3.769
    2OCB    H47  195   3.331   2.398   2.776
    2OCB    H48  196   3.050   2.469   2.454
    2OCB    H49  197   2.011   1.788   3.450
    2OCB    H50  198   2.310   1.762   3.750
    2OCB    H51  199   1.946   2.150   2.715
    2OCB    H52  200   2.252   2.316   2.453
    2OCB    H53  201   2.347   1.866   2.641
    2OCB    H54  202   2.473   1.975   2.692
    2OCB    H55  203   2.351   1.908   2.809
    2OCB    H56  204   2.931   2.043   2.628
    2OCB    H57  205   3.043   2.009   2.759
    2OCB    H58  206   2.912   2.115   2.790
    2OCB    H59  207   3.074   1.818   3.235
    2OCB    H60  208   2.989   1.747   3.358
    2OCB    H61  209   2.940   1.917   3.317
    2OCB    H62  210   2.528   1.797   3.300
    2OCB    H63  211   2.503   1.627   3.324
    2OCB    H64  212   2.403   1.708   3.200
    3Na+    Na+  213   1.357   2.146   3.926
    4Na+    Na+  214   3.780   2.029   2.174
    5Na+    Na+  215   0.211   3.167   1.330
    6Na+    Na+  216   0.814   0.503   3.426
    7Na+    Na+  217   0.822   2.708   2.688
    8Na+    Na+  218   3.837   1.574   3.818
    9Na+    Na+  219   3.130   3.301   3.419
   10Na+    Na+  220   2.606   2.544   0.179
   11Na+    Na+  221   1.932   2.671   2.830
   12HOH      O  222   3.273   2.640   0.699
   12HOH     H1  223   3.188   2.599   0.713
   12HOH     H2  224   3.334   2.586   0.751
   13HOH      O  225   2.201   2.392   3.756
   13HOH     H1  226   2.265   2.435   3.813
   13HOH     H2  227   2.130   2.456   3.747
   14HOH      O  228   2.712   2.682   0.353
   14HOH     H1  229   2.733   2.772   0.380
   14HOH     H2  230   2.787   2.630   0.383
   15HOH      O  231   3.166   1.621   0.193
   15HOH     H1  232   3.238   1.561   0.214
   15HOH     H2  233   3.206   1.689   0.139
   16HOH      O  234   1.469   0.627   0.667
   16HOH     H1  235   1.525   0.669   0.601
   16HOH     H2  236   1.475   0.533   0.648
   17HOH      O  237   0.210   1.701   3.710
   17HOH     H1  238   0.169   1.781   3.742
   17HOH     H2  239   0.303   1.712   3.730
   18HOH      O  240   3.197   4.014   2.122
   18HOH     H1  241   3.249   3.937   2.101
   18HOH     H2  242   3.106   3.986   2.110
   19HOH      O  243   2.629   1.636   2.704
   19HOH     H1  244   2.724   1.643   2.708
   19HOH     H2  245   2.601   1.638   2.796
   20HOH      O  246   3.127   1.225   1.534
   20HOH     H1  247   3.057   1.225   1.469
   20HOH     H2  248   3.207   1.242   1.484
   21HOH      O  249   2.484   1.241   3.498
   21HOH     H1  250   2.436   1.175   3.547
   21HOH     H2  251   2.418   1.306   3.472
   22HOH      O  252   1.244   2.086   3.205
   22HOH     H1  253   1.327   2.071   3.161
   22HOH     H2  254   1.266   2.087   3.298
   23HOH      O  255   3.551   1.588   1.322
   23HOH     H1  256   3.465   1.558   1.290
   23HOH     H2  257   3.614   1.549   1.262
   24HOH      O  258   1.568   3.248   1.055
   24HOH     H1  259   1.602   3.258   0.966
   24HOH     H2  260   1.636   3.200   1.102
   25HOH      O  261   1.412   1.151   2.444
   25HOH     H1  262   1.473   1.215   2.408
   25HOH     H2  263   1.367   1.198   2.514
   26HOH      O  264   3.932   2.640   2.521
   26HOH     H1  265   3.911   2.570   2.459
   26HOH     H2  266   3.949   2.595   2.604
   27HOH      O  267   0.981   2.225   3.650
   27HOH     H1  268   1.039   2.296   3.679
   27HOH     H2  269   0.990   2.224   3.555
   28HOH      O  270   3.659   1.942   2.683
   28HOH     H1  271   3.738   1.985   2.652
   28HOH     H2  272   3.653   1.967   2.775
   29HOH      O  273   1.499   2.777   2.969
   29HOH     H1  274   1.506   2.823   3.052
   29HOH     H2  275   1.573   2.716   2.969
   30HOH      O  276   2.207   2.907   2.339
   30HOH     H1  277   2.191   2.944   2.426
   30HOH     H2  278   2.157   2.964   2.280
   31HOH      O  279   2.573   1.331   2.553
   31HOH     H1  280   2.616   1.351   2.636
   31HOH     H2  281   2.644   1.333   2.488
   32HOH      O  282   0.477   2.034   3.295
   32HOH     H1  283   0.402   1.983   3.327
   32HOH     H2  284   0.508   2.081   3.372
   33HOH      O  285   2.382   0.649   1.164
   33HOH     H1  286   2.451   0.583   1.157
   33HOH     H2  287   2.413   0.721   1.108
   34HOH      O  288   3.197   3.646   0.188
   34HOH     H1  289   3.167   3.737   0.190
   34HOH     H2  290   3.201   3.624   0.095
   35HOH      O  291   3.912   3.844   3.139
   35HOH     H1  292   3.995   3.824   3.183
   35HOH     H2  293   3.918   3.937   3.118
   36HOH      O  294   1.952   1.998   0.408
   36HOH     H1  295   1.957   1.905   0.429
   36HOH     H2  296   2.010   2.009   0.332
   37HOH      O  297   2.920   0.315   2.059
   37HOH     H1  298   3.009   0.310   2.094
   37HOH     H2  299   2.926   0.378   1.987
   38HOH      O  300   1.201   1.367   1.920
   38HOH     H1  301   1.273   1.424   1.946
   38HOH     H2  302   1.188   1.309   1.995
   39HOH      O  303   2.380   0.468   0.558
   39HOH     H1  304   2.347   0.422   0.635
   39HOH     H2  305   2.356   0.560   0.573
   40HOH      O  306   3.126   2.042   1.749
   40HOH     H1  307   3.155   2.119   1.797
   40HOH     H2  308   3.057   2.004   1.804
   41HOH      O  309   0.132   1.308   0.994
   41HOH     H1  310   0.188   1.359   0.935
   41HOH     H2  311   0.156   1.217   0.978
   42HOH      O  312   0.493   2.743   3.132
   42HOH     H1  313   0.541   2.769   3.211
   42HOH     H2  314   0.424   2.685   3.164
   43HOH      O  315   2.637   3.639   2.743
   43HOH     H1  316   2.571   3.696   2.705
   43HOH     H2  317   2.655   3.676   2.830
   44HOH      O  318   3.571   2.591   0.713
   44HOH     H1  319   3.652   2.543   0.698
   44HOH     H2  320   3.572   2.611   0.806
   45HOH      O  321   1.170   0.536   1.555
   45HOH     H1  322   1.119   0.489   1.621
   45HOH     H2  323   1.150   0.491   1.473
   46HOH      O  324   1.393   3.777   3.654
   46HOH     H1  325   1.450   3.735   3.590
   46HOH     H2  326   1.342   3.839   3.603
   47HOH      O  327   2.719   0.050   3.392
   47HOH     H1  328   2.699   0.004   3.474
   47HOH     H2  329   2.815   0.049   3.387
   48HOH      O  330   0.165   0.366   1.383
   48HOH     H1  331   0.186   0.273   1.371
   48HOH     H2  332   0.076   0.374   1.349
   49HOH      O  333   0.031   2.008   1.587
   49HOH     H1  334  -0.032   1.945   1.553
   49HOH     H2  335   0.085   1.957   1.647
   50HOH      O  336   3.076   0.377   2.366
   50HOH     H1  337   3.017   0.301   2.373
   50HOH     H2  338   3.085   0.391   2.272
   51HOH      O  339   0.685   4.003   3.258
   51HOH     H1  340   0.751   3.951   3.211
   51HOH     H2  341   0.710   3.995   3.350
   52HOH      O  342   3.871   0.592   1.373
   52HOH     H1  343   3.853   0.506   1.412
   52HOH     H2  344   3.840   0.655   1.438
   53HOH      O  345   1.848   1.889   3.943
   53HOH     H1  346   1.891   1.856   3.864
   53HOH     H2  347   1.891   1.973   3.960
   54HOH      O  348   2.540   2.644   0.716
   54HOH     H1  349   2.572   2.714   0.773
   54HOH     H2  350   2.620   2.596   0.691
   55HOH      O  351   1.129   2.383   0.351
   55HOH     H1  352   1.212   2.346   0.382
   55HOH     H2  353   1.078   2.308   0.323
   56HOH      O  354   1.186   0.129   0.872
   56HOH     H1  355   1.276   0.144   0.898
   56HOH     H2  356   1.165   0.202   0.814
   57HOH      O  357   0.199   1.861   0.515
   57HOH     H1  358   0.251   1.918   0.570
   57HOH     H2  359   0.236   1.872   0.427
   58HOH      O  360   1.349   3.616   2.308
   58HOH     H1  361   1.331   3.567   2.388
   58HOH     H2  362   1.264   3.652   2.282
   59HOH      O  363   3.378   1.643   0.520
   59HOH     H1  364   3.292   1.600   0.520
   59HOH     H2  365   3.386   1.682   0.607
   60HOH      O  366   1.160   4.004   0.497
   60HOH     H1  367   1.121   3.966   0.576
   60HOH     H2  368   1.199   4.085   0.526
   61HOH      O  369   3.812   0.200   2.888
   61HOH     H1  370   3.887   0.234   2.937
   61HOH     H2  371   3.737   0.249   2.922
   62HOH      O  372   2.710   2.463   0.605
   62HOH     H1  373   2.722   2.372   0.631
   62HOH     H2  374   2.797   2.491   0.577
   63HOH      O  375   1.630   3.232   3.838
   63HOH     H1  376   1.625   3.319   3.798
   63HOH     H2  377   1.710   3.234   3.890
   64HOH      O  378   2.256   3.390   1.592
   64HOH     H1  379   2.285   3.477   1.565
   64HOH     H2  380   2.274   3.388   1.686
   65HOH      O  381   0.493   1.289   3.232
   65HOH     H1  382   0.477   1.243   3.148
   65HOH     H2  383   0.541   1.225   3.284
   66HOH      O  384   0.075   1.918   3.762
   66HOH     H1  385   0.009   1.935   3.830
   66HOH     H2  386   0.103   2.005   3.734
   67HOH      O  387   2.376   1.443   3.072
   67HOH     H1  388   2.377   1.491   3.155
   67HOH     H2  389   2.335   1.359   3.094
   68HOH      O  390   1.127   0.033   1.556
   68HOH     H1  391   1.156  -0.001   1.641
   68HOH     H2  392   1.192   0.098   1.532
   69HOH      O  393   0.422   1.172   1.374
   69HOH     H1  394   0.506   1.126   1.368
   69HOH     H2  395   0.393   1.181   1.284
   70HOH      O  396   2.828   2.218   0.631
   70HOH     H1  397   2.801   2.205   0.540
   70HOH     H2  398   2.924   2.221   0.627
   71HOH      O  399   3.054   2.121   1.490
   71HOH     H1  400   3.087   2.090   1.574
   71HOH     H2  401   3.085   2.211   1.484
   72HOH      O  402   2.752   3.475   2.178
   72HOH     H1  403   2.664   3.439   2.188
   72HOH     H2  404   2.747   3.531   2.101
   73HOH      O  405   0.679   1.046   2.046
   73HOH     H1  406   0.761   1.074   2.006
   73HOH     H2  407   0.674   0.952   2.028
   74HOH      O  408   2.481   1.759   2.131
   74HOH     H1  409   2.493   1.699   2.204
   74HOH     H2  410   2.480   1.846   2.171
   75HOH      O  411   1.257   2.806   0.121
   75HOH     H1  412   1.336   2.846   0.158
   75HOH     H2  413   1.229   2.742   0.186
   76HOH      O  414   3.952   1.108   1.418
   76HOH     H1  415   3.970   1.174   1.351
   76HOH     H2  416   3.924   1.159   1.495
   77HOH      O  417   2.095   4.002   0.995
   77HOH     H1  418   2.172   3.999   1.053
   77HOH     H2  419   2.132   3.999   0.907
   78HOH      O  420   0.672   0.334   3.325
   78HOH     H1  421   0.615   0.267   3.363
   78HOH     H2  422   0.684   0.307   3.234
   79HOH      O  423   1.199   2.305   0.005
   79HOH     H1  424   1.117   2.275   0.044
   79HOH     H2  425   1.243   2.353   0.075
   80HOH      O  426   1.315   1.888   2.359
   80HOH     H1  427   1.337   1.973   2.396
   80HOH     H2  428   1.383   1.872   2.293
   81HOH      O  429   3.813   0.506   0.505
   81HOH     H1  430   3.886   0.444   0.497
   81HOH     H2  431   3.749   0.461   0.560
   82HOH      O  432   0.982   1.009   0.990
   82HOH     H1  433   0.938   1.027   1.073
   82HOH     H2  434   1.019   1.093   0.964
   83HOH      O  435   1.801   2.144   0.130
   83HOH     H1  436   1.776   2.220   0.078
   83HOH     H2  437   1.896   2.152   0.140
   84HOH      O  438   0.744   3.573   1.644
   84HOH     H1  439   0.808   3.631   1.685
   84HOH     H2  440   0.794   3.496   1.618
   85HOH      O  441   1.860   1.538   3.827
   85HOH     H1  442   1.897   1.482   3.896
   85HOH     H2  443   1.919   1.613   3.823
   86HOH      O  444   2.018   3.594   3.201
   86HOH     H1  445   2.064   3.671   3.235
   86HOH     H2  446   1.925   3.616   3.210
   87HOH      O  447   3.885   0.776   0.114
   87HOH     H1  448   3.855   0.758   0.203
   87HOH     H2  449   3.933   0.859   0.121
   88HOH      O  450   3.398   3.262   3.822
   88HOH     H1  451   3.454   3.212   3.881
   88HOH     H2  452   3.455   3.332   3.789
   89HOH      O  453   3.681   1.523   2.053
   89HOH     H1  454   3.729   1.545   1.973
   89HOH     H2  455   3.699   1.430   2.066
   90HOH      O  456   3.368   3.004   1.508
   90HOH     H1  457   3.351   3.048   1.425
   90HOH     H2  458   3.450   2.956   1.493
   91HOH      O  459   3.613   1.870   1.112
   91HOH     H1  460   3.600   1.859   1.017
   91HOH     H2  461   3.609   1.965   1.125
   92HOH      O  462   2.775   0.806   1.315
   92HOH     H1  463   2.733   0.737   1.366
   92HOH     H2  464   2.867   0.780   1.310
   93HOH      O  465   1.953   3.440   3.727
   93HOH     H1  466   2.024   3.383   3.697
   93HOH     H2  467   1.895   3.448   3.651
   94HOH      O  468   2.727   3.279   3.530
   94HOH     H1  469   2.821   3.286   3.512
   94HOH     H2  470   2.689   3.246   3.449
   95HOH      O  471   1.780   0.339   2.476
   95HOH     H1  472   1.817   0.422   2.447
   95HOH     H2  473   1.692   0.338   2.438
   96HOH      O  474   0.683   2.282   0.874
   96HOH     H1  475   0.717   2.371   0.868
   96HOH     H2  476   0.659   2.259   0.784
   97HOH      O  477   3.801   0.788   2.871
   97HOH     H1  478   3.715   0.750   2.854
   97HOH     H2  479   3.827   0.826   2.787
   98HOH      O  480   2.962   0.802   1.672
   98HOH     H1  481   2.903   0.728   1.655
   98HOH     H2  482   3.002   0.782   1.757
   99HOH      O  483   3.368   0.883   2.009
   99HOH     H1  484   3.325   0.897   2.094
   99HOH     H2  485   3.445   0.829   2.029
  100HOH      O  486   3.929   3.591   2.408
  100HOH     H1  487   3.865   3.585   2.338
  100HOH     H2  488   3.919   3.680   2.442
  101HOH      O  489   0.670   2.809   3.556
  101HOH     H1  490   0.752   2.820   3.604
  101HOH     H2  491   0.624   2.739   3.602
  102HOH      O  492   1.301   2.483   1.420
  102HOH     H1  493   1.350   2.512   1.343
  102HOH     H2  494   1.220   2.534   1.417
  103HOH      O  495   1.524   3.260   1.618
  103HOH     H1  496   1.506   3.245   1.710
  103HOH     H2  497   1.563   3.347   1.614
  104HOH      O  498   2.494   0.182   0.811
  104HOH     H1  499   2.490   0.088   0.829
  104HOH     H2  500   2.568   0.192   0.751
  105HOH      O  501   2.265   3.697   0.870
  105HOH     H1  502   2.227   3.758   0.806
  105HOH     H2  503   2.317   3.636   0.817
  106HOH      O  504   1.984   1.638   0.888
  106HOH     H1  505   2.005   1.648   0.795
  106HOH     H2  506   1.993   1.726   0.925
  107HOH      O  507   1.622   1.297   0.951
  107HOH     H1  508   1.675   1.377   0.950
  107HOH     H2  509   1.591   1.291   1.041
  108HOH      O  510   0.735   1.886   1.480
  108HOH     H1  511   0.801   1.931   1.427
  108HOH     H2  512   0.657   1.885   1.425
  109HOH      O  513   3.320   0.138   0.483
  109HOH     H1  514   3.256   0.140   0.554
  109HOH     H2  515   3.344   0.045   0.475
  110HOH      O  516   0.752   3.695   1.374
  110HOH     H1  517   0.712   3.662   1.455
  110HOH     H2  518   0.840   3.720   1.400
  111HOH      O  519   3.520   2.226   1.600
  111HOH     H1  520   3.585   2.174   1.647
  111HOH     H2  521   3.439   2.175   1.606
  112HOH      O  522   0.426   0.798   2.671
  112HOH     H1  523   0.489   0.740   2.713
  112HOH     H2  524   0.376   0.741   2.612
  113HOH      O  525   3.918   3.750   0.036
  113HOH     H1  526   4.009   3.764   0.063
  113HOH     H2  527   3.887   3.836   0.010
  114HOH      O  528   0.873   1.574   1.591
  114HOH     H1  529   0.862   1.609   1.503
  114HOH     H2  530   0.803   1.615   1.642
  115HOH      O  531   1.150   2.338   3.376
  115HOH     H1  532   1.192   2.293   3.302
  115HOH     H2  533   1.062   2.301   3.380
  116HOH      O  534   2.184   1.103   1.587
  116HOH     H1  535   2.108   1.050   1.561
  116HOH     H2  536   2.199   1.161   1.513
  117HOH      O  537   3.137   0.129   3.943
  117HOH     H1  538   3.091   0.046   3.956
  117HOH     H2  539   3.082   0.177   3.881
  118HOH      O  540   3.864   1.918   2.392
  118HOH     H1  541   3.789   1.859   2.394
  118HOH     H2  542   3.886   1.932   2.484
  119HOH      O  543   1.311   3.421   2.757
  119HOH     H1  544   1.346   3.405   2.669
  119HOH     H2  545   1.324   3.515   2.771
  120HOH      O  546   2.335   1.723   0.893
  120HOH     H1  547   2.429   1.718   0.877
  120HOH     H2  548   2.313   1.815   0.876
  121HOH      O  549   2.090   3.188   2.354
  121HOH     H1  550   2.086   3.250   2.281
  121HOH     H2  551   2.034   3.226   2.421
  122HOH      O  552   3.568   2.532   2.791
  122HOH     H1  553   3.495   2.545   2.731
  122HOH     H2  554   3.633   2.597   2.764
  123HOH      O  555   2.223   1.789   4.034
  123HOH     H1  556   2.313   1.792   4.000
  123HOH     H2  557   2.171   1.762   3.959
  124HOH      O  558   3.531   1.647   0.796
  124HOH     H1  559   3.507   1.721   0.851
  124HOH     H2  560   3.598   1.681   0.737
  125HOH      O  561   3.541   3.489   3.781
  125HOH     H1  562   3.577   3.561   3.833
  125HOH     H2  563   3.491   3.533   3.712
  126HOH      O  564   2.360   2.860   1.347
  126HOH     H1  565   2.387   2.836   1.435
  126HOH     H2  566   2.396   2.790   1.292
  127HOH      O  567   0.050   0.193   2.649
  127HOH     H1  568  -0.022   0.131   2.634
  127HOH     H2  569   0.061   0.195   2.744
  128HOH      O  570   3.008   1.470   1.972
  128HOH     H1  571   2.914   1.485   1.967
  128HOH     H2  572   3.017   1.374   1.970
  129HOH      O  573   3.503   3.194   1.901
  129HOH     H1  574   3.468   3.214   1.814
  129HOH     H2  575   3.429   3.154   1.948
  130HOH      O  576   0.995   0.923   4.045
  130HOH     H1  577   0.980   0.970   3.963
  130HOH     H2  578   1.013   0.833   4.018
  131HOH      O  579   2.920   0.164   3.765
  131HOH     H1  580   2.947   0.253   3.745
  131HOH     H2  581   2.825   0.165   3.756
  132HOH      O  582   0.927   0.399   3.919
  132HOH     H1  583   0.875   0.342   3.975
  132HOH     H2  584   1.017   0.371   3.933
  133HOH      O  585   1.508   1.034   0.655
  133HOH     H1  586   1.563   1.064   0.584
  133HOH     H2  587   1.540   0.946   0.675
  134HOH      O  588   0.669   1.094   3.322
  134HOH     H1  589   0.722   1.085   3.401
  134HOH     H2  590   0.678   1.010   3.277
  135HOH      O  591   2.286   3.738   3.729
  135HOH     H1  592   2.203   3.739   3.778
  135HOH     H2  593   2.272   3.672   3.661
  136HOH      O  594   1.916   3.057   3.733
  136HOH     H1  595   1.845   3.039   3.672
  136HOH     H2  596   1.968   2.976   3.734
  137HOH      O  597   0.560   1.366   3.576
  137HOH     H1  598   0.469   1.393   3.577
  137HOH     H2  599   0.602   1.421   3.510
  138HOH      O  600   1.421   4.025   1.394
  138HOH     H1  601   1.449   4.093   1.332
  138HOH     H2  602   1.460   3.944   1.360
  139HOH      O  603   0.823   0.057   3.597
  139HOH     H1  604   0.811   0.024   3.686
  139HOH     H2  605   0.916   0.077   3.591
  140HOH      O  606   3.934   2.902   1.604
  140HOH     H1  607   3.947   2.828   1.664
  140HOH     H2  608   3.914   2.976   1.661
  141HOH      O  609   3.699   3.698   1.151
  141HOH     H1  610   3.655   3.613   1.157
  141HOH     H2  611   3.776   3.681   1.096
  142HOH      O  612   2.783   2.913   0.474
  142HOH     H1  613   2.783   3.004   0.445
  142HOH     H2  614   2.750   2.917   0.564
  143HOH      O  615   1.710   0.149   0.538
  143HOH     H1  616   1.720   0.212   0.467
  143HOH     H2  617   1.652   0.192   0.600
  144HOH      O  618   3.801   3.601   0.438
  144HOH     H1  619   3.730   3.658   0.408
  144HOH     H2  620   3.844   3.571   0.358
  145HOH      O  621   2.959   1.767   0.033
  145HOH     H1  622   2.956   1.780   0.128
  145HOH     H2  623   3.039   1.717   0.018
  146HOH      O  624   3.924   2.733   0.136
  146HOH     H1  625   3.935   2.811   0.082
  146HOH     H2  626   3.887   2.667   0.077
  147HOH      O  627   3.159   3.593   3.074
  147HOH     H1  628   3.081   3.574   3.023
  147HOH     H2  629   3.148   3.684   3.101
  148HOH      O  630   0.827   0.737   1.772
  148HOH     H1  631   0.892   0.689   1.822
  148HOH     H2  632   0.861   0.738   1.683
  149HOH      O  633   3.920   2.330   2.039
  149HOH     H1  634   3.935   2.286   2.123
  149HOH     H2  635   4.008   2.345   2.004
  150HOH      O  636   3.569   0.706   1.965
  150HOH     H1  637   3.590   0.615   1.986
  150HOH     H2  638   3.650   0.754   1.983
  151HOH      O  639   1.130   1.370   1.276
  151HOH     H1  640   1.170   1.337   1.196
  151HOH     H2  641   1.146   1.464   1.274
  152HOH      O  642   3.559   0.709   2.736
  152HOH     H1  643   3.505   0.759   2.674
  152HOH     H2  644   3.619   0.659   2.681
  153HOH      O  645   0.484   2.391   3.329
  153HOH     H1  646   0.453   2.479   3.353
  153HOH     H2  647   0.486   2.392   3.233
  154HOH      O  648   3.719   3.754   1.422
  154HOH     H1  649   3.697   3.737   1.330
  154HOH     H2  650   3.733   3.668   1.459
  155HOH      O  651   0.911   3.401   2.788
  155HOH     H1  652   0.954   3.419   2.871
  155HOH     H2  653   0.841   3.467   2.782
  156HOH      O  654   2.322   0.733   0.624
  156HOH     H1  655   2.230   0.760   0.624
  156HOH     H2  656   2.369   0.809   0.589
  157HOH      O  657   2.805   3.139   1.159
  157HOH     H1  658   2.801   3.234   1.147
  157HOH     H2  659   2.889   3.123   1.201
  158HOH      O  660   2.411   3.551   0.393
  158HOH     H1  661   2.374   3.494   0.326
  158HOH     H2  662   2.504   3.558   0.369
  159HOH      O  663   0.658   3.206   1.555
  159HOH     H1  664   0.665   3.182   1.463
  159HOH     H2  665   0.702   3.292   1.560
  160HOH      O  666   1.659   1.683   3.154
  160HOH     H1  667   1.616   1.614   3.103
  160HOH     H2  668   1.745   1.646   3.175
  161HOH      O  669   0.394   2.630   1.809
  161HOH     H1  670   0.327   2.697   1.824
  161HOH     H2  671   0.472   2.666   1.850
  162HOH      O  672   2.294   3.961   1.373
  162HOH     H1  673   2.257   3.880   1.405
  162HOH     H2  674   2.315   3.943   1.281
  163HOH      O  675   2.908   2.380   2.061
  163HOH     H1  676   2.889   2.291   2.090
  163HOH     H2  677   2.950   2.422   2.137
  164HOH      O  678   2.618   0.926   1.119
  164HOH     H1  679   2.684   0.869   1.159
  164HOH     H2  680   2.587   0.981   1.191
  165HOH      O  681   1.592   1.252   2.988
  165HOH     H1  682   1.685   1.232   2.991
  165HOH     H2  683   1.560   1.210   2.908
  166HOH      O  684   3.783   2.783   3.431
  166HOH     H1  685   3.707   2.729   3.453
  166HOH     H2  686   3.764   2.816   3.343
  167HOH      O  687   1.138   1.835   1.917
  167HOH     H1  688   1.061   1.779   1.921
  167HOH     H2  689   1.210   1.775   1.899
  168HOH      O  690   0.539   0.055   2.223
  168HOH     H1  691   0.496  -0.003   2.286
  168HOH     H2  692   0.472   0.121   2.203
  169HOH      O  693   1.302   3.347   2.509
  169HOH     H1  694   1.215   3.385   2.518
  169HOH     H2  695   1.296   3.262   2.553
  170HOH      O  696   2.196   0.206   0.393
  170HOH     H1  697   2.232   0.292   0.372
  170HOH     H2  698   2.207   0.198   0.488
  171HOH      O  699   1.486   2.128   3.047
  171HOH     H1  700   1.579   2.132   3.067
  171HOH     H2  701   1.459   2.219   3.038
  172HOH      O  702   1.482   1.864   2.945
  172HOH     H1  703   1.488   1.934   3.009
  172HOH     H2  704   1.541   1.796   2.978
  173HOH      O  705   1.875   3.050   0.847
  173HOH     H1  706   1.846   2.997   0.920
  173HOH     H2  707   1.866   2.993   0.770
  174HOH      O  708   1.975   2.007   0.709
  174HOH     H1  709   1.888   1.967   0.699
  174HOH     H2  710   1.993   2.046   0.623
  175HOH      O  711   1.715   0.939   1.412
  175HOH     H1  712   1.719   0.851   1.448
  175HOH     H2  713   1.634   0.941   1.360
  176HOH      O  714   1.044   1.349   3.480
  176HOH     H1  715   1.022   1.442   3.479
  176HOH     H2  716   0.961   1.305   3.499
  177HOH      O  717   1.703   0.245   3.068
  177HOH     H1  718   1.783   0.264   3.117
  177HOH     H2  719   1.676   0.329   3.033
  178HOH      O  720   1.393   2.226   1.092
  178HOH     H1  721   1.422   2.243   1.182
  178HOH     H2  722   1.450   2.281   1.038
  179HOH      O  723   0.884   2.945   2.662
  179HOH     H1  724   0.894   2.977   2.572
  179HOH     H2  725   0.948   2.995   2.713
  180HOH      O  726   2.634   2.139   3.908
  180HOH     H1  727   2.709   2.087   3.935
  180HOH     H2  728   2.655   2.168   3.820
  181HOH      O  729   3.641   1.010   1.313
  181HOH     H1  730   3.635   1.100   1.282
  181HOH     H2  731   3.734   0.987   1.301
  182HOH      O  732   0.458   2.102   2.508
  182HOH     H1  733   0.386   2.165   2.503
  182HOH     H2  734   0.461   2.063   2.421
  183HOH      O  735   1.719   1.555   1.566
  183HOH     H1  736   1.651   1.514   1.620
  183HOH     H2  737   1.758   1.621   1.623
  184HOH      O  738   2.712   0.612   1.744
  184HOH     H1  739   2.689   0.705   1.753
  184HOH     H2  740   2.655   0.567   1.806
  185HOH      O  741   0.610   3.760   0.912
  185HOH     H1  742   0.689   3.803   0.879
  185HOH     H2  743   0.597   3.798   0.999
  186HOH      O  744   0.560   1.947   0.462
  186HOH     H1  745   0.506   1.871   0.441
  186HOH     H2  746   0.510   1.994   0.529
  187HOH      O  747   1.254   3.966  -0.006
  187HOH     H1  748   1.188   3.933   0.054
  187HOH     H2  749   1.336   3.926   0.023
  188HOH      O  750   2.005   3.411   0.972
  188HOH     H1  751   1.933   3.418   1.035
  188HOH     H2  752   2.011   3.318   0.953
  189HOH      O  753   3.488   1.950   0.780
  189HOH     H1  754   3.407   1.940   0.831
  189HOH     H2  755   3.511   2.042   0.790
  190HOH      O  756   3.713   1.469   3.631
  190HOH     H1  757   3.714   1.405   3.560
  190HOH     H2  758   3.660   1.541   3.599
  191HOH      O  759   1.724   2.414   0.019
  191HOH     H1  760   1.780   2.447   0.089
  191HOH     H2  761   1.774   2.428  -0.061
  192HOH      O  762   1.374   1.662   1.923
  192HOH     H1  763   1.398   1.712   2.001
  192HOH     H2  764   1.440   1.593   1.916
  193HOH      O  765   3.120   0.713   0.134
  193HOH     H1  766   3.042   0.684   0.180
  193HOH     H2  767   3.092   0.721   0.043
  194HOH      O  768   3.721   2.930   2.269
  194HOH     H1  769   3.784   2.931   2.341
  194HOH     H2  770   3.677   3.014   2.274
  195HOH      O  771   3.152   3.276   3.001
  195HOH     H1  772   3.228   3.333   2.995
  195HOH     H2  773   3.101   3.295   2.922
  196HOH      O  774   2.099   2.095   1.159
  196HOH     H1  775   2.041   2.053   1.223
  196HOH     H2  776   2.175   2.122   1.211
  197HOH      O  777   2.204   0.826   4.009
  197HOH     H1  778   2.283   0.804   3.959
  197HOH     H2  779   2.216   0.783   4.093
  198HOH      O  780   0.815   0.353   1.201
  198HOH     H1  781   0.878   0.423   1.183
  198HOH     H2  782   0.732   0.399   1.217
  199HOH      O  783   1.063   1.799   1.050
  199HOH     H1  784   1.120   1.781   1.125
  199HOH     H2  785   1.091   1.885   1.019
  200HOH      O  786   2.145   2.465   2.242
  200HOH     H1  787   2.124   2.513   2.322
  200HOH     H2  788   2.236   2.486   2.225
  201HOH      O  789   0.182   3.634   3.014
  201HOH     H1  790   0.272   3.656   2.992
  201HOH     H2  791   0.167   3.549   2.972
  202HOH      O  792   2.944   1.099   1.852
  202HOH     H1  793   2.885   1.040   1.899
  202HOH     H2  794   2.897   1.122   1.772
  203HOH      O  795   1.116   0.429   1.326
  203HOH     H1  796   1.115   0.348   1.275
  203HOH     H2  797   1.061   0.489   1.277
  204HOH      O  798   3.627   1.824   1.476
  204HOH     H1  799   3.594   1.759   1.414
  204HOH     H2  800   3.575   1.811   1.555
  205HOH      O  801   0.966   2.880   1.161
  205HOH     H1  802   1.054   2.851   1.184
  205HOH     H2  803   0.922   2.894   1.245
  206HOH      O  804   2.325   1.006   3.348
  206HOH     H1  805   2.292   0.919   3.326
  206HOH     H2  806   2.289   1.024   3.435
  207HOH      O  807   3.003   3.935   2.550
  207HOH     H1  808   3.085   3.964   2.508
  207HOH     H2  809   3.020   3.941   2.643
  208HOH      O  810   3.703   1.537   1.114
  208HOH     H1  811   3.706   1.535   1.019
  208HOH     H2  812   3.770   1.600   1.139
  209HOH      O  813   3.528   0.371   3.805
  209HOH     H1  814   3.573   0.292   3.836
  209HOH     H2  815   3.598   0.433   3.786
  210HOH      O  816   2.839   0.163   2.791
  210HOH     H1  817   2.747   0.142   2.780
  210HOH     H2  818   2.848   0.252   2.759
  211HOH      O  819   1.686   2.073   0.973
  211HOH     H1  820   1.685   2.035   0.885
  211HOH     H2  821   1.645   2.006   1.027
  212HOH      O  822   2.448   1.234   1.531
  212HOH     H1  823   2.470   1.327   1.519
  212HOH     H2  824   2.430   1.226   1.624
  213HOH      O  825   0.955   1.731   3.314
  213HOH     H1  826   0.977   1.643   3.283
  213HOH     H2  827   0.881   1.758   3.260
  214HOH      O  828   1.852   2.800   0.360
  214HOH     H1  829   1.945   2.819   0.362
  214HOH     H2  830   1.810   2.883   0.337
  215HOH      O  831   1.700   0.478   0.158
  215HOH     H1  832   1.673   0.566   0.134
  215HOH     H2  833   1.619   0.426   0.154
  216HOH      O  834   3.091   3.478   2.469
  216HOH     H1  835   3.048   3.537   2.407
  216HOH     H2  836   3.071   3.390   2.436
  217HOH      O  837   1.135   1.728   1.587
  217HOH     H1  838   1.040   1.731   1.586
  217HOH     H2  839   1.162   1.819   1.572
  218HOH      O  840   2.551   2.337   0.077
  218HOH     H1  841   2.495   2.391   0.021
  218HOH     H2  842   2.576   2.263   0.021
  219HOH      O  843   2.183   1.441   2.241
  219HOH     H1  844   2.237   1.470   2.315
  219HOH     H2  845   2.246   1.400   2.181
  220HOH      O  846   0.451   1.437   2.202
  220HOH     H1  847   0.525   1.463   2.256
  220HOH     H2  848   0.462   1.486   2.121
  221HOH      O  849   1.886   3.296   0.463
  221HOH     H1  850   1.933   3.258   0.389
  221HOH     H2  851   1.950   3.353   0.505
  222HOH      O  852   2.848   1.573   0.634
  222HOH     H1  853   2.910   1.624   0.685
  222HOH     H2  854   2.873   1.587   0.543
  223HOH      O  855   2.551   3.575   3.678
  223HOH     H1  856   2.524   3.594   3.768
  223HOH     H2  857   2.646   3.589   3.678
  224HOH      O  858   3.600   1.488   0.407
  224HOH     H1  859   3.552   1.551   0.461
  224HOH     H2  860   3.649   1.434   0.470
  225HOH      O  861   0.880   1.028   1.238
  225HOH     H1  862   0.865   1.107   1.289
  225HOH     H2  863   0.827   0.961   1.282
  226HOH      O  864   2.602   2.976   0.268
  226HOH     H1  865   2.650   3.054   0.241
  226HOH     H2  866   2.604   2.979   0.364
  227HOH      O  867   2.485   1.517   0.119
  227HOH     H1  868   2.487   1.422   0.136
  227HOH     H2  869   2.552   1.553   0.177
  228HOH      O  870   0.207   3.937   0.264
  228HOH     H1  871   0.298   3.925   0.239
  228HOH     H2  872   0.169   3.986   0.190
  229HOH      O  873   1.158   3.790   2.607
  229HOH     H1  874   1.119   3.708   2.577
  229HOH     H2  875   1.109   3.858   2.560
  230HOH      O  876   0.651   0.484   3.600
  230HOH     H1  877   0.617   0.407   3.555
  230HOH     H2  878   0.574   0.534   3.624
  231HOH      O  879   0.818   3.474   3.204
  231HOH     H1  880   0.864   3.557   3.190
  231HOH     H2  881   0.873   3.409   3.160
  232HOH      O  882   0.304   1.056   2.387
  232HOH     H1  883   0.328   1.132   2.439
  232HOH     H2  884   0.321   1.082   2.296
  233HOH      O  885   0.959   1.218   2.383
  233HOH     H1  886   0.927   1.270   2.309
  233HOH     H2  887   1.040   1.262   2.410
  234HOH      O  888   1.942   3.809   1.220
  234HOH     H1  889   1.942   3.844   1.131
  234HOH     H2  890   1.851   3.821   1.250
  235HOH      O  891   0.275   3.562   4.023
  235HOH     H1  892   0.278   3.490   4.086
  235HOH     H2  893   0.243   3.522   3.942
  236HOH      O  894   0.598   3.808   1.176
  236HOH     H1  895   0.598   3.896   1.213
  236HOH     H2  896   0.643   3.754   1.243
  237HOH      O  897   2.860   3.669   3.447
  237HOH     H1  898   2.911   3.604   3.398
  237HOH     H2  899   2.776   3.672   3.401
  238HOH      O  900   0.325   0.044   1.013
  238HOH     H1  901   0.344   0.044   1.107
  238HOH     H2  902   0.264   0.116   1.000
  239HOH      O  903   0.552   3.480   3.697
  239HOH     H1  904   0.547   3.393   3.656
  239HOH     H2  905   0.587   3.537   3.629
  240HOH      O  906   3.959   1.652   1.222
  240HOH     H1  907   3.982   1.691   1.306
  240HOH     H2  908   3.932   1.727   1.168
  241HOH      O  909   0.340   2.460   2.266
  241HOH     H1  910   0.411   2.507   2.311
  241HOH     H2  911   0.374   2.446   2.177
  242HOH      O  912   1.888   3.729   0.501
  242HOH     H1  913   1.919   3.741   0.591
  242HOH     H2  914   1.835   3.807   0.484
  243HOH      O  915   1.162   1.041   0.208
  243HOH     H1  916   1.112   1.002   0.137
  243HOH     H2  917   1.205   1.117   0.169
  244HOH      O  918   0.219   0.024   3.816
  244HOH     H1  919   0.132   0.062   3.802
  244HOH     H2  920   0.218  -0.057   3.765
  245HOH      O  921   0.191   2.665   3.025
  245HOH     H1  922   0.246   2.591   3.048
  245HOH     H2  923   0.145   2.688   3.106
  246HOH      O  924   0.693   0.289   3.061
  246HOH     H1  925   0.781   0.255   3.047
  246HOH     H2  926   0.635   0.218   3.034
  247HOH      O  927   2.623   3.116   1.491
  247HOH     H1  928   2.535   3.149   1.510
  247HOH     H2  929   2.620   3.023   1.514
  248HOH      O  930   0.978   2.540   0.030
  248HOH     H1  931   0.921   2.585   0.093
  248HOH     H2  932   0.963   2.447   0.046
  249HOH      O  933   0.186   2.292   1.839
  249HOH     H1  934   0.103   2.320   1.799
  249HOH     H2  935   0.212   2.366   1.894
  250HOH      O  936   1.560   3.433   1.261
  250HOH     H1  937   1.482   3.429   1.317
  250HOH     H2  938   1.546   3.363   1.197
  251HOH      O  939   1.701   2.801   2.179
  251HOH     H1  940   1.682   2.730   2.240
  251HOH     H2  941   1.788   2.832   2.204
  252HOH      O  942   1.302   0.215   0.497
  252HOH     H1  943   1.385   0.258   0.520
  252HOH     H2  944   1.240   0.288   0.488
  253HOH      O  945   2.434   4.007   3.651
  253HOH     H1  946   2.379   3.932   3.675
  253HOH     H2  947   2.438   4.004   3.556
  254HOH      O  948   1.952   3.187   1.812
  254HOH     H1  949   2.014   3.246   1.770
  254HOH     H2  950   1.955   3.108   1.760
  255HOH      O  951   0.149   0.602   3.852
  255HOH     H1  952   0.084   0.559   3.797
  255HOH     H2  953   0.162   0.688   3.811
  256HOH      O  954   0.719   1.539   3.383
  256HOH     H1  955   0.663   1.615   3.367
  256HOH     H2  956   0.727   1.497   3.297
  257HOH      O  957   1.413   1.084   1.871
  257HOH     H1  958   1.484   1.088   1.936
  257HOH     H2  959   1.425   1.164   1.819
  258HOH      O  960   0.574   0.910   1.732
  258HOH     H1  961   0.616   0.856   1.798
  258HOH     H2  962   0.633   0.984   1.720
  259HOH      O  963   3.923   1.269   0.117
  259HOH     H1  964   4.010   1.250   0.082
  259HOH     H2  965   3.882   1.325   0.052
  260HOH      O  966   0.984   2.424   1.649
  260HOH     H1  967   1.035   2.343   1.641
  260HOH     H2  968   0.980   2.459   1.560
  261HOH      O  969   2.760   1.373   1.866
  261HOH     H1  970   2.703   1.450   1.865
  261HOH     H2  971   2.752   1.338   1.777
  262HOH      O  972   3.077   3.135   1.337
  262HOH     H1  973   3.152   3.193   1.323
  262HOH     H2  974   3.008   3.193   1.369
  263HOH      O  975   0.435   1.902   3.638
  263HOH     H1  976   0.446   1.976   3.697
  263HOH     H2  977   0.462   1.826   3.689
  264HOH      O  978   0.777   2.564   0.225
  264HOH     H1  979   0.694   2.544   0.182
  264HOH     H2  980   0.772   2.657   0.247
  265HOH      O  981   1.066   0.860   1.336
  265HOH     H1  982   1.084   0.929   1.399
  265HOH     H2  983   1.012   0.901   1.269
  266HOH      O  984   0.122   2.444   2.089
  266HOH     H1  985   0.162   2.409   2.168
  266HOH     H2  986   0.064   2.514   2.120
  267HOH      O  987   0.861   3.193   3.533
  267HOH     H1  988   0.946   3.152   3.552
  267HOH     H2  989   0.876   3.286   3.550
  268HOH      O  990   2.387   1.913   1.388
  268HOH     H1  991   2.386   2.003   1.419
  268HOH     H2  992   2.318   1.869   1.438
  269HOH      O  993   1.044   3.192   2.678
  269HOH     H1  994   0.997   3.261   2.725
  269HOH     H2  995   1.075   3.133   2.747
  270HOH      O  996   1.766   0.683   1.195
  270HOH     H1  997   1.680   0.680   1.237
  270HOH     H2  998   1.750   0.731   1.113
  271HOH      O  999   2.160   1.324   0.963
  271HOH     H1 1000   2.094   1.255   0.957
  271HOH     H2 1001   2.232   1.294   0.909
  272HOH      O 1002   2.571   2.099   3.229
  272HOH     H1 1003   2.522   2.034   3.181
  272HOH     H2 1004   2.631   2.137   3.165
  273HOH      O 1005   3.110   0.613   2.485
  273HOH     H1 1006   3.034   0.658   2.449
  273HOH     H2 1007   3.111   0.528   2.441
  274HOH      O 1008   1.680   2.336   0.934
  274HOH     H1 1009   1.687   2.248   0.972
  274HOH     H2 1010   1.768   2.373   0.944
  275HOH      O 1011   3.316   1.024   1.176
  275HOH     H1 1012   3.360   1.029   1.261
  275HOH     H2 1013   3.323   0.932   1.150
  276HOH      O 1014   0.345   2.803   3.542
  276HOH     H1 1015   0.363   2.884   3.494
  276HOH     H2 1016   0.261   2.818   3.585
  277HOH      O 1017   3.868   3.120   2.715
  277HOH     H1 1018   3.885   3.067   2.638
  277HOH     H2 1019   3.844   3.206   2.681
  278HOH      O 1020   2.994   1.587   0.412
  278HOH     H1 1021   3.034   1.649   0.351
  278HOH     H2 1022   3.028   1.502   0.385
  279HOH      O 1023   2.124   0.409   0.738
  279HOH     H1 1024   2.110   0.314   0.741
  279HOH     H2 1025   2.157   0.430   0.825
  280HOH      O 1026   3.563   1.940   0.515
  280HOH     H1 1027   3.605   1.855   0.508
  280HOH     H2 1028   3.549   1.953   0.609
  281HOH      O 1029   3.367   0.612   0.520
  281HOH     H1 1030   3.354   0.529   0.476
  281HOH     H2 1031   3.457   0.607   0.554
  282HOH      O 1032   1.023   0.939   2.245
  282HOH     H1 1033   1.118   0.951   2.237
  282HOH     H2 1034   0.998   0.989   2.322
  283HOH      O 1035   0.180   2.773   2.787
  283HOH     H1 1036   0.174   2.727   2.871
  283HOH     H2 1037   0.103   2.831   2.786
  284HOH      O 1038   3.479   0.570   3.552
  284HOH     H1 1039   3.419   0.559   3.478
  284HOH     H2 1040   3.481   0.485   3.594
  285HOH      O 1041   2.620   0.498   2.870
  285HOH     H1 1042   2.574   0.539   2.944
  285HOH     H2 1043   2.655   0.571   2.820
  286HOH      O 1044   2.821   2.457   0.124
  286HOH     H1 1045   2.826   2.365   0.151
  286HOH     H2 1046   2.835   2.456   0.030
  287HOH      O 1047   3.368   1.082   3.544
  287HOH     H1 1048   3.322   1.146   3.489
  287HOH     H2 1049   3.443   1.055   3.492
  288HOH      O 1050   3.259   2.647   0.076
  288HOH     H1 1051   3.275   2.740   0.089
  288HOH     H2 1052   3.185   2.627   0.134
  289HOH      O 1053   1.694   0.979   4.004
  289HOH     H1 1054   1.610   1.010   4.037
  289HOH     H2 1055   1.759   1.041   4.037
  290HOH      O 1056   2.157   2.857   0.068
  290HOH     H1 1057   2.207   2.907   0.134
  290HOH     H2 1058   2.071   2.898   0.067
  291HOH      O 1059   2.773   1.696   1.196
  291HOH     H1 1060   2.800   1.694   1.104
  291HOH     H2 1061   2.699   1.756   1.199
  292HOH      O 1062   2.023   1.813   1.781
  292HOH     H1 1063   2.016   1.800   1.876
  292HOH     H2 1064   2.085   1.885   1.772
  293HOH      O 1065   2.202   1.272   3.259
  293HOH     H1 1066   2.248   1.188   3.265
  293HOH     H2 1067   2.230   1.320   3.337
  294HOH      O 1068   3.877   1.584   2.226
  294HOH     H1 1069   3.852   1.519   2.291
  294HOH     H2 1070   3.817   1.569   2.153
  295HOH      O 1071   1.505   2.543   0.109
  295HOH     H1 1072   1.519   2.637   0.097
  295HOH     H2 1073   1.592   2.505   0.100
  296HOH      O 1074   0.972   3.481   0.278
  296HOH     H1 1075   0.906   3.411   0.278
  296HOH     H2 1076   0.923   3.559   0.253
  297HOH      O 1077   2.239   1.550   2.741
  297HOH     H1 1078   2.174   1.619   2.729
  297HOH     H2 1079   2.289   1.549   2.659
  298HOH      O 1080   3.371   0.261   3.226
  298HOH     H1 1081   3.283   0.233   3.250
  298HOH     H2 1082   3.421   0.254   3.308
  299HOH      O 1083   1.125   0.989   3.368
  299HOH     H1 1084   1.193   0.975   3.433
  299HOH     H2 1085   1.159   1.059   3.313
  300HOH      O 1086   1.139   0.773   0.977
  300HOH     H1 1087   1.079   0.845   0.958
  300HOH     H2 1088   1.177   0.750   0.892
  301HOH      O 1089   1.435   0.534   2.430
  301HOH     H1 1090   1.461   0.496   2.346
  301HOH     H2 1091   1.340   0.539   2.426
  302HOH      O 1092   1.511   1.498   2.968
  302HOH     H1 1093   1.426   1.471   2.932
  302HOH     H2 1094   1.553   1.416   2.993
  303HOH      O 1095   3.973   0.554   2.859
  303HOH     H1 1096   3.984   0.568   2.765
  303HOH     H2 1097   3.941   0.638   2.892
  304HOH      O 1098   2.978   3.742   0.414
  304HOH     H1 1099   2.965   3.804   0.485
  304HOH     H2 1100   2.986   3.657   0.457
  305HOH      O 1101   2.496   2.433   2.304
  305HOH     H1 1102   2.438   2.506   2.323
  305HOH     H2 1103   2.574   2.450   2.357
  306HOH      O 1104   0.730   3.129   3.319
  306HOH     H1 1105   0.766   3.139   3.231
  306HOH     H2 1106   0.786   3.183   3.374
  307HOH      O 1107   0.047   3.426   2.229
  307HOH     H1 1108  -0.001   3.472   2.298
  307HOH     H2 1109   0.047   3.335   2.257
  308HOH      O 1110   3.949   0.097   1.837
  308HOH     H1 1111   4.037   0.062   1.837
  308HOH     H2 1112   3.893   0.023   1.861
  309HOH      O 1113   2.537   0.089   0.093
  309HOH     H1 1114   2.452   0.091   0.049
  309HOH     H2 1115   2.596   0.047   0.030
  310HOH      O 1116   0.266   1.974   0.275
  310HOH     H1 1117   0.278   1.949   0.183
  310HOH     H2 1118   0.289   2.067   0.277
  311HOH      O 1119   0.905   2.725   0.937
  311HOH     H1 1120   0.928   2.780   0.861
  311HOH     H2 1121   0.918   2.782   1.012
  312HOH      O 1122   3.365   1.923   1.937
  312HOH     H1 1123   3.285   1.931   1.886
  312HOH     H2 1124   3.376   1.829   1.951
  313HOH      O 1125   0.471   4.062   1.798
  313HOH     H1 1126   0.501   4.031   1.712
  313HOH     H2 1127   0.443   3.982   1.843
  314HOH      O 1128   3.305   3.611   3.627
  314HOH     H1 1129   3.221   3.646   3.656
  314HOH     H2 1130   3.285   3.566   3.545
  315HOH      O 1131   1.452   0.727   1.838
  315HOH     H1 1132   1.415   0.773   1.763
  315HOH     H2 1133   1.378   0.716   1.898
  316HOH      O 1134   3.196   0.945   2.234
  316HOH     H1 1135   3.179   0.960   2.327
  316HOH     H2 1136   3.204   1.032   2.196
  317HOH      O 1137   0.634   0.547   2.993
  317HOH     H1 1138   0.659   0.455   3.000
  317HOH     H2 1139   0.688   0.591   3.059
  318HOH      O 1140   0.121   2.756   3.725
  318HOH     H1 1141   0.091   2.701   3.798
  318HOH     H2 1142   0.044   2.769   3.671
  319HOH      O 1143   1.440   3.963   0.439
  319HOH     H1 1144   1.436   4.042   0.493
  319HOH     H2 1145   1.349   3.936   0.430
  320HOH      O 1146   0.587   0.185   3.559
  320HOH     H1 1147   0.668   0.137   3.580
  320HOH     H2 1148   0.563   0.227   3.642
  321HOH      O 1149   2.073   3.172   0.304
  321HOH     H1 1150   2.161   3.188   0.270
  321HOH     H2 1151   2.014   3.203   0.234
  322HOH      O 1152   1.107   3.351   3.667
  322HOH     H1 1153   1.025   3.398   3.652
  322HOH     H2 1154   1.124   3.361   3.760
  323HOH      O 1155   2.204   1.517   0.042
  323HOH     H1 1156   2.295   1.520   0.072
  323HOH     H2 1157   2.180   1.609   0.031
  324HOH      O 1158   2.934   2.584   0.472
  324HOH     H1 1159   2.977   2.613   0.553
  324HOH     H2 1160   3.006   2.568   0.411
  325HOH      O 1161   1.815   1.133   2.308
  325HOH     H1 1162   1.884   1.105   2.369
  325HOH     H2 1163   1.846   1.216   2.273
  326HOH      O 1164   3.819   1.727   2.945
  326HOH     H1 1165   3.723   1.725   2.949
  326HOH     H2 1166   3.839   1.802   2.890
  327HOH      O 1167   3.946   2.813   1.278
  327HOH     H1 1168   3.997   2.760   1.339
  327HOH     H2 1169   3.907   2.749   1.218
  328HOH      O 1170   1.618   2.073   2.369
  328HOH     H1 1171   1.646   1.982   2.363
  328HOH     H2 1172   1.693   2.124   2.338
  329HOH      O 1173   0.131   3.988   1.535
  329HOH     H1 1174   0.178   4.012   1.455
  329HOH     H2 1175   0.059   4.050   1.540
  330HOH      O 1176   2.062   1.273   2.655
  330HOH     H1 1177   2.126   1.237   2.594
  330HOH     H2 1178   2.096   1.359   2.678
  331HOH      O 1179   1.502   0.516   3.289
  331HOH     H1 1180   1.528   0.431   3.325
  331HOH     H2 1181   1.415   0.500   3.252
  332HOH      O 1182   2.201   2.518   0.347
  332HOH     H1 1183   2.207   2.469   0.264
  332HOH     H2 1184   2.276   2.577   0.345
  333HOH      O 1185   1.905   2.428   2.889
  333HOH     H1 1186   1.857   2.359   2.844
  333HOH     H2 1187   1.908   2.400   2.980
  334HOH      O 1188   2.644   3.596   1.006
  334HOH     H1 1189   2.567   3.568   1.055
  334HOH     H2 1190   2.660   3.686   1.036
  335HOH      O 1191   2.768   1.862   2.122
  335HOH     H1 1192   2.691   1.819   2.158
  335HOH     H2 1193   2.821   1.885   2.198
  336HOH      O 1194   3.687   1.167   3.655
  336HOH     H1 1195   3.605   1.162   3.704
  336HOH     H2 1196   3.663   1.213   3.574
  337HOH      O 1197   2.674   3.615   0.343
  337HOH     H1 1198   2.731   3.686   0.375
  337HOH     H2 1199   2.688   3.613   0.249
  338HOH      O 1200   2.114   2.650   3.877
  338HOH     H1 1201   2.143   2.697   3.955
  338HOH     H2 1202   2.080   2.719   3.819
  339HOH      O 1203   4.016   1.675   1.641
  339HOH     H1 1204   3.994   1.723   1.561
  339HOH     H2 1205   4.053   1.741   1.699
  340HOH      O 1206   3.344   1.036   0.744
  340HOH     H1 1207   3.432   1.014   0.713
  340HOH     H2 1208   3.352   1.126   0.777
  341HOH      O 1209   2.169   2.472   0.047
  341HOH     H1 1210   2.256   2.465   0.007
  341HOH     H2 1211   2.122   2.534  -0.009
  342HOH      O 1212   1.757   2.475   2.184
  342HOH     H1 1213   1.674   2.515   2.211
  342HOH     H2 1214   1.824   2.539   2.207
  343HOH      O 1215   0.828   3.351   0.996
  343HOH     H1 1216   0.815   3.259   0.974
  343HOH     H2 1217   0.895   3.381   0.935
  344HOH      O 1218   1.091   3.178   2.263
  344HOH     H1 1219   1.186   3.183   2.271
  344HOH     H2 1220   1.074   3.196   2.170
  345HOH      O 1221   1.781   3.234   1.465
  345HOH     H1 1222   1.862   3.284   1.469
  345HOH     H2 1223   1.712   3.300   1.477
  346HOH      O 1224   0.198   0.366   2.308
  346HOH     H1 1225   0.162   0.453   2.319
  346HOH     H2 1226   0.292   0.376   2.325
  347HOH      O 1227   1.004   1.067   2.783
  347HOH     H1 1228   0.976   1.153   2.750
  347HOH     H2 1229   1.063   1.034   2.715
  348HOH      O 1230   0.944   3.743   1.699
  348HOH     H1 1231   0.960   3.753   1.605
  348HOH     H2 1232   1.009   3.799   1.741
  349HOH      O 1233   2.848   1.505   0.044
  349HOH     H1 1234   2.775   1.567   0.042
  349HOH     H2 1235   2.925   1.559   0.029
  350HOH      O 1236   3.734   0.744   0.712
  350HOH     H1 1237   3.817   0.709   0.681
  350HOH     H2 1238   3.680   0.666   0.729
  351HOH      O 1239   3.869   3.726   1.737
  351HOH     H1 1240   3.843   3.804   1.688
  351HOH     H2 1241   3.881   3.757   1.827
  352HOH      O 1242   2.890   2.051   3.930
  352HOH     H1 1243   2.888   1.955   3.926
  352HOH     H2 1244   2.982   2.073   3.914
  353HOH      O 1245   2.943   3.448   3.309
  353HOH     H1 1246   2.899   3.363   3.319
  353HOH     H2 1247   2.960   3.455   3.216
  354HOH      O 1248   0.915   1.396   0.530
  354HOH     H1 1249   0.970   1.420   0.605
  354HOH     H2 1250   0.934   1.303   0.516
  355HOH      O 1251   0.503   2.962   2.184
  355HOH     H1 1252   0.588   2.921   2.200
  355HOH     H2 1253   0.497   3.031   2.251
  356HOH      O 1254   3.489   2.865   3.371
  356HOH     H1 1255   3.552   2.806   3.332
  356HOH     H2 1256   3.453   2.915   3.298
  357HOH      O 1257   1.835   0.416   1.464
  357HOH     H1 1258   1.897   0.442   1.533
  357HOH     H2 1259   1.878   0.443   1.382
  358HOH      O 1260   2.149   0.706   3.338
  358HOH     H1 1261   2.234   0.690   3.298
  358HOH     H2 1262   2.086   0.701   3.266
  359HOH      O 1263   0.470   3.470   1.955
  359HOH     H1 1264   0.401   3.408   1.980
  359HOH     H2 1265   0.455   3.487   1.862
  360HOH      O 1266   3.492   2.252   1.331
  360HOH     H1 1267   3.493   2.268   1.425
  360HOH     H2 1268   3.415   2.196   1.317
  361HOH      O 1269   1.130   0.177   3.486
  361HOH     H1 1270   1.129   0.114   3.414
  361HOH     H2 1271   1.210   0.228   3.472
  362HOH      O 1272   2.952   0.416   1.806
  362HOH     H1 1273   2.887   0.487   1.799
  362HOH     H2 1274   3.030   0.451   1.763
  363HOH      O 1275   1.595   1.667   3.804
  363HOH     H1 1276   1.503   1.647   3.825
  363HOH     H2 1277   1.645   1.618   3.869
  364HOH      O 1278   3.783   1.538   2.760
  364HOH     H1 1279   3.838   1.559   2.685
  364HOH     H2 1280   3.812   1.597   2.829
  365HOH      O 1281   1.944   3.698   2.289
  365HOH     H1 1282   1.895   3.619   2.312
  365HOH     H2 1283   1.949   3.695   2.193
  366HOH      O 1284   0.275   0.913   2.113
  366HOH     H1 1285   0.280   0.889   2.020
  366HOH     H2 1286   0.227   0.996   2.114
  367HOH      O 1287   2.782   3.164   0.409
  367HOH     H1 1288   2.829   3.186   0.328
  367HOH     H2 1289   2.735   3.244   0.431
  368HOH      O 1290   3.410   2.523   0.448
  368HOH     H1 1291   3.396   2.569   0.531
  368HOH     H2 1292   3.460   2.585   0.395
  369HOH      O 1293   2.562   2.339   2.022
  369HOH     H1 1294   2.572   2.257   2.071
  369HOH     H2 1295   2.552   2.406   2.090
  370HOH      O 1296   2.867   0.567   3.526
  370HOH     H1 1297   2.919   0.517   3.589
  370HOH     H2 1298   2.925   0.636   3.496
  371HOH      O 1299   0.941   1.781   0.305
  371HOH     H1 1300   0.968   1.702   0.258
  371HOH     H2 1301   1.020   1.836   0.306
  372HOH      O 1302   0.884   0.862   0.520
  372HOH     H1 1303   0.915   0.947   0.552
  372HOH     H2 1304   0.860   0.878   0.429
  373HOH      O 1305   0.705   3.592   2.770
  373HOH     H1 1306   0.725   3.682   2.798
  373HOH     H2 1307   0.646   3.603   2.696
  374HOH      O 1308   1.075   2.001   2.993
  374HOH     H1 1309   0.997   1.951   3.017
  374HOH     H2 1310   1.141   1.974   3.056
  375HOH      O 1311   0.481   3.169   2.362
  375HOH     H1 1312   0.434   3.239   2.316
  375HOH     H2 1313   0.560   3.213   2.395
  376HOH      O 1314   0.083   1.564   0.664
  376HOH     H1 1315   0.074   1.641   0.720
  376HOH     H2 1316   0.097   1.600   0.576
  377HOH      O 1317   3.437   1.211   3.124
  377HOH     H1 1318   3.508   1.276   3.125
  377HOH     H2 1319   3.479   1.129   3.147
  378HOH      O 1320   1.265   0.427   3.176
  378HOH     H1 1321   1.172   0.430   3.197
  378HOH     H2 1322   1.273   0.353   3.115
  379HOH      O 1323   0.817   2.479   3.834
  379HOH     H1 1324   0.810   2.386   3.851
  379HOH     H2 1325   0.897   2.506   3.879
  380HOH      O 1326   2.741   1.443   1.369
  380HOH     H1 1327   2.761   1.495   1.291
  380HOH     H2 1328   2.652   1.411   1.353
  381HOH      O 1329   3.016   3.962   2.849
  381HOH     H1 1330   2.971   3.905   2.911
  381HOH     H2 1331   2.950   4.028   2.826
  382HOH      O 1332   0.509   0.266   2.433
  382HOH     H1 1333   0.536   0.183   2.396
  382HOH     H2 1334   0.561   0.332   2.387
  383HOH      O 1335   1.559   3.932   0.724
  383HOH     H1 1336   1.591   4.022   0.730
  383HOH     H2 1337   1.613   3.892   0.656
  384HOH      O 1338   1.701   3.925   0.445
  384HOH     H1 1339   1.714   3.992   0.512
  384HOH     H2 1340   1.609   3.936   0.418
  385HOH      O 1341   4.009   0.103   0.162
  385HOH     H1 1342   3.939   0.069   0.106
  385HOH     H2 1343   3.985   0.074   0.250
  386HOH      O 1344   0.183   1.871   1.746
  386HOH     H1 1345   0.192   1.937   1.815
  386HOH     H2 1346   0.273   1.840   1.731
  387HOH      O 1347   1.607   2.022   1.853
  387HOH     H1 1348   1.675   2.072   1.809
  387HOH     H2 1349   1.651   1.980   1.927
  388HOH      O 1350   2.456   1.575   1.206
  388HOH     H1 1351   2.381   1.579   1.146
  388HOH     H2 1352   2.476   1.667   1.225
  389HOH      O 1353   0.667   3.187   1.913
  389HOH     H1 1354   0.639   3.278   1.921
  389HOH     H2 1355   0.586   3.137   1.918
  390HOH      O 1356   3.347   2.539   3.251
  390HOH     H1 1357   3.350   2.561   3.158
  390HOH     H2 1358   3.255   2.521   3.268
  391HOH      O 1359   0.750   2.553   0.802
  391HOH     H1 1360   0.816   2.612   0.839
  391HOH     H2 1361   0.775   2.544   0.710
  392HOH      O 1362   2.363   3.253   0.395
  392HOH     H1 1363   2.398   3.205   0.469
  392HOH     H2 1364   2.440   3.272   0.340
  393HOH      O 1365   2.511   1.491   2.251
  393HOH     H1 1366   2.594   1.526   2.285
  393HOH     H2 1367   2.535   1.406   2.213
  394HOH      O 1368   2.669   3.082   2.137
  394HOH     H1 1369   2.750   3.099   2.185
  394HOH     H2 1370   2.692   3.096   2.045
  395HOH      O 1371   1.114   2.003   1.509
  395HOH     H1 1372   1.080   2.014   1.420
  395HOH     H2 1373   1.141   2.091   1.536
  396HOH      O 1374   0.789   3.539   2.386
  396HOH     H1 1375   0.827   3.537   2.298
  396HOH     H2 1376   0.700   3.571   2.373
  397HOH      O 1377   0.288   2.280   1.158
  397HOH     H1 1378   0.282   2.303   1.065
  397HOH     H2 1379   0.201   2.249   1.181
  398HOH      O 1380   2.122   0.495   1.002
  398HOH     H1 1381   2.205   0.448   1.005
  398HOH     H2 1382   2.056   0.426   0.995
  399HOH      O 1383   0.188   2.045   1.965
  399HOH     H1 1384   0.179   2.129   1.920
  399HOH     H2 1385   0.276   2.048   2.004
  400HOH      O 1386   3.863   1.276   3.202
  400HOH     H1 1387   3.836   1.367   3.193
  400HOH     H2 1388   3.942   1.280   3.256
  401HOH      O 1389   3.495   2.154   2.628
  401HOH     H1 1390   3.530   2.065   2.627
  401HOH     H2 1391   3.514   2.187   2.716
  402HOH      O 1392   0.314   1.444   3.574
  402HOH     H1 1393   0.264   1.481   3.501
  402HOH     H2 1394   0.281   1.491   3.651
  403HOH      O 1395   0.340   2.640   3.333
  403HOH     H1 1396   0.357   2.689   3.414
  403HOH     H2 1397   0.245   2.647   3.320
  404HOH      O 1398   3.648   1.515   1.588
  404HOH     H1 1399   3.654   1.533   1.494
  404HOH     H2 1400   3.666   1.421   1.595
  405HOH      O 1401   0.912   0.706   3.470
  405HOH     H1 1402   0.857   0.752   3.533
  405HOH     H2 1403   1.000   0.711   3.507
  406HOH      O 1404   2.532   1.335   0.524
  406HOH     H1 1405   2.624   1.311   0.534
  406HOH     H2 1406   2.519   1.407   0.586
  407HOH      O 1407   2.191   1.103   4.025
  407HOH     H1 1408   2.210   1.132   3.936
  407HOH     H2 1409   2.204   1.009   4.024
  408HOH      O 1410   0.544   0.355   0.454
  408HOH     H1 1411   0.480   0.314   0.396
  408HOH     H2 1412   0.576   0.431   0.406
  409HOH      O 1413   3.138   2.307   3.733
  409HOH     H1 1414   3.149   2.238   3.799
  409HOH     H2 1415   3.130   2.388   3.785
  410HOH      O 1416   1.647   3.868   2.042
  410HOH     H1 1417   1.728   3.919   2.042
  410HOH     H2 1418   1.655   3.811   1.965
  411HOH      O 1419   2.871   3.209   0.673
  411HOH     H1 1420   2.870   3.203   0.577
  411HOH     H2 1421   2.785   3.179   0.700
  412HOH      O 1422   3.024   3.917   3.977
  412HOH     H1 1423   2.929   3.907   3.985
  412HOH     H2 1424   3.059   3.887   4.061
  413HOH      O 1425   3.025   1.100   0.583
  413HOH     H1 1426   3.063   1.014   0.601
  413HOH     H2 1427   3.031   1.146   0.667
  414HOH      O 1428   3.226   3.206   1.731
  414HOH     H1 1429   3.245   3.129   1.783
  414HOH     H2 1430   3.132   3.219   1.741
  415HOH      O 1431   0.246   0.832   3.540
  415HOH     H1 1432   0.220   0.772   3.470
  415HOH     H2 1433   0.167   0.843   3.593
  416HOH      O 1434   3.785   3.612   0.702
  416HOH     H1 1435   3.726   3.686   0.684
  416HOH     H2 1436   3.842   3.609   0.625
  417HOH      O 1437   3.641   2.796   1.987
  417HOH     H1 1438   3.561   2.761   2.027
  417HOH     H2 1439   3.677   2.855   2.053
  418HOH      O 1440   3.216   0.316   0.115
  418HOH     H1 1441   3.185   0.230   0.086
  418HOH     H2 1442   3.222   0.367   0.034
  419HOH      O 1443   2.239   1.981   0.790
  419HOH     H1 1444   2.268   2.045   0.726
  419HOH     H2 1445   2.145   1.971   0.774
  420HOH      O 1446   1.214   1.548   0.945
  420HOH     H1 1447   1.276   1.572   1.014
  420HOH     H2 1448   1.166   1.630   0.928
  421HOH      O 1449   2.087   1.996   0.174
  421HOH     H1 1450   2.151   1.932   0.141
  421HOH     H2 1451   2.061   2.046   0.097
  422HOH      O 1452   0.448   1.717   0.381
  422HOH     H1 1453   0.456   1.686   0.471
  422HOH     H2 1454   0.514   1.668   0.332
  423HOH      O 1455   2.116   0.656   2.478
  423HOH     H1 1456   2.170   0.577   2.485
  423HOH     H2 1457   2.172   0.726   2.511
  424HOH      O 1458   0.524   1.744   3.371
  424HOH     H1 1459   0.516   1.800   3.294
  424HOH     H2 1460   0.434   1.737   3.404
  425HOH      O 1461   3.977   2.544   2.786
  425HOH     H1 1462   3.956   2.451   2.796
  425HOH     H2 1463   3.935   2.586   2.861
  426HOH      O 1464   1.502   2.601   2.243
  426HOH     H1 1465   1.465   2.684   2.274
  426HOH     H2 1466   1.426   2.547   2.222
  427HOH      O 1467   0.484   3.234   3.356
  427HOH     H1 1468   0.505   3.323   3.326
  427HOH     H2 1469   0.565   3.185   3.343
  428HOH      O 1470   2.755  -0.011   3.970
  428HOH     H1 1471   2.746   0.065   3.913
  428HOH     H2 1472   2.798   0.022   4.048
  429HOH      O 1473   0.654   3.075   2.697
  429HOH     H1 1474   0.663   3.152   2.641
  429HOH     H2 1475   0.737   3.029   2.688
  430HOH      O 1476   2.515   0.885   0.527
  430HOH     H1 1477   2.587   0.944   0.548
  430HOH     H2 1478   2.549   0.833   0.453
  431HOH      O 1479   3.956   0.833   1.610
  431HOH     H1 1480   3.982   0.887   1.686
  431HOH     H2 1481   3.981   0.886   1.534
  432HOH      O 1482   3.835   2.453   3.571
  432HOH     H1 1483   3.802   2.382   3.625
  432HOH     H2 1484   3.758   2.508   3.553
  433HOH      O 1485   3.897   3.530   0.197
  433HOH     H1 1486   3.880   3.608   0.145
  433HOH     H2 1487   3.898   3.458   0.134
  434HOH      O 1488   1.925   1.035   2.754
  434HOH     H1 1489   1.908   1.050   2.848
  434HOH     H2 1490   1.980   1.108   2.728
  435HOH      O 1491   3.797   1.276   2.868
  435HOH     H1 1492   3.768   1.249   2.781
  435HOH     H2 1493   3.806   1.372   2.862
  436HOH      O 1494   3.267   3.531   1.006
  436HOH     H1 1495   3.282   3.543   0.912
  436HOH     H2 1496   3.172   3.540   1.017
  437HOH      O 1497   0.321   2.432   3.062
  437HOH     H1 1498   0.269   2.353   3.078
  437HOH     H2 1499   0.411   2.401   3.058
  438HOH      O 1500   1.078   2.681   3.564
  438HOH     H1 1501   1.159   2.672   3.613
  438HOH     H2 1502   1.105   2.685   3.473
  439HOH      O 1503   0.633   3.009   0.340
  439HOH     H1 1504   0.600   3.097   0.322
  439HOH     H2 1505   0.612   2.994   0.433
  440HOH      O 1506   3.215   3.468   2.726
  440HOH     H1 1507   3.196   3.465   2.632
  440HOH     H2 1508   3.228   3.561   2.744
  441HOH      O 1509   3.752   3.952   1.607
  441HOH     H1 1510   3.681   4.016   1.608
  441HOH     H2 1511   3.721   3.882   1.550
  442HOH      O 1512   1.693   1.022   0.944
  442HOH     H1 1513   1.696   0.978   0.859
  442HOH     H2 1514   1.657   1.109   0.924
  443HOH      O 1515   3.733   2.542   1.642
  443HOH     H1 1516   3.731   2.525   1.737
  443HOH     H2 1517   3.808   2.601   1.631
  444HOH      O 1518   3.286   2.908   0.158
  444HOH     H1 1519   3.217   2.940   0.216
  444HOH     H2 1520   3.278   2.961   0.079
  445HOH      O 1521   0.528   2.153   1.068
  445HOH     H1 1522   0.600   2.194   1.020
  445HOH     H2 1523   0.474   2.226   1.097
  446HOH      O 1524   0.873   3.866   3.094
  446HOH     H1 1525   0.924   3.912   3.027
  446HOH     H2 1526   0.938   3.826   3.151
  447HOH      O 1527   0.409   3.831   1.916
  447HOH     H1 1528   0.389   3.806   1.826
  447HOH     H2 1529   0.349   3.779   1.969
  448HOH      O 1530   3.931   1.636   0.023
  448HOH     H1 1531   3.851   1.628   0.076
  448HOH     H2 1532   3.985   1.698   0.071
  449HOH      O 1533   2.375   3.366   3.916
  449HOH     H1 1534   2.384   3.440   3.977
  449HOH     H2 1535   2.461   3.358   3.875
  450HOH      O 1536   0.426   1.812   1.670
  450HOH     H1 1537   0.512   1.784   1.701
  450HOH     H2 1538   0.446   1.878   1.603
  451HOH      O 1539   3.446   2.835   1.212
  451HOH     H1 1540   3.503   2.760   1.198
  451HOH     H2 1541   3.358   2.803   1.193
  452HOH      O 1542   3.419   0.907   1.460
  452HOH     H1 1543   3.509   0.910   1.429
  452HOH     H2 1544   3.424   0.930   1.553
  453HOH      O 1545   1.203   2.703   0.812
  453HOH     H1 1546   1.208   2.779   0.870
  453HOH     H2 1547   1.170   2.633   0.868
  454HOH      O 1548   3.010   0.896   3.052
  454HOH     H1 1549   3.001   0.878   2.958
  454HOH     H2 1550   2.974   0.819   3.095
  455HOH      O 1551   1.709   2.579   0.476
  455HOH     H1 1552   1.781   2.516   0.483
  455HOH     H2 1553   1.744   2.649   0.421
  456HOH      O 1554   2.262   0.959   2.026
  456HOH     H1 1555   2.186   1.017   2.013
  456HOH     H2 1556   2.260   0.900   1.950
  457HOH      O 1557   0.629   2.985   0.827
  457HOH     H1 1558   0.693   2.916   0.809
  457HOH     H2 1559   0.664   3.062   0.784
  458HOH      O 1560   3.074   3.835   3.453
  458HOH     H1 1561   3.058   3.878   3.537
  458HOH     H2 1562   2.999   3.776   3.443
  459HOH      O 1563   0.801   1.199   3.576
  459HOH     H1 1564   0.723   1.255   3.574
  459HOH     H2 1565   0.804   1.165   3.666
  460HOH      O 1566   0.228   0.371   0.856
  460HOH     H1 1567   0.163   0.302   0.868
  460HOH     H2 1568   0.293   0.332   0.797
  461HOH      O 1569   3.745   1.801   0.714
  461HOH     H1 1570   3.718   1.880   0.761
  461HOH     H2 1571   3.814   1.831   0.655
  462HOH      O 1572   0.675   1.564   2.322
  462HOH     H1 1573   0.720   1.648   2.309
  462HOH     H2 1574   0.737   1.499   2.290
  463HOH      O 1575   3.028   2.992   2.138
  463HOH     H1 1576   3.087   2.999   2.213
  463HOH     H2 1577   2.975   3.071   2.142
  464HOH      O 1578   3.391   2.946   0.830
  464HOH     H1 1579   3.427   2.882   0.892
  464HOH     H2 1580   3.400   2.905   0.745
  465HOH      O 1581   2.416   1.404   1.929
  465HOH     H1 1582   2.445   1.315   1.949
  465HOH     H2 1583   2.322   1.403   1.950
  466HOH      O 1584   2.593   0.748   0.099
  466HOH     H1 1585   2.567   0.793   0.019
  466HOH     H2 1586   2.688   0.738   0.091
  467HOH      O 1587   2.783   1.274   0.531
  467HOH     H1 1588   2.776   1.323   0.450
  467HOH     H2 1589   2.843   1.324   0.586
  468HOH      O 1590   3.703   0.087   0.364
  468HOH     H1 1591   3.738   0.108   0.450
  468HOH     H2 1592   3.729   0.161   0.309
  469HOH      O 1593   2.544   3.176   1.229
  469HOH     H1 1594   2.623   3.154   1.179
  469HOH     H2 1595   2.570   3.164   1.321
  470HOH      O 1596   3.544   0.989   2.608
  470HOH     H1 1597   3.469   1.007   2.665
  470HOH     H2 1598   3.618   0.984   2.667
  471HOH      O 1599   3.309   0.695   3.799
  471HOH     H1 1600   3.400   0.689   3.770
  471HOH     H2 1601   3.269   0.756   3.737
  472HOH      O 1602   2.600   3.300   3.788
  472HOH     H1 1603   2.632   3.358   3.719
  472HOH     H2 1604   2.627   3.213   3.760
  473HOH      O 1605   0.316   0.249   2.054
  473HOH     H1 1606   0.261   0.188   2.004
  473HOH     H2 1607   0.259   0.279   2.125
  474HOH      O 1608   3.684   2.970   0.973
  474HOH     H1 1609   3.705   2.980   1.066
  474HOH     H2 1610   3.620   3.039   0.956
  475HOH      O 1611   3.387   0.607   0.057
  475HOH     H1 1612   3.299   0.632   0.087
  475HOH     H2 1613   3.381   0.614  -0.039
  476HOH      O 1614   3.614   3.173   2.360
  476HOH     H1 1615   3.695   3.214   2.389
  476HOH     H2 1616   3.601   3.205   2.271
  477HOH      O 1617   3.180   2.823   3.055
  477HOH     H1 1618   3.157   2.878   2.980
  477HOH     H2 1619   3.097   2.784   3.083
  478HOH      O 1620   1.408   1.357   1.480
  478HOH     H1 1621   1.405   1.449   1.506
  478HOH     H2 1622   1.370   1.356   1.392
  479HOH      O 1623   2.240   1.052   3.597
  479HOH     H1 1624   2.210   0.965   3.623
  479HOH     H2 1625   2.203   1.110   3.663
  480HOH      O 1626   2.685   0.890   1.774
  480HOH     H1 1627   2.675   0.925   1.862
  480HOH     H2 1628   2.606   0.917   1.728
  481HOH      O 1629   2.588   3.771   0.632
  481HOH     H1 1630   2.557   3.815   0.553
  481HOH     H2 1631   2.678   3.801   0.643
  482HOH      O 1632   0.491   3.580   2.284
  482HOH     H1 1633   0.485   3.614   2.195
  482HOH     H2 1634   0.471   3.487   2.276
  483HOH      O 1635   0.700   1.886   0.201
  483HOH     H1 1636   0.688   1.797   0.169
  483HOH     H2 1637   0.770   1.879   0.266
  484HOH      O 1638   0.305   0.727   1.289
  484HOH     H1 1639   0.292   0.636   1.262
  484HOH     H2 1640   0.333   0.722   1.380
  485HOH      O 1641   2.991   2.811   0.275
  485HOH     H1 1642   3.051   2.795   0.348
  485HOH     H2 1643   2.931   2.736   0.277
  486HOH      O 1644   0.826   1.252   2.614
  486HOH     H1 1645   0.735   1.275   2.595
  486HOH     H2 1646   0.860   1.221   2.530
  487HOH      O 1647   0.599   2.976   3.798
  487HOH     H1 1648   0.672   2.935   3.844
  487HOH     H2 1649   0.616   2.957   3.705
  488HOH      O 1650   3.324   3.471   2.278
  488HOH     H1 1651   3.351   3.444   2.190
  488HOH     H2 1652   3.238   3.511   2.266
  489HOH      O 1653   2.154   1.783   1.512
  489HOH     H1 1654   2.083   1.819   1.564
  489HOH     H2 1655   2.161   1.692   1.541
  490HOH      O 1656   2.331   0.482   2.397
  490HOH     H1 1657   2.423   0.507   2.384
  490HOH     H2 1658   2.323   0.398   2.353
  491HOH      O 1659   1.334   1.280   2.711
  491HOH     H1 1660   1.319   1.332   2.790
  491HOH     H2 1661   1.360   1.194   2.745
  492HOH      O 1662   0.533   0.285   1.360
  492HOH     H1 1663   0.530   0.358   1.299
  492HOH     H2 1664   0.562   0.323   1.443
  493HOH      O 1665   1.813   2.656   0.766
  493HOH     H1 1666   1.728   2.633   0.730
  493HOH     H2 1667   1.873   2.591   0.730
  494HOH      O 1668   0.347   3.864   1.257
  494HOH     H1 1669   0.418   3.831   1.201
  494HOH     H2 1670   0.278   3.799   1.248
  495HOH      O 1671   2.372   3.476   3.228
  495HOH     H1 1672   2.384   3.381   3.224
  495HOH     H2 1673   2.352   3.493   3.320
  496HOH      O 1674   1.994   1.403   2.937
  496HOH     H1 1675   2.087   1.399   2.916
  496HOH     H2 1676   1.966   1.489   2.906
  497HOH      O 1677   3.193   3.441   0.723
  497HOH     H1 1678   3.252   3.374   0.691
  497HOH     H2 1679   3.235   3.524   0.699
  498HOH      O 1680   0.372   2.226   0.290
  498HOH     H1 1681   0.463   2.246   0.271
  498HOH     H2 1682   0.349   2.286   0.361
  499HOH      O 1683   2.501   1.854   0.177
  499HOH     H1 1684   2.423   1.821   0.220
  499HOH     H2 1685   2.517   1.793   0.105
  500HOH      O 1686   0.240   1.830   2.839
  500HOH     H1 1687   0.215   1.855   2.928
  500HOH     H2 1688   0.217   1.738   2.833
  501HOH      O 1689   0.740   0.788   1.259
  501HOH     H1 1690   0.667   0.809   1.201
  501HOH     H2 1691   0.702   0.729   1.325
  502HOH      O 1692   3.298   1.818   2.782
  502HOH     H1 1693   3.207   1.790   2.773
  502HOH     H2 1694   3.295   1.894   2.841
  503HOH      O 1695   2.999   2.025   0.970
  503HOH     H1 1696   2.958   2.107   0.941
  503HOH     H2 1697   2.996   2.030   1.065
  504HOH      O 1698   2.773   0.130   0.916
  504HOH     H1 1699   2.841   0.172   0.969
  504HOH     H2 1700   2.705   0.196   0.907
  505HOH      O 1701   0.698   2.939   1.662
  505HOH     H1 1702   0.674   3.030   1.643
  505HOH     H2 1703   0.759   2.945   1.735
  506HOH      O 1704   1.620   0.622   3.867
  506HOH     H1 1705   1.635   0.528   3.857
  506HOH     H2 1706   1.534   0.636   3.828
  507HOH      O 1707   1.705   2.624   1.173
  507HOH     H1 1708   1.718   2.693   1.108
  507HOH     H2 1709   1.785   2.572   1.169
  508HOH      O 1710   2.596   3.156   3.322
  508HOH     H1 1711   2.686   3.153   3.291
  508HOH     H2 1712   2.545   3.185   3.246
  509HOH      O 1713   2.363   1.939   2.328
  509HOH     H1 1714   2.319   2.015   2.368
  509HOH     H2 1715   2.310   1.864   2.355
  510HOH      O 1716   3.671   3.322   0.784
  510HOH     H1 1717   3.755   3.360   0.811
  510HOH     H2 1718   3.627   3.393   0.737
  511HOH      O 1719   3.580   2.159   0.194
  511HOH     H1 1720   3.507   2.202   0.240
  511HOH     H2 1721   3.544   2.075   0.166
  512HOH      O 1722   2.151   3.932   0.700
  512HOH     H1 1723   2.058   3.913   0.716
  512HOH     H2 1724   2.173   3.878   0.624
  513HOH      O 1725   3.873   3.816   2.004
  513HOH     H1 1726   3.853   3.724   2.022
  513HOH     H2 1727   3.958   3.830   2.045
  514HOH      O 1728   2.197   3.324   3.640
  514HOH     H1 1729   2.230   3.294   3.725
  514HOH     H2 1730   2.250   3.277   3.576
  515HOH      O 1731   3.942   3.360   0.887
  515HOH     H1 1732   3.987   3.283   0.853
  515HOH     H2 1733   3.995   3.434   0.859
  516HOH      O 1734   1.463   3.668   3.047
  516HOH     H1 1735   1.484   3.760   3.034
  516HOH     H2 1736   1.413   3.666   3.128
  517HOH      O 1737   3.494   3.967   2.396
  517HOH     H1 1738   3.575   4.000   2.435
  517HOH     H2 1739   3.502   3.872   2.397
  518HOH      O 1740   3.450   3.271   1.632
  518HOH     H1 1741   3.363   3.235   1.651
  518HOH     H2 1742   3.476   3.228   1.551
  519HOH      O 1743   3.903   1.618   3.432
  519HOH     H1 1744   3.968   1.548   3.423
  519HOH     H2 1745   3.905   1.640   3.525
  520HOH      O 1746   0.492   2.078   3.023
  520HOH     H1 1747   0.494   2.082   3.119
  520HOH     H2 1748   0.485   1.985   3.003
  521HOH      O 1749   0.820   2.470   2.176
  521HOH     H1 1750   0.897   2.526   2.166
  521HOH     H2 1751   0.832   2.401   2.111
  522HOH      O 1752   3.719   3.278   2.085
  522HOH     H1 1753   3.798   3.247   2.041
  522HOH     H2 1754   3.648   3.255   2.026
  523HOH      O 1755   0.025   1.267   3.879
  523HOH     H1 1756  -0.050   1.297   3.828
  523HOH     H2 1757   0.063   1.197   3.826
  524HOH      O 1758   0.438   0.493   2.258
  524HOH     H1 1759   0.411   0.578   2.294
  524HOH     H2 1760   0.419   0.500   2.164
  525HOH      O 1761   2.996   3.111   2.607
  525HOH     H1 1762   2.908   3.125   2.571
  525HOH     H2 1763   3.015   3.191   2.656
  526HOH      O 1764   1.481   0.424   1.681
  526HOH     H1 1765   1.439   0.508   1.658
  526HOH     H2 1766   1.561   0.449   1.726
  527HOH      O 1767   0.768   1.539   3.905
  527HOH     H1 1768   0.823   1.615   3.924
  527HOH     H2 1769   0.770   1.531   3.810
  528HOH      O 1770   3.623   1.011   1.784
  528HOH     H1 1771   3.668   0.945   1.836
  528HOH     H2 1772   3.553   1.043   1.841
  529HOH      O 1773   1.766   3.688   1.825
  529HOH     H1 1774   1.761   3.595   1.848
  529HOH     H2 1775   1.801   3.689   1.736
  530HOH      O 1776   3.650   0.556   2.520
  530HOH     H1 1777   3.586   0.609   2.472
  530HOH     H2 1778   3.728   0.557   2.466
  531HOH      O 1779   2.261   3.398   1.933
  531HOH     H1 1780   2.219   3.387   2.019
  531HOH     H2 1781   2.254   3.492   1.915
  532HOH      O 1782   3.481   0.232   1.950
  532HOH     H1 1783   3.485   0.185   2.033
  532HOH     H2 1784   3.486   0.163   1.883
  533HOH      O 1785   1.934   2.502   1.566
  533HOH     H1 1786   1.873   2.543   1.628
  533HOH     H2 1787   1.972   2.429   1.615
  534HOH      O 1788   0.066   1.278   3.538
  534HOH     H1 1789   0.025   1.241   3.460
  534HOH     H2 1790   0.159   1.258   3.529
  535HOH      O 1791   0.492   2.626   3.691
  535HOH     H1 1792   0.423   2.572   3.730
  535HOH     H2 1793   0.446   2.682   3.629
  536HOH      O 1794   1.124   3.251   1.391
  536HOH     H1 1795   1.100   3.258   1.299
  536HOH     H2 1796   1.188   3.320   1.405
  537HOH      O 1797   0.111   3.033   3.827
  537HOH     H1 1798   0.173   2.961   3.813
  537HOH     H2 1799   0.121   3.088   3.749
  538HOH      O 1800   1.866   2.880   3.254
  538HOH     H1 1801   1.936   2.916   3.200
  538HOH     H2 1802   1.907   2.863   3.338
  539HOH      O 1803   1.208   2.744   2.649
  539HOH     H1 1804   1.122   2.702   2.649
  539HOH     H2 1805   1.265   2.683   2.696
  540HOH      O 1806   3.621   2.607   3.657
  540HOH     H1 1807   3.563   2.682   3.670
  540HOH     H2 1808   3.561   2.532   3.650
  541HOH      O 1809   3.750   1.351   3.905
  541HOH     H1 1810   3.706   1.311   3.830
  541HOH     H2 1811   3.709   1.310   3.981
  542HOH      O 1812   1.707   2.208   2.720
  542HOH     H1 1813   1.615   2.225   2.699
  542HOH     H2 1814   1.755   2.261   2.656
  543HOH      O 1815   0.161   1.621   0.310
  543HOH     H1 1816   0.230   1.679   0.344
  543HOH     H2 1817   0.135   1.662   0.228
  544HOH      O 1818   1.173   0.152   1.274
  544HOH     H1 1819   1.225   0.095   1.330
  544HOH     H2 1820   1.179   0.112   1.187
  545HOH      O 1821   2.047   2.285   0.208
  545HOH     H1 1822   2.097   2.343   0.149
  545HOH     H2 1823   2.113   2.225   0.244
  546HOH      O 1824   2.738   2.768   1.336
  546HOH     H1 1825   2.818   2.820   1.338
  546HOH     H2 1826   2.738   2.720   1.419
  547HOH      O 1827   1.415   4.007   2.061
  547HOH     H1 1828   1.470   4.070   2.107
  547HOH     H2 1829   1.471   3.931   2.048
  548HOH      O 1830   3.089   1.604   3.856
  548HOH     H1 1831   3.115   1.620   3.765
  548HOH     H2 1832   3.021   1.537   3.851
  549HOH      O 1833   0.298   1.796   1.101
  549HOH     H1 1834   0.369   1.737   1.075
  549HOH     H2 1835   0.262   1.755   1.180
  550HOH      O 1836   0.860   1.386   2.181
  550HOH     H1 1837   0.916   1.464   2.183
  550HOH     H2 1838   0.798   1.403   2.111
  551HOH      O 1839   2.695   1.944   1.509
  551HOH     H1 1840   2.708   1.979   1.597
  551HOH     H2 1841   2.685   1.849   1.522
  552HOH      O 1842   0.662   2.949   1.093
  552HOH     H1 1843   0.631   2.950   1.003
  552HOH     H2 1844   0.700   2.862   1.105
  553HOH      O 1845   2.923   0.382   0.289
  553HOH     H1 1846   2.950   0.433   0.212
  553HOH     H2 1847   2.835   0.414   0.309
  554HOH      O 1848   0.055   3.380   2.997
  554HOH     H1 1849   0.067   3.291   3.031
  554HOH     H2 1850  -0.032   3.406   3.028
  555HOH      O 1851   0.656   0.857   3.064
  555HOH     H1 1852   0.689   0.902   2.986
  555HOH     H2 1853   0.733   0.817   3.103
  556HOH      O 1854   0.053   0.964   2.518
  556HOH     H1 1855   0.133   0.985   2.470
  556HOH     H2 1856   0.048   1.029   2.588
  557HOH      O 1857   3.269   0.506   1.963
  557HOH     H1 1858   3.328   0.519   1.889
  557HOH     H2 1859   3.286   0.416   1.991
  558HOH      O 1860   2.640   0.062   1.797
  558HOH     H1 1861   2.639   0.016   1.713
  558HOH     H2 1862   2.733   0.067   1.821
  559HOH      O 1863   1.450   2.275   2.724
  559HOH     H1 1864   1.405   2.351   2.761
  559HOH     H2 1865   1.390   2.202   2.739
  560HOH      O 1866   1.710   1.022   1.709
  560HOH     H1 1867   1.642   0.976   1.660
  560HOH     H2 1868   1.767   1.059   1.641
  561HOH      O 1869  -0.008   2.261   2.843
  561HOH     H1 1870   0.065   2.226   2.792
  561HOH     H2 1871   0.020   2.251   2.934
  562HOH      O 1872   1.193   2.708   1.185
  562HOH     H1 1873   1.224   2.754   1.107
  562HOH     H2 1874   1.273   2.687   1.234
  563HOH      O 1875   1.732   3.310   2.874
  563HOH     H1 1876   1.782   3.390   2.860
  563HOH     H2 1877   1.645   3.339   2.899
  564HOH      O 1878   2.757   2.761   1.761
  564HOH     H1 1879   2.840   2.808   1.758
  564HOH     H2 1880   2.693   2.828   1.786
  565HOH      O 1881   1.472   0.455   2.136
  565HOH     H1 1882   1.563   0.425   2.139
  565HOH     H2 1883   1.422   0.376   2.116
  566HOH      O 1884   1.746   0.473   1.812
  566HOH     H1 1885   1.796   0.450   1.890
  566HOH     H2 1886   1.739   0.568   1.815
  567HOH      O 1887   0.876   0.363   1.510
  567HOH     H1 1888   0.969   0.356   1.534
  567HOH     H2 1889   0.875   0.352   1.415
  568HOH      O 1890   1.350   1.853   0.955
  568HOH     H1 1891   1.334   1.924   0.893
  568HOH     H2 1892   1.425   1.882   1.006
  569HOH      O 1893   2.565   3.536   0.753
  569HOH     H1 1894   2.553   3.616   0.702
  569HOH     H2 1895   2.582   3.567   0.842
  570HOH      O 1896   3.941   0.434   0.878
  570HOH     H1 1897   3.980   0.507   0.829
  570HOH     H2 1898   3.945   0.462   0.970
  571HOH      O 1899   0.442   3.511   1.615
  571HOH     H1 1900   0.457   3.442   1.551
  571HOH     H2 1901   0.514   3.573   1.600
  572HOH      O 1902   0.930   2.535   3.063
  572HOH     H1 1903   1.017   2.498   3.075
  572HOH     H2 1904   0.883   2.512   3.144
  573HOH      O 1905   2.021   0.896   3.109
  573HOH     H1 1906   2.095   0.939   3.067
  573HOH     H2 1907   1.986   0.963   3.169
  574HOH      O 1908   0.649   3.770   4.017
  574HOH     H1 1909   0.701   3.735   3.945
  574HOH     H2 1910   0.618   3.855   3.984
  575HOH      O 1911   1.019   3.751   3.930
  575HOH     H1 1912   0.948   3.798   3.973
  575HOH     H2 1913   1.049   3.810   3.861
  576HOH      O 1914   2.249   0.222   1.715
  576HOH     H1 1915   2.264   0.208   1.622
  576HOH     H2 1916   2.293   0.149   1.758
  577HOH      O 1917   3.837   0.939   3.531
  577HOH     H1 1918   3.828   0.962   3.439
  577HOH     H2 1919   3.811   1.017   3.579
  578HOH      O 1920   0.641   3.424   0.644
  578HOH     H1 1921   0.698   3.500   0.658
  578HOH     H2 1922   0.586   3.450   0.570
  579HOH      O 1923   0.286   2.791   2.558
  579HOH     H1 1924   0.336   2.872   2.547
  579HOH     H2 1925   0.247   2.798   2.645
  580HOH      O 1926   1.688   0.686   3.205
  580HOH     H1 1927   1.611   0.637   3.233
  580HOH     H2 1928   1.721   0.727   3.285
  581HOH      O 1929   0.310   0.098   1.377
  581HOH     H1 1930   0.342   0.019   1.334
  581HOH     H2 1931   0.387   0.156   1.380
  582HOH      O 1932   0.048   0.790   0.360
  582HOH     H1 1933   0.042   0.720   0.424
  582HOH     H2 1934  -0.040   0.826   0.355
  583HOH      O 1935   3.541   0.287   0.651
  583HOH     H1 1936   3.489   0.253   0.578
  583HOH     H2 1937   3.603   0.217   0.670
  584HOH      O 1938   0.111   1.155   2.126
  584HOH     H1 1939   0.070   1.211   2.060
  584HOH     H2 1940   0.181   1.209   2.163
  585HOH      O 1941   1.389   1.477   1.156
  585HOH     H1 1942   1.444   1.533   1.211
  585HOH     H2 1943   1.429   1.390   1.162
  586HOH      O 1944   0.730   0.296   2.249
  586HOH     H1 1945   0.821   0.290   2.221
  586HOH     H2 1946   0.685   0.342   2.178
  587HOH      O 1947   2.438   0.751   2.510
  587HOH     H1 1948   2.411   0.755   2.418
  587HOH     H2 1949   2.459   0.659   2.525
  588HOH      O 1950   3.557   1.097   2.068
  588HOH     H1 1951   3.560   1.055   2.154
  588HOH     H2 1952   3.484   1.055   2.023
  589HOH      O 1953   3.410   1.842   2.235
  589HOH     H1 1954   3.443   1.860   2.323
  589HOH     H2 1955   3.340   1.906   2.222
  590HOH      O 1956   4.032   2.246   1.188
  590HOH     H1 1957   3.990   2.161   1.190
  590HOH     H2 1958   4.002   2.286   1.106
  591HOH      O 1959   1.176   3.881   2.904
  591HOH     H1 1960   1.129   3.860   2.823
  591HOH     H2 1961   1.212   3.797   2.933
  592HOH      O 1962   1.614   0.058   0.087
  592HOH     H1 1963   1.589  -0.023   0.043
  592HOH     H2 1964   1.545   0.073   0.151
  593HOH      O 1965   2.648   0.338   2.151
  593HOH     H1 1966   2.743   0.344   2.155
  593HOH     H2 1967   2.629   0.245   2.164
  594HOH      O 1968   3.518   0.050   1.743
  594HOH     H1 1969   3.521  -0.045   1.743
  594HOH     H2 1970   3.445   0.072   1.686
  595HOH      O 1971   3.414   1.338   1.964
  595HOH     H1 1972   3.486   1.280   1.988
  595HOH     H2 1973   3.389   1.309   1.876
  596HOH      O 1974   1.717   0.674   1.499
  596HOH     H1 1975   1.629   0.650   1.528
  596HOH     H2 1976   1.770   0.597   1.516
  597HOH      O 1977   3.071   3.839   3.174
  597HOH     H1 1978   3.127   3.914   3.155
  597HOH     H2 1979   3.086   3.820   3.266
  598HOH      O 1980   3.600   2.596   3.305
  598HOH     H1 1981   3.641   2.516   3.272
  598HOH     H2 1982   3.507   2.586   3.282
  599HOH      O 1983   2.790   3.495   2.548
  599HOH     H1 1984   2.833   3.561   2.495
  599HOH     H2 1985   2.743   3.544   2.615
  600HOH      O 1986   0.706   0.589   1.469
  600HOH     H1 1987   0.794   0.609   1.499
  600HOH     H2 1988   0.688   0.501   1.502
  601HOH      O 1989   3.301   3.278   1.241
  601HOH     H1 1990   3.392   3.263   1.268
  601HOH     H2 1991   3.303   3.274   1.146
  602HOH      O 1992   2.566   1.685   1.881
  602HOH     H1 1993   2.519   1.622   1.934
  602HOH     H2 1994   2.530   1.770   1.907
  603HOH      O 1995   0.397   1.139   1.085
  603HOH     H1 1996   0.466   1.147   1.020
  603HOH     H2 1997   0.317   1.126   1.034
  604HOH      O 1998   3.288   1.782   4.042
  604HOH     H1 1999   3.294   1.852   3.977
  604HOH     H2 2000   3.301   1.702   3.992
  605HOH      O 2001   2.597   1.376   1.089
  605HOH     H1 2002   2.558   1.456   1.122
  605HOH     H2 2003   2.523   1.325   1.056
  606HOH      O 2004   1.757   0.457   0.437
  606HOH     H1 2005   1.764   0.462   0.342
  606HOH     H2 2006   1.833   0.507   0.469
  607HOH      O 2007   1.804   3.570   2.553
  607HOH     H1 2008   1.767   3.538   2.471
  607HOH     H2 2009   1.772   3.660   2.561
  608HOH      O 2010   1.362   2.041   1.736
  608HOH     H1 2011   1.376   1.954   1.700
  608HOH     H2 2012   1.437   2.057   1.793
  609HOH      O 2013   0.037   0.197   3.028
  609HOH     H1 2014   0.008   0.174   3.117
  609HOH     H2 2015   0.131   0.210   3.036
  610HOH      O 2016   2.223   2.983   3.833
  610HOH     H1 2017   2.231   2.910   3.895
  610HOH     H2 2018   2.154   2.955   3.772
  611HOH      O 2019  -0.010   2.701   0.391
  611HOH     H1 2020   0.080   2.698   0.358
  611HOH     H2 2021  -0.063   2.716   0.312
  612HOH      O 2022   0.456   0.760   0.924
  612HOH     H1 2023   0.446   0.778   1.017
  612HOH     H2 2024   0.540   0.799   0.901
  613HOH      O 2025   1.728   1.955   1.379
  613HOH     H1 2026   1.732   2.048   1.357
  613HOH     H2 2027   1.797   1.915   1.326
  614HOH      O 2028   1.729   3.576   3.952
  614HOH     H1 2029   1.820   3.602   3.958
  614HOH     H2 2030   1.712   3.526   4.032
  615HOH      O 2031   2.731   3.036   3.802
  615HOH     H1 2032   2.723   2.994   3.888
  615HOH     H2 2033   2.657   3.003   3.752
  616HOH      O 2034   1.376   3.060   3.100
  616HOH     H1 2035   1.454   3.007   3.117
  616HOH     H2 2036   1.355   3.099   3.185
  617HOH      O 2037   3.003   3.937   3.706
  617HOH     H1 2038   3.030   3.926   3.797
  617HOH     H2 2039   2.961   4.023   3.704
  618HOH      O 2040   3.419   0.324   2.376
  618HOH     H1 2041   3.327   0.340   2.352
  618HOH     H2 2042   3.435   0.384   2.448
  619HOH      O 2043   0.988   0.438   3.254
  619HOH     H1 2044   0.964   0.357   3.209
  619HOH     H2 2045   1.027   0.493   3.185
  620HOH      O 2046   3.368   0.143   1.356
  620HOH     H1 2047   3.463   0.133   1.360
  620HOH     H2 2048   3.335   0.080   1.420
  621HOH      O 2049   0.507   1.616   2.584
  621HOH     H1 2050   0.552   1.660   2.511
  621HOH     H2 2051   0.531   1.668   2.661
  622HOH      O 2052   0.571   0.034   0.840
  622HOH     H1 2053   0.651   0.069   0.879
  622HOH     H2 2054   0.503   0.098   0.863
  623HOH      O 2055   0.659   2.175   0.257
  623HOH     H1 2056   0.642   2.115   0.330
  623HOH     H2 2057   0.601   2.145   0.187
  624HOH      O 2058   0.282   3.443   3.765
  624HOH     H1 2059   0.375   3.455   3.746
  624HOH     H2 2060   0.238   3.508   3.710
  625HOH      O 2061   2.416   0.817   1.506
  625HOH     H1 2062   2.341   0.762   1.485
  625HOH     H2 2063   2.491   0.768   1.474
  626HOH      O 2064   2.292   0.433   2.932
  626HOH     H1 2065   2.256   0.512   2.973
  626HOH     H2 2066   2.344   0.465   2.859
  627HOH      O 2067   0.237   2.793   1.546
  627HOH     H1 2068   0.153   2.754   1.523
  627HOH     H2 2069   0.232   2.807   1.641
  628HOH      O 2070   3.118   2.908   2.444
  628HOH     H1 2071   3.161   2.835   2.490
  628HOH     H2 2072   3.077   2.959   2.514
  629HOH      O 2073   3.191   1.206   1.795
  629HOH     H1 2074   3.118   1.159   1.834
  629HOH     H2 2075   3.167   1.216   1.703
  630HOH      O 2076   0.805   0.025   2.311
  630HOH     H1 2077   0.858   0.094   2.270
  630HOH     H2 2078   0.719   0.034   2.271
  631HOH      O 2079   3.145   0.278   2.845
  631HOH     H1 2080   3.059   0.240   2.827
  631HOH     H2 2081   3.202   0.243   2.776
  632HOH      O 2082   2.716   1.013   2.016
  632HOH     H1 2083   2.748   1.062   2.093
  632HOH     H2 2084   2.636   1.059   1.990
  633HOH      O 2085   1.082   3.008   2.871
  633HOH     H1 2086   1.095   2.917   2.845
  633HOH     H2 2087   1.162   3.031   2.917
  634HOH      O 2088   1.503   2.326   3.917
  634HOH     H1 2089   1.536   2.346   3.830
  634HOH     H2 2090   1.579   2.336   3.975
  635HOH      O 2091   3.709   2.136   1.956
  635HOH     H1 2092   3.776   2.143   1.888
  635HOH     H2 2093   3.667   2.222   1.956
  636HOH      O 2094   1.924   0.910   2.501
  636HOH     H1 2095   1.927   0.944   2.591
  636HOH     H2 2096   1.982   0.833   2.503
  637HOH      O 2097   1.211   1.062   0.742
  637HOH     H1 2098   1.306   1.054   0.736
  637HOH     H2 2099   1.177   0.997   0.680
  638HOH      O 2100   1.082   2.668   1.796
  638HOH     H1 2101   1.116   2.614   1.868
  638HOH     H2 2102   1.034   2.607   1.741
  639HOH      O 2103   2.113   3.408   2.197
  639HOH     H1 2104   2.054   3.441   2.130
  639HOH     H2 2105   2.147   3.486   2.240
  640HOH      O 2106   3.919   0.078   3.265
  640HOH     H1 2107   3.827   0.052   3.255
  640HOH     H2 2108   3.926   0.110   3.355
  641HOH      O 2109   1.911   1.372   0.026
  641HOH     H1 2110   2.003   1.397   0.038
  641HOH     H2 2111   1.904   1.285   0.065
  642HOH      O 2112   3.002   0.449   3.733
  642HOH     H1 2113   2.955   0.508   3.792
  642HOH     H2 2114   3.078   0.420   3.784
  643HOH      O 2115   0.802   2.049   0.572
  643HOH     H1 2116   0.781   1.957   0.557
  643HOH     H2 2117   0.896   2.049   0.589
  644HOH      O 2118   0.581   2.794   0.213
  644HOH     H1 2119   0.576   2.799   0.118
  644HOH     H2 2120   0.598   2.884   0.241
  645HOH      O 2121   3.924   3.859   2.561
  645HOH     H1 2122   3.881   3.901   2.635
  645HOH     H2 2123   3.935   3.929   2.496
  646HOH      O 2124   1.265   0.509   1.033
  646HOH     H1 2125   1.284   0.490   1.125
  646HOH     H2 2126   1.240   0.601   1.032
  647HOH      O 2127   3.719   0.420   3.197
  647HOH     H1 2128   3.669   0.352   3.243
  647HOH     H2 2129   3.679   0.424   3.110
  648HOH      O 2130   2.292   0.776   3.700
  648HOH     H1 2131   2.323   0.707   3.760
  648HOH     H2 2132   2.354   0.772   3.627
  649HOH      O 2133   1.702   1.206   1.412
  649HOH     H1 2134   1.717   1.112   1.398
  649HOH     H2 2135   1.785   1.239   1.445
  650HOH      O 2136   0.808   2.915   3.965
  650HOH     H1 2137   0.859   2.893   3.887
  650HOH     H2 2138   0.756   2.837   3.983
  651HOH      O 2139   3.337   3.568   1.415
  651HOH     H1 2140   3.395   3.643   1.400
  651HOH     H2 2141   3.364   3.504   1.350
  652HOH      O 2142   3.844   3.314   2.439
  652HOH     H1 2143   3.882   3.400   2.458
  652HOH     H2 2144   3.916   3.263   2.401
  653HOH      O 2145   0.534   0.406   0.081
  653HOH     H1 2146   0.458   0.402   0.023
  653HOH     H2 2147   0.575   0.490   0.060
  654HOH      O 2148   1.257   1.685   2.919
  654HOH     H1 2149   1.240   1.702   2.826
  654HOH     H2 2150   1.333   1.739   2.940
  655HOH      O 2151   0.174   1.390   2.280
  655HOH     H1 2152   0.123   1.448   2.224
  655HOH     H2 2153   0.265   1.413   2.263
  656HOH      O 2154   3.457   1.226   1.034
  656HOH     H1 2155   3.530   1.245   1.092
  656HOH     H2 2156   3.412   1.153   1.076
  657HOH      O 2157   2.575   0.990   2.379
  657HOH     H1 2158   2.554   0.897   2.370
  657HOH     H2 2159   2.671   0.994   2.371
  658HOH      O 2160   0.659   0.660   2.263
  658HOH     H1 2161   0.602   0.584   2.252
  658HOH     H2 2162   0.658   0.703   2.177
  659HOH      O 2163   1.757   3.780   3.656
  659HOH     H1 2164   1.828   3.788   3.719
  659HOH     H2 2165   1.769   3.693   3.617
  660HOH      O 2166   1.697   3.254   0.807
  660HOH     H1 2167   1.653   3.220   0.729
  660HOH     H2 2168   1.756   3.184   0.834
  661HOH      O 2169   0.553   3.387   1.011
  661HOH     H1 2170   0.526   3.429   0.930
  661HOH     H2 2171   0.649   3.381   1.005
  662HOH      O 2172   0.804   2.038   1.042
  662HOH     H1 2173   0.835   2.046   1.133
  662HOH     H2 2174   0.753   2.118   1.028
  663HOH      O 2175   1.880   0.100   1.108
  663HOH     H1 2176   1.820   0.025   1.109
  663HOH     H2 2177   1.963   0.064   1.075
  664HOH      O 2178   1.819   0.747   2.974
  664HOH     H1 2179   1.905   0.787   2.990
  664HOH     H2 2180   1.787   0.723   3.061
  665HOH      O 2181   2.001   2.062   1.442
  665HOH     H1 2182   2.022   1.975   1.409
  665HOH     H2 2183   2.080   2.090   1.488
  666HOH      O 2184   0.252   2.252  -0.011
  666HOH     H1 2185   0.320   2.205   0.038
  666HOH     H2 2186   0.186   2.275   0.055
  667HOH      O 2187   3.789   1.250   2.105
  667HOH     H1 2188   3.704   1.212   2.087
  667HOH     H2 2189   3.835   1.183   2.156
  668HOH      O 2190   2.939   0.237   1.145
  668HOH     H1 2191   2.938   0.303   1.213
  668HOH     H2 2192   2.951   0.154   1.192
  669HOH      O 2193   2.129   3.671   1.367
  669HOH     H1 2194   2.066   3.728   1.323
  669HOH     H2 2195   2.159   3.611   1.298
  670HOH      O 2196   1.842   2.228   2.289
  670HOH     H1 2197   1.845   2.311   2.242
  670HOH     H2 2198   1.849   2.253   2.381
  671HOH      O 2199   0.195   1.031   0.925
  671HOH     H1 2200   0.242   0.994   0.850
  671HOH     H2 2201   0.143   0.959   0.960
  672HOH      O 2202   0.553   0.418   0.891
  672HOH     H1 2203   0.539   0.475   0.816
  672HOH     H2 2204   0.529   0.331   0.861
  673HOH      O 2205   2.245   3.475   2.654
  673HOH     H1 2206   2.263   3.474   2.748
  673HOH     H2 2207   2.318   3.426   2.616
  674HOH      O 2208   3.030   2.307   1.150
  674HOH     H1 2209   2.996   2.301   1.061
  674HOH     H2 2210   2.973   2.250   1.202
  675HOH      O 2211   2.040   1.668   2.144
  675HOH     H1 2212   2.111   1.637   2.200
  675HOH     H2 2213   1.969   1.689   2.206
  676HOH      O 2214   0.997   4.010   2.488
  676HOH     H1 2215   0.937   4.003   2.414
  676HOH     H2 2216   0.945   4.053   2.556
  677HOH      O 2217   2.569   3.806   3.848
  677HOH     H1 2218   2.615   3.867   3.905
  677HOH     H2 2219   2.490   3.853   3.820
  678HOH      O 2220   1.806   2.880   2.808
  678HOH     H1 2221   1.751   2.836   2.744
  678HOH     H2 2222   1.815   2.969   2.774
  679HOH      O 2223   1.495   1.787   3.368
  679HOH     H1 2224   1.537   1.743   3.294
  679HOH     H2 2225   1.567   1.828   3.416
  680HOH      O 2226   1.673   1.561   2.739
  680HOH     H1 2227   1.713   1.477   2.715
  680HOH     H2 2228   1.620   1.542   2.816
  681HOH      O 2229   0.711   1.471   1.972
  681HOH     H1 2230   0.714   1.567   1.976
  681HOH     H2 2231   0.696   1.452   1.879
  682HOH      O 2232   2.505   2.160   2.933
  682HOH     H1 2233   2.476   2.151   2.842
  682HOH     H2 2234   2.460   2.089   2.979
  683HOH      O 2235   2.351   3.422   0.656
  683HOH     H1 2236   2.367   3.433   0.562
  683HOH     H2 2237   2.433   3.447   0.697
  684HOH      O 2238   2.119   0.666   2.894
  684HOH     H1 2239   2.062   0.654   2.818
  684HOH     H2 2240   2.141   0.759   2.894
  685HOH      O 2241   3.789   3.370   3.700
  685HOH     H1 2242   3.835   3.386   3.618
  685HOH     H2 2243   3.710   3.424   3.695
  686HOH      O 2244   0.004   0.958   1.877
  686HOH     H1 2245  -0.014   1.052   1.874
  686HOH     H2 2246   0.097   0.951   1.894
  687HOH      O 2247   3.317   1.534   2.502
  687HOH     H1 2248   3.389   1.533   2.439
  687HOH     H2 2249   3.356   1.568   2.583
  688HOH      O 2250   2.754   3.641   0.056
  688HOH     H1 2251   2.794   3.714   0.104
  688HOH     H2 2252   2.827   3.588   0.026
  689HOH      O 2253   2.100   1.162   1.855
  689HOH     H1 2254   2.149   1.176   1.774
  689HOH     H2 2255   2.129   1.232   1.913
  690HOH      O 2256   3.930   1.034   0.254
  690HOH     H1 2257   3.902   1.118   0.217
  690HOH     H2 2258   4.025   1.043   0.263
  691HOH      O 2259   3.321   1.508   1.227
  691HOH     H1 2260   3.226   1.507   1.234
  691HOH     H2 2261   3.338   1.514   1.133
  692HOH      O 2262   2.304   2.094   0.510
  692HOH     H1 2263   2.346   2.130   0.432
  692HOH     H2 2264   2.279   2.171   0.561
  693HOH      O 2265   0.709   0.699   0.698
  693HOH     H1 2266   0.767   0.746   0.638
  693HOH     H2 2267   0.708   0.752   0.778
  694HOH      O 2268   3.098   1.178   3.976
  694HOH     H1 2269   3.010   1.207   4.000
  694HOH     H2 2270   3.128   1.126   4.050
  695HOH      O 2271   1.709   0.040   1.714
  695HOH     H1 2272   1.758   0.069   1.637
  695HOH     H2 2273   1.767   0.059   1.788
  696HOH      O 2274   3.294   3.502   1.684
  696HOH     H1 2275   3.313   3.542   1.599
  696HOH     H2 2276   3.319   3.411   1.674
  697HOH      O 2277   3.007   0.837   2.790
  697HOH     H1 2278   2.947   0.844   2.716
  697HOH     H2 2279   3.038   0.747   2.787
  698HOH      O 2280   2.131   0.045   3.758
  698HOH     H1 2281   2.061   0.026   3.820
  698HOH     H2 2282   2.101   0.007   3.675
  699HOH      O 2283   0.610   2.683   1.964
  699HOH     H1 2284   0.700   2.700   1.934
  699HOH     H2 2285   0.615   2.689   2.059
  700HOH      O 2286   2.941   0.447   1.311
  700HOH     H1 2287   2.957   0.539   1.291
  700HOH     H2 2288   3.022   0.416   1.351
  701HOH      O 2289   1.914   1.109   0.132
  701HOH     H1 2290   1.956   1.102   0.218
  701HOH     H2 2291   1.985   1.093   0.070
  702HOH      O 2292   0.118   3.906   3.505
  702HOH     H1 2293   0.136   3.871   3.418
  702HOH     H2 2294   0.105   4.000   3.491
  703HOH      O 2295   0.970   1.175   1.799
  703HOH     H1 2296   1.035   1.245   1.808
  703HOH     H2 2297   0.980   1.122   1.878
  704HOH      O 2298   1.749   3.475   2.309
  704HOH     H1 2299   1.790   3.400   2.265
  704HOH     H2 2300   1.680   3.502   2.249
  705HOH      O 2301   2.627   1.993   0.686
  705HOH     H1 2302   2.699   2.053   0.665
  705HOH     H2 2303   2.551   2.029   0.640
  706HOH      O 2304   3.123   2.485   1.710
  706HOH     H1 2305   3.169   2.415   1.756
  706HOH     H2 2306   3.180   2.507   1.637
  707HOH      O 2307   3.135   0.264   0.948
  707HOH     H1 2308   3.097   0.331   0.892
  707HOH     H2 2309   3.096   0.279   1.034
  708HOH      O 2310   2.305   2.507   1.736
  708HOH     H1 2311   2.383   2.526   1.788
  708HOH     H2 2312   2.276   2.593   1.704
  709HOH      O 2313   1.577   1.088   2.756
  709HOH     H1 2314   1.559   1.039   2.675
  709HOH     H2 2315   1.604   1.021   2.818
  710HOH      O 2316   2.656   3.381   2.991
  710HOH     H1 2317   2.589   3.324   3.029
  710HOH     H2 2318   2.693   3.329   2.920
  711HOH      O 2319   1.693   1.137   3.624
  711HOH     H1 2320   1.661   1.205   3.684
  711HOH     H2 2321   1.683   1.056   3.673
  712HOH      O 2322   3.450   1.856   2.528
  712HOH     H1 2323   3.531   1.868   2.579
  712HOH     H2 2324   3.394   1.802   2.584
  713HOH      O 2325   2.839   1.455   3.317
  713HOH     H1 2326   2.863   1.431   3.406
  713HOH     H2 2327   2.847   1.373   3.267
  714HOH      O 2328   0.198   2.531   2.628
  714HOH     H1 2329   0.122   2.550   2.683
  714HOH     H2 2330   0.215   2.612   2.581
  715HOH      O 2331   2.286   1.279   2.480
  715HOH     H1 2332   2.376   1.298   2.507
  715HOH     H2 2333   2.293   1.255   2.387
  716HOH      O 2334   2.440   2.791   0.484
  716HOH     H1 2335   2.453   2.746   0.568
  716HOH     H2 2336   2.466   2.726   0.419
  717HOH      O 2337   3.542   0.961   3.376
  717HOH     H1 2338   3.633   0.979   3.352
  717HOH     H2 2339   3.500   0.935   3.294
  718HOH      O 2340   0.899   2.075   2.551
  718HOH     H1 2341   0.975   2.093   2.607
  718HOH     H2 2342   0.881   1.982   2.566
  719HOH      O 2343   1.658   0.492   2.994
  719HOH     H1 2344   1.598   0.536   3.054
  719HOH     H2 2345   1.733   0.551   2.989
  720HOH      O 2346   3.318   3.888   0.481
  720HOH     H1 2347   3.296   3.805   0.439
  720HOH     H2 2348   3.338   3.865   0.572
  721HOH      O 2349   3.836   3.488   3.067
  721HOH     H1 2350   3.827   3.578   3.034
  721HOH     H2 2351   3.756   3.472   3.117
  722HOH      O 2352   1.498   3.016   3.958
  722HOH     H1 2353   1.543   3.094   3.925
  722HOH     H2 2354   1.407   3.029   3.933
  723HOH      O 2355   1.365   3.691   1.647
  723HOH     H1 2356   1.386   3.775   1.688
  723HOH     H2 2357   1.443   3.669   1.596
  724HOH      O 2358   2.174   0.124   2.386
  724HOH     H1 2359   2.247   0.081   2.432
  724HOH     H2 2360   2.100   0.065   2.398
  725HOH      O 2361   3.063   3.597   1.787
  725HOH     H1 2362   3.009   3.539   1.734
  725HOH     H2 2363   3.150   3.557   1.785
  726HOH      O 2364   1.351   3.462   1.409
  726HOH     H1 2365   1.402   3.404   1.465
  726HOH     H2 2366   1.316   3.528   1.468
  727HOH      O 2367   1.138   2.576   2.223
  727HOH     H1 2368   1.201   2.545   2.287
  727HOH     H2 2369   1.136   2.507   2.156
  728HOH      O 2370   0.278   1.489   2.688
  728HOH     H1 2371   0.260   1.530   2.773
  728HOH     H2 2372   0.366   1.519   2.666
  729HOH      O 2373   1.797   2.909   0.632
  729HOH     H1 2374   1.802   2.914   0.537
  729HOH     H2 2375   1.825   2.819   0.652
  730HOH      O 2376   1.730   1.770   1.776
  730HOH     H1 2377   1.811   1.821   1.771
  730HOH     H2 2378   1.663   1.834   1.798
  731HOH      O 2379   1.063   2.045   0.714
  731HOH     H1 2380   1.088   2.118   0.770
  731HOH     H2 2381   1.039   1.975   0.776
  732HOH      O 2382   0.328   1.052   2.775
  732HOH     H1 2383   0.364   0.965   2.757
  732HOH     H2 2384   0.234   1.041   2.767
  733HOH      O 2385   2.465   2.916   2.448
  733HOH     H1 2386   2.388   2.908   2.391
  733HOH     H2 2387   2.430   2.953   2.529
  734HOH      O 2388   0.525   1.385   3.854
  734HOH     H1 2389   0.549   1.377   3.762
  734HOH     H2 2390   0.594   1.339   3.901
  735HOH      O 2391   1.029   3.545   2.546
  735HOH     H1 2392   0.993   3.487   2.614
  735HOH     H2 2393   0.960   3.551   2.481
  736HOH      O 2394   0.848   0.112   2.667
  736HOH     H1 2395   0.772   0.070   2.628
  736HOH     H2 2396   0.821   0.203   2.682
  737HOH      O 2397   1.718   0.752   1.843
  737HOH     H1 2398   1.623   0.742   1.856
  737HOH     H2 2399   1.735   0.844   1.864
  738HOH      O 2400   3.803   4.011   4.013
  738HOH     H1 2401   3.724   4.053   4.047
  738HOH     H2 2402   3.782   3.990   3.922
  739HOH      O 2403   1.778   1.877   3.017
  739HOH     H1 2404   1.752   1.829   3.095
  739HOH     H2 2405   1.804   1.963   3.049
  740HOH      O 2406   2.485   1.495   1.491
  740HOH     H1 2407   2.471   1.521   1.400
  740HOH     H2 2408   2.573   1.528   1.512
  741HOH      O 2409   1.346   3.551   3.837
  741HOH     H1 2410   1.261   3.510   3.848
  741HOH     H2 2411   1.328   3.629   3.783
  742HOH      O 2412   0.500   3.239   0.303
  742HOH     H1 2413   0.445   3.282   0.239
  742HOH     H2 2414   0.523   3.308   0.365
  743HOH      O 2415   0.478   3.906   0.315
  743HOH     H1 2416   0.478   3.915   0.410
  743HOH     H2 2417   0.472   3.811   0.301
  744HOH      O 2418   2.133   3.579   2.933
  744HOH     H1 2419   2.042   3.575   2.905
  744HOH     H2 2420   2.128   3.594   3.027
  745HOH      O 2421   3.031   1.276   0.839
  745HOH     H1 2422   2.936   1.280   0.853
  745HOH     H2 2423   3.064   1.227   0.915
  746HOH      O 2424   3.500   3.860   3.561
  746HOH     H1 2425   3.466   3.774   3.586
  746HOH     H2 2426   3.428   3.902   3.514
  747HOH      O 2427   2.673   1.698   1.609
  747HOH     H1 2428   2.604   1.683   1.673
  747HOH     H2 2429   2.755   1.681   1.656
  748HOH      O 2430   0.975   0.283   0.336
  748HOH     H1 2431   1.027   0.353   0.374
  748HOH     H2 2432   0.913   0.328   0.278
  749HOH      O 2433   2.472   3.005   3.650
  749HOH     H1 2434   2.411   2.955   3.704
  749HOH     H2 2435   2.416   3.061   3.596
  750HOH      O 2436   0.935   0.985   1.990
  750HOH     H1 2437   0.946   0.892   1.967
  750HOH     H2 2438   0.914   0.984   2.083
  751HOH      O 2439   1.400   2.168   2.456
  751HOH     H1 2440   1.484   2.138   2.422
  751HOH     H2 2441   1.421   2.214   2.537
  752HOH      O 2442   2.258   1.891   1.994
  752HOH     H1 2443   2.348   1.915   1.970
  752HOH     H2 2444   2.269   1.821   2.059
  753HOH      O 2445   1.513   0.633   1.271
  753HOH     H1 2446   1.489   0.607   1.360
  753HOH     H2 2447   1.435   0.677   1.237
  754HOH      O 2448   0.355   0.541   3.346
  754HOH     H1 2449   0.377   0.527   3.254
  754HOH     H2 2450   0.283   0.603   3.344
  755HOH      O 2451   1.916   0.139   0.717
  755HOH     H1 2452   1.875   0.166   0.635
  755HOH     H2 2453   1.901   0.044   0.722
  756HOH      O 2454   0.865   2.262   1.956
  756HOH     H1 2455   0.937   2.204   1.930
  756HOH     H2 2456   0.820   2.281   1.874
  757HOH      O 2457   0.110   2.169   3.641
  757HOH     H1 2458   0.174   2.182   3.572
  757HOH     H2 2459   0.100   2.255   3.682
  758HOH      O 2460   2.968   1.307   3.547
  758HOH     H1 2461   3.039   1.274   3.601
  758HOH     H2 2462   2.891   1.305   3.604
  759HOH      O 2463   0.887   2.122   1.329
  759HOH     H1 2464   0.802   2.166   1.335
  759HOH     H2 2465   0.945   2.188   1.292
  760HOH      O 2466   3.754   2.004   3.691
  760HOH     H1 2467   3.660   2.015   3.674
  760HOH     H2 2468   3.761   2.001   3.786
  761HOH      O 2469   1.649   0.923   2.340
  761HOH     H1 2470   1.718   0.875   2.294
  761HOH     H2 2471   1.693   1.001   2.374
  762HOH      O 2472   3.087   1.650   2.810
  762HOH     H1 2473   3.015   1.662   2.873
  762HOH     H2 2474   3.139   1.579   2.848
  763HOH      O 2475   3.518   1.859   0.147
  763HOH     H1 2476   3.435   1.833   0.108
  763HOH     H2 2477   3.541   1.786   0.205
  764HOH      O 2478   1.132   3.816   0.224
  764HOH     H1 2479   1.044   3.785   0.206
  764HOH     H2 2480   1.173   3.743   0.271
  765HOH      O 2481   1.831   3.826   2.812
  765HOH     H1 2482   1.787   3.859   2.733
  765HOH     H2 2483   1.770   3.846   2.883
  766HOH      O 2484   2.487   3.950   0.835
  766HOH     H1 2485   2.480   3.938   0.930
  766HOH     H2 2486   2.530   3.871   0.804
  767HOH      O 2487   0.201   3.557   3.538
  767HOH     H1 2488   0.218   3.532   3.448
  767HOH     H2 2489   0.112   3.593   3.537
  768HOH      O 2490   3.353   3.156   0.639
  768HOH     H1 2491   3.431   3.123   0.594
  768HOH     H2 2492   3.350   3.107   0.721
  769HOH      O 2493   1.837   2.476   3.782
  769HOH     H1 2494   1.769   2.456   3.717
  769HOH     H2 2495   1.919   2.457   3.737
  770HOH      O 2496   2.553   0.314   1.711
  770HOH     H1 2497   2.582   0.228   1.741
  770HOH     H2 2498   2.548   0.367   1.790
  771HOH      O 2499   0.495   0.289   1.877
  771HOH     H1 2500   0.426   0.289   1.943
  771HOH     H2 2501   0.512   0.196   1.859
  772HOH      O 2502   2.310   2.536   1.099
  772HOH     H1 2503   2.371   2.607   1.116
  772HOH     H2 2504   2.235   2.578   1.058
  773HOH      O 2505   3.977   1.180   0.609
  773HOH     H1 2506   4.058   1.229   0.623
  773HOH     H2 2507   3.910   1.232   0.653
  774HOH      O 2508   3.902   0.787   3.137
  774HOH     H1 2509   3.837   0.761   3.071
  774HOH     H2 2510   3.934   0.704   3.173
  775HOH      O 2511   3.393   2.961   3.133
  775HOH     H1 2512   3.430   2.982   3.047
  775HOH     H2 2513   3.319   2.904   3.114
  776HOH      O 2514   3.908   2.179   3.248
  776HOH     H1 2515   3.877   2.150   3.334
  776HOH     H2 2516   3.834   2.162   3.189
  777HOH      O 2517   0.817   1.553   3.646
  777HOH     H1 2518   0.902   1.597   3.649
  777HOH     H2 2519   0.794   1.551   3.553
  778HOH      O 2520   3.296   3.133   2.677
  778HOH     H1 2521   3.202   3.125   2.660
  778HOH     H2 2522   3.325   3.205   2.622
  779HOH      O 2523   0.922   3.083   0.972
  779HOH     H1 2524   0.949   3.036   0.893
  779HOH     H2 2525   0.920   3.016   1.040
  780HOH      O 2526   3.480   3.069   2.869
  780HOH     H1 2527   3.420   3.139   2.841
  780HOH     H2 2528   3.436   2.988   2.845
  781HOH      O 2529   0.498   3.512   0.415
  781HOH     H1 2530   0.446   3.582   0.455
  781HOH     H2 2531   0.496   3.532   0.321
  782HOH      O 2532   2.197   1.711   2.424
  782HOH     H1 2533   2.274   1.665   2.457
  782HOH     H2 2534   2.138   1.716   2.500
  783HOH      O 2535   1.382   0.601   3.761
  783HOH     H1 2536   1.323   0.526   3.770
  783HOH     H2 2537   1.325   0.676   3.750
  784HOH      O 2538   2.575   1.874   1.181
  784HOH     H1 2539   2.522   1.881   1.261
  784HOH     H2 2540   2.543   1.944   1.125
  785HOH      O 2541   3.010   0.909   3.841
  785HOH     H1 2542   3.069   0.974   3.881
  785HOH     H2 2543   3.060   0.876   3.767
  786HOH      O 2544   3.282   2.694   3.511
  786HOH     H1 2545   3.292   2.634   3.437
  786HOH     H2 2546   3.333   2.771   3.487
  787HOH      O 2547   0.979   0.401   3.563
  787HOH     H1 2548   1.018   0.391   3.650
  787HOH     H2 2549   1.028   0.341   3.507
  788HOH      O 2550   1.286   2.419   2.402
  788HOH     H1 2551   1.195   2.405   2.427
  788HOH     H2 2552   1.325   2.332   2.405
  789HOH      O 2553   1.391   2.373   0.555
  789HOH     H1 2554   1.326   2.432   0.593
  789HOH     H2 2555   1.448   2.349   0.628
  790HOH      O 2556   2.458   2.352   1.443
  790HOH     H1 2557   2.534   2.407   1.423
  790HOH     H2 2558   2.484   2.302   1.520
  791HOH      O 2559   3.535   3.716   1.713
  791HOH     H1 2560   3.568   3.632   1.680
  791HOH     H2 2561   3.605   3.748   1.770
  792HOH      O 2562   2.412   1.230   0.869
  792HOH     H1 2563   2.485   1.169   0.858
  792HOH     H2 2564   2.400   1.269   0.783
  793HOH      O 2565   3.152   2.605   2.254
  793HOH     H1 2566   3.164   2.644   2.341
  793HOH     H2 2567   3.058   2.593   2.246
  794HOH      O 2568   0.052   1.433   2.517
  794HOH     H1 2569   0.121   1.447   2.582
  794HOH     H2 2570   0.100   1.414   2.436
  795HOH      O 2571   3.506   2.375   1.030
  795HOH     H1 2572   3.532   2.407   1.116
  795HOH     H2 2573   3.424   2.420   1.011
  796HOH      O 2574   3.653   1.443   2.379
  796HOH     H1 2575   3.572   1.469   2.334
  796HOH     H2 2576   3.648   1.348   2.385
  797HOH      O 2577   3.854   0.752   2.223
  797HOH     H1 2578   3.872   0.844   2.238
  797HOH     H2 2579   3.930   0.720   2.174
  798HOH      O 2580   3.179   2.901   3.735
  798HOH     H1 2581   3.115   2.968   3.712
  798HOH     H2 2582   3.147   2.821   3.695
  799HOH      O 2583   3.146   3.825   1.642
  799HOH     H1 2584   3.199   3.851   1.718
  799HOH     H2 2585   3.103   3.744   1.669
  800HOH      O 2586   2.456   0.393   1.484
  800HOH     H1 2587   2.471   0.375   1.577
  800HOH     H2 2588   2.370   0.436   1.482
  801HOH      O 2589   1.170   2.089   0.474
  801HOH     H1 2590   1.146   2.064   0.563
  801HOH     H2 2591   1.266   2.095   0.475
  802HOH      O 2592   1.694   1.891   0.748
  802HOH     H1 2593   1.653   1.822   0.801
  802HOH     H2 2594   1.709   1.849   0.663
  803HOH      O 2595   1.886   2.551   0.175
  803HOH     H1 2596   1.971   2.552   0.218
  803HOH     H2 2597   1.856   2.642   0.179
  804HOH      O 2598   3.840   2.156   1.686
  804HOH     H1 2599   3.905   2.124   1.624
  804HOH     H2 2600   3.783   2.081   1.702
  805HOH      O 2601   3.508   3.888   1.088
  805HOH     H1 2602   3.417   3.871   1.111
  805HOH     H2 2603   3.548   3.801   1.082
  806HOH      O 2604   1.716   3.883   2.305
  806HOH     H1 2605   1.678   3.854   2.222
  806HOH     H2 2606   1.798   3.834   2.312
  807HOH      O 2607   2.542   3.297   2.224
  807HOH     H1 2608   2.585   3.216   2.198
  807HOH     H2 2609   2.462   3.269   2.269
  808HOH      O 2610   3.851   2.243   3.770
  808HOH     H1 2611   3.859   2.252   3.865
  808HOH     H2 2612   3.834   2.150   3.756
  809HOH      O 2613   1.734   1.915   2.072
  809HOH     H1 2614   1.783   1.854   2.128
  809HOH     H2 2615   1.790   1.992   2.066
  810HOH      O 2616   1.255   1.396   2.933
  810HOH     H1 2617   1.218   1.482   2.953
  810HOH     H2 2618   1.192   1.333   2.967
  811HOH      O 2619   2.136   2.825   0.485
  811HOH     H1 2620   2.140   2.914   0.521
  811HOH     H2 2621   2.227   2.804   0.465
  812HOH      O 2622   1.599   2.840   2.657
  812HOH     H1 2623   1.572   2.752   2.631
  812HOH     H2 2624   1.628   2.881   2.575
  813HOH      O 2625   1.097   3.108   3.350
  813HOH     H1 2626   1.192   3.106   3.343
  813HOH     H2 2627   1.067   3.039   3.290
  814HOH      O 2628   3.605   0.207  -0.014
  814HOH     H1 2629   3.683   0.211   0.040
  814HOH     H2 2630   3.536   0.248   0.039
  815HOH      O 2631   1.827   1.113   1.946
  815HOH     H1 2632   1.778   1.107   1.864
  815HOH     H2 2633   1.918   1.126   1.919
  816HOH      O 2634   1.114   3.284   1.095
  816HOH     H1 2635   1.054   3.258   1.025
  816HOH     H2 2636   1.169   3.207   1.110
  817HOH      O 2637   3.624   1.673   3.871
  817HOH     H1 2638   3.541   1.633   3.897
  817HOH     H2 2639   3.617   1.764   3.900
  818HOH      O 2640   3.517   2.226   0.792
  818HOH     H1 2641   3.516   2.256   0.883
  818HOH     H2 2642   3.559   2.297   0.744
  819HOH      O 2643   1.684   2.784   1.917
  819HOH     H1 2644   1.698   2.803   2.010
  819HOH     H2 2645   1.652   2.866   1.880
  820HOH      O 2646   1.604   3.228   1.975
  820HOH     H1 2647   1.649   3.174   1.911
  820HOH     H2 2648   1.584   3.167   2.047
  821HOH      O 2649   3.145   1.505   3.342
  821HOH     H1 2650   3.154   1.493   3.437
  821HOH     H2 2651   3.050   1.507   3.328
  822HOH      O 2652   0.097   0.393   0.113
  822HOH     H1 2653   0.036   0.428   0.048
  822HOH     H2 2654   0.055   0.314   0.146
  823HOH      O 2655   1.322   0.681   0.190
  823HOH     H1 2656   1.282   0.687   0.103
  823HOH     H2 2657   1.412   0.712   0.177
  824HOH      O 2658   3.543   0.540   0.749
  824HOH     H1 2659   3.502   0.525   0.834
  824HOH     H2 2660   3.541   0.454   0.705
  825HOH      O 2661   2.256   2.834   1.985
  825HOH     H1 2662   2.262   2.761   2.045
  825HOH     H2 2663   2.166   2.832   1.952
  826HOH      O 2664   3.101   3.629   2.184
  826HOH     H1 2665   3.060   3.706   2.224
  826HOH     H2 2666   3.036   3.597   2.122
  827HOH      O 2667   2.348   0.257   3.169
  827HOH     H1 2668   2.358   0.306   3.088
  827HOH     H2 2669   2.254   0.261   3.188
  828HOH      O 2670   3.143   0.375   3.368
  828HOH     H1 2671   3.223   0.426   3.375
  828HOH     H2 2672   3.080   0.422   3.423
  829HOH      O 2673   1.428   3.138   1.406
  829HOH     H1 2674   1.465   3.182   1.483
  829HOH     H2 2675   1.425   3.046   1.430
  830HOH      O 2676   0.430   1.161   2.173
  830HOH     H1 2677   0.499   1.117   2.123
  830HOH     H2 2678   0.449   1.254   2.164
  831HOH      O 2679   2.652   3.279   0.952
  831HOH     H1 2680   2.607   3.362   0.936
  831HOH     H2 2681   2.598   3.214   0.907
  832HOH      O 2682   3.380   2.596   2.986
  832HOH     H1 2683   3.454   2.565   2.934
  832HOH     H2 2684   3.349   2.674   2.941
  833HOH      O 2685   3.151   1.988   0.716
  833HOH     H1 2686   3.129   2.015   0.805
  833HOH     H2 2687   3.130   1.895   0.713
  834HOH      O 2688   3.623   0.668   3.830
  834HOH     H1 2689   3.613   0.724   3.907
  834HOH     H2 2690   3.611   0.726   3.755
  835HOH      O 2691   2.950   1.139   1.327
  835HOH     H1 2692   2.857   1.127   1.308
  835HOH     H2 2693   2.978   1.054   1.361
  836HOH      O 2694   0.029   1.154   2.689
  836HOH     H1 2695   0.003   1.199   2.770
  836HOH     H2 2696   0.016   1.219   2.620
  837HOH      O 2697   2.740   2.238   3.073
  837HOH     H1 2698   2.688   2.215   2.996
  837HOH     H2 2699   2.691   2.309   3.115
  838HOH      O 2700   0.175   0.314   1.654
  838HOH     H1 2701   0.180   0.401   1.693
  838HOH     H2 2702   0.159   0.330   1.561
  839HOH      O 2703   0.924   2.879   3.681
  839HOH     H1 2704   0.970   2.804   3.644
  839HOH     H2 2705   0.987   2.951   3.676
  840HOH      O 2706   3.342   0.574   3.317
  840HOH     H1 2707   3.356   0.537   3.230
  840HOH     H2 2708   3.293   0.655   3.301
  841HOH      O 2709   2.889   3.832   0.175
  841HOH     H1 2710   2.933   3.806   0.256
  841HOH     H2 2711   2.850   3.917   0.195
  842HOH      O 2712   0.429   0.736   0.150
  842HOH     H1 2713   0.450   0.751   0.242
  842HOH     H2 2714   0.338   0.706   0.151
  843HOH      O 2715   3.764   1.079   0.926
  843HOH     H1 2716   3.808   1.164   0.929
  843HOH     H2 2717   3.702   1.087   0.854
  844HOH      O 2718   1.323   3.145   1.161
  844HOH     H1 2719   1.417   3.156   1.146
  844HOH     H2 2720   1.312   3.163   1.255
  845HOH      O 2721   1.946   2.283   3.422
  845HOH     H1 2722   2.039   2.278   3.398
  845HOH     H2 2723   1.933   2.208   3.480
  846HOH      O 2724   3.523   1.702   2.934
  846HOH     H1 2725   3.463   1.727   2.864
  846HOH     H2 2726   3.480   1.731   3.014
  847HOH      O 2727   1.591   2.712   3.745
  847HOH     H1 2728   1.640   2.724   3.664
  847HOH     H2 2729   1.658   2.690   3.810
  848HOH      O 2730   2.682   0.695   0.930
  848HOH     H1 2731   2.764   0.744   0.928
  848HOH     H2 2732   2.706   0.607   0.901
  849HOH      O 2733   1.632   0.314   3.439
  849HOH     H1 2734   1.683   0.395   3.445
  849HOH     H2 2735   1.683   0.250   3.487
  850HOH      O 2736   1.458   1.832   2.135
  850HOH     H1 2737   1.409   1.913   2.120
  850HOH     H2 2738   1.541   1.845   2.089
  851HOH      O 2739   3.312   3.026   1.977
  851HOH     H1 2740   3.317   3.027   2.073
  851HOH     H2 2741   3.293   2.934   1.955
  852HOH      O 2742   3.797   1.005   0.508
  852HOH     H1 2743   3.861   1.054   0.559
  852HOH     H2 2744   3.816   1.028   0.417
  853HOH      O 2745   3.306   1.259   3.345
  853HOH     H1 2746   3.267   1.346   3.337
  853HOH     H2 2747   3.325   1.233   3.255
  854HOH      O 2748   1.558   0.767   0.083
  854HOH     H1 2749   1.620   0.840   0.076
  854HOH     H2 2750   1.572   0.717   0.003
  855HOH      O 2751   1.157   1.487   0.667
  855HOH     H1 2752   1.211   1.469   0.744
  855HOH     H2 2753   1.176   1.578   0.646
  856HOH      O 2754   1.759   0.094   3.599
  856HOH     H1 2755   1.719   0.109   3.685
  856HOH     H2 2756   1.839   0.045   3.619
  857HOH      O 2757   1.823   0.052   2.003
  857HOH     H1 2758   1.745   0.107   1.998
  857HOH     H2 2759   1.896   0.112   1.988
  858HOH      O 2760   0.631   0.368   1.632
  858HOH     H1 2761   0.724   0.379   1.652
  858HOH     H2 2762   0.597   0.321   1.708
  859HOH      O 2763   0.083   3.183   0.754
  859HOH     H1 2764   0.168   3.228   0.754
  859HOH     H2 2765   0.093   3.116   0.686
  860HOH      O 2766   1.097   2.958   2.014
  860HOH     H1 2767   1.104   3.053   2.003
  860HOH     H2 2768   1.165   2.922   1.958
  861HOH      O 2769   2.779   0.963   0.500
  861HOH     H1 2770   2.858   1.011   0.525
  861HOH     H2 2771   2.741   1.015   0.429
  862HOH      O 2772   2.523   3.582   2.361
  862HOH     H1 2773   2.616   3.586   2.386
  862HOH     H2 2774   2.505   3.488   2.353
  863HOH      O 2775   0.083   0.443   2.593
  863HOH     H1 2776   0.175   0.428   2.574
  863HOH     H2 2777   0.047   0.356   2.612
  864HOH      O 2778   0.648   2.679   2.562
  864HOH     H1 2779   0.563   2.673   2.606
  864HOH     H2 2780   0.635   2.629   2.481
  865HOH      O 2781   3.886   1.774   3.677
  865HOH     H1 2782   3.826   1.848   3.669
  865HOH     H2 2783   3.972   1.813   3.687
  866HOH      O 2784   2.617   0.725   2.117
  866HOH     H1 2785   2.685   0.783   2.082
  866HOH     H2 2786   2.621   0.647   2.061
  867HOH      O 2787   2.281   1.478   1.689
  867HOH     H1 2788   2.329   1.478   1.606
  867HOH     H2 2789   2.348   1.481   1.757
  868HOH      O 2790   0.834   0.629   0.028
  868HOH     H1 2791   0.874   0.617   0.114
  868HOH     H2 2792   0.868   0.557  -0.025
  869HOH      O 2793   0.732   2.076   2.312
  869HOH     H1 2794   0.792   2.106   2.380
  869HOH     H2 2795   0.782   2.080   2.231
  870HOH      O 2796   0.216   0.795   3.020
  870HOH     H1 2797   0.247   0.718   2.972
  870HOH     H2 2798   0.285   0.814   3.083
  871HOH      O 2799   0.114   3.878   2.911
  871HOH     H1 2800   0.128   3.803   2.970
  871HOH     H2 2801   0.089   3.950   2.969
  872HOH      O 2802   2.700   0.713   3.669
  872HOH     H1 2803   2.749   0.644   3.625
  872HOH     H2 2804   2.643   0.666   3.730
  873HOH      O 2805   0.713   1.175   1.408
  873HOH     H1 2806   0.700   1.140   1.497
  873HOH     H2 2807   0.755   1.260   1.421
  874HOH      O 2808   1.961   3.171   2.961
  874HOH     H1 2809   1.877   3.213   2.946
  874HOH     H2 2810   2.004   3.226   3.027
  875HOH      O 2811   3.343   1.432   0.223
  875HOH     H1 2812   3.418   1.468   0.269
  875HOH     H2 2813   3.346   1.338   0.242
  876HOH      O 2814   3.958   1.225   1.902
  876HOH     H1 2815   3.997   1.310   1.884
  876HOH     H2 2816   3.903   1.239   1.979
  877HOH      O 2817   2.647   1.312   2.115
  877HOH     H1 2818   2.709   1.250   2.154
  877HOH     H2 2819   2.691   1.341   2.035
  878HOH      O 2820   0.684   4.019   0.187
  878HOH     H1 2821   0.601   3.992   0.226
  878HOH     H2 2822   0.732   4.061   0.259
  879HOH      O 2823   1.056   1.683   3.701
  879HOH     H1 2824   1.118   1.717   3.636
  879HOH     H2 2825   1.052   1.751   3.768
  880HOH      O 2826   2.150   2.058   1.755
  880HOH     H1 2827   2.189   2.066   1.842
  880HOH     H2 2828   2.125   2.147   1.731
  881HOH      O 2829   3.805   1.388   0.591
  881HOH     H1 2830   3.857   1.335   0.530
  881HOH     H2 2831   3.856   1.469   0.601
  882HOH      O 2832   2.618   3.498   1.420
  882HOH     H1 2833   2.527   3.472   1.408
  882HOH     H2 2834   2.660   3.481   1.336
  883HOH      O 2835   1.190   0.334   2.028
  883HOH     H1 2836   1.249   0.410   2.028
  883HOH     H2 2837   1.137   0.345   1.950
  884HOH      O 2838   1.786   2.185   1.208
  884HOH     H1 2839   1.874   2.194   1.171
  884HOH     H2 2840   1.734   2.149   1.136
  885HOH      O 2841   0.963   2.799   2.195
  885HOH     H1 2842   0.999   2.873   2.146
  885HOH     H2 2843   1.029   2.731   2.187
  886HOH      O 2844   2.611   3.611   1.977
  886HOH     H1 2845   2.586   3.585   1.888
  886HOH     H2 2846   2.533   3.655   2.012
  887HOH      O 2847   2.595   1.087   0.319
  887HOH     H1 2848   2.509   1.058   0.352
  887HOH     H2 2849   2.603   1.177   0.350
  888HOH      O 2850   0.779   2.008   1.790
  888HOH     H1 2851   0.837   2.044   1.724
  888HOH     H2 2852   0.695   2.052   1.776
  889HOH      O 2853   1.999   1.082   0.911
  889HOH     H1 2854   1.926   1.088   0.973
  889HOH     H2 2855   2.033   0.994   0.922
  890HOH      O 2856   3.542   3.218   3.246
  890HOH     H1 2857   3.632   3.186   3.249
  890HOH     H2 2858   3.514   3.200   3.156
  891HOH      O 2859   1.134   3.164   0.447
  891HOH     H1 2860   1.212   3.117   0.476
  891HOH     H2 2861   1.152   3.189   0.357
  892HOH      O 2862   2.835   2.152   2.223
  892HOH     H1 2863   2.739   2.153   2.234
  892HOH     H2 2864   2.865   2.080   2.279
  893HOH      O 2865   0.772   1.821   2.259
  893HOH     H1 2866   0.866   1.832   2.271
  893HOH     H2 2867   0.735   1.908   2.276
  894HOH      O 2868   1.150   2.599   3.295
  894HOH     H1 2869   1.234   2.582   3.253
  894HOH     H2 2870   1.113   2.512   3.310
  895HOH      O 2871   2.881   1.758   2.958
  895HOH     H1 2872   2.813   1.721   3.015
  895HOH     H2 2873   2.898   1.845   2.995
  896HOH      O 2874   3.218   2.679   1.221
  896HOH     H1 2875   3.237   2.646   1.309
  896HOH     H2 2876   3.123   2.676   1.214
  897HOH      O 2877   3.310   2.165   0.616
  897HOH     H1 2878   3.372   2.179   0.687
  897HOH     H2 2879   3.255   2.093   0.645
  898HOH      O 2880   3.300   2.205   2.457
  898HOH     H1 2881   3.242   2.254   2.515
  898HOH     H2 2882   3.373   2.179   2.514
  899HOH      O 2883   1.576   1.668   0.867
  899HOH     H1 2884   1.629   1.627   0.935
  899HOH     H2 2885   1.499   1.702   0.913
  900HOH      O 2886   0.095   3.114   1.019
  900HOH     H1 2887   0.181   3.072   1.019
  900HOH     H2 2888   0.070   3.116   0.926
  901HOH      O 2889   2.137   0.885   0.453
  901HOH     H1 2890   2.159   0.958   0.395
  901HOH     H2 2891   2.042   0.890   0.463
  902HOH      O 2892   0.285   3.253   2.829
  902HOH     H1 2893   0.354   3.256   2.896
  902HOH     H2 2894   0.225   3.184   2.859
  903HOH      O 2895   0.340   1.319   0.355
  903HOH     H1 2896   0.348   1.406   0.316
  903HOH     H2 2897   0.248   1.311   0.380
  904HOH      O 2898   0.674   0.454   1.982
  904HOH     H1 2899   0.747   0.461   1.920
  904HOH     H2 2900   0.599   0.430   1.928
  905HOH      O 2901   2.585   3.719   3.340
  905HOH     H1 2902   2.569   3.760   3.426
  905HOH     H2 2903   2.545   3.633   3.347
  906HOH      O 2904   0.857   2.793   1.900
  906HOH     H1 2905   0.904   2.864   1.942
  906HOH     H2 2906   0.926   2.732   1.873
  907HOH      O 2907   1.833   3.476   1.217
  907HOH     H1 2908   1.904   3.483   1.281
  907HOH     H2 2909   1.758   3.445   1.268
  908HOH      O 2910   3.651   2.069   3.334
  908HOH     H1 2911   3.646   1.977   3.361
  908HOH     H2 2912   3.625   2.118   3.412
  909HOH      O 2913   2.556   2.901   3.404
  909HOH     H1 2914   2.578   2.977   3.351
  909HOH     H2 2915   2.537   2.937   3.491
  910HOH      O 2916   2.006   1.894   0.958
  910HOH     H1 2917   1.953   1.953   0.905
  910HOH     H2 2918   2.059   1.952   1.013
  911HOH      O 2919   1.562   1.102   2.115
  911HOH     H1 2920   1.653   1.129   2.101
  911HOH     H2 2921   1.566   1.047   2.194
  912HOH      O 2922   0.312   0.459   1.177
  912HOH     H1 2923   0.239   0.423   1.226
  912HOH     H2 2924   0.292   0.441   1.086
  913HOH      O 2925   2.850   0.415   2.694
  913HOH     H1 2926   2.900   0.456   2.624
  913HOH     H2 2927   2.805   0.488   2.737
  914HOH      O 2928   1.764   2.368   1.932
  914HOH     H1 2929   1.748   2.406   2.018
  914HOH     H2 2930   1.844   2.317   1.943
  915HOH      O 2931   1.104   3.240   2.005
  915HOH     H1 2932   1.198   3.252   1.993
  915HOH     H2 2933   1.067   3.328   1.999
  916HOH      O 2934   1.014   1.577   1.852
  916HOH     H1 2935   1.054   1.490   1.863
  916HOH     H2 2936   0.994   1.582   1.759
  917HOH      O 2937   2.618   0.349   0.591
  917HOH     H1 2938   2.613   0.289   0.517
  917HOH     H2 2939   2.542   0.406   0.580
  918HOH      O 2940   3.669   3.366   1.103
  918HOH     H1 2941   3.759   3.343   1.126
  918HOH     H2 2942   3.650   3.316   1.023
  919HOH      O 2943   1.447   3.334   0.419
  919HOH     H1 2944   1.498   3.414   0.403
  919HOH     H2 2945   1.387   3.357   0.490
  920HOH      O 2946   1.956   0.322   2.033
  920HOH     H1 2947   1.997   0.338   2.118
  920HOH     H2 2948   2.010   0.371   1.971
  921HOH      O 2949   2.874   2.575   1.579
  921HOH     H1 2950   2.963   2.540   1.588
  921HOH     H2 2951   2.867   2.639   1.650
  922HOH      O 2952   0.976   1.674   2.970
  922HOH     H1 2953   1.066   1.705   2.962
  922HOH     H2 2954   0.984   1.584   3.003
  923HOH      O 2955   1.618   2.466   2.983
  923HOH     H1 2956   1.704   2.504   3.002
  923HOH     H2 2957   1.622   2.446   2.889
  924HOH      O 2958   3.884   0.148   0.834
  924HOH     H1 2959   3.866   0.135   0.927
  924HOH     H2 2960   3.896   0.243   0.825
  925HOH      O 2961   0.179   1.025   1.603
  925HOH     H1 2962   0.132   1.053   1.524
  925HOH     H2 2963   0.261   0.989   1.570
  926HOH      O 2964   3.773   0.737   0.393
  926HOH     H1 2965   3.765   0.784   0.476
  926HOH     H2 2966   3.790   0.646   0.418
  927HOH      O 2967   0.748   0.812   3.671
  927HOH     H1 2968   0.669   0.809   3.617
  927HOH     H2 2969   0.721   0.774   3.755
  928HOH      O 2970   2.861   0.820   0.039
  928HOH     H1 2971   2.888   0.883   0.105
  928HOH     H2 2972   2.887   0.860  -0.044
  929HOH      O 2973   1.271   2.452   2.869
  929HOH     H1 2974   1.215   2.391   2.918
  929HOH     H2 2975   1.290   2.522   2.932
  930HOH      O 2976   0.316   0.889   0.717
  930HOH     H1 2977   0.289   0.802   0.689
  930HOH     H2 2978   0.401   0.876   0.758
  931HOH      O 2979   0.610   1.722   0.700
  931HOH     H1 2980   0.674   1.687   0.761
  931HOH     H2 2981   0.643   1.698   0.613
  932HOH      O 2982   3.501   2.795   0.345
  932HOH     H1 2983   3.555   2.738   0.290
  932HOH     H2 2984   3.421   2.809   0.295
  933HOH      O 2985   1.233   1.423   0.359
  933HOH     H1 2986   1.177   1.389   0.430
  933HOH     H2 2987   1.321   1.421   0.395
  934HOH      O 2988   3.980   0.078   3.741
  934HOH     H1 2989   4.011   0.102   3.653
  934HOH     H2 2990   3.886   0.064   3.731
  935HOH      O 2991   0.583   1.452   1.701
  935HOH     H1 2992   0.532   1.431   1.623
  935HOH     H2 2993   0.622   1.537   1.682
  936HOH      O 2994   0.247   0.037   0.530
  936HOH     H1 2995   0.220  -0.018   0.456
  936HOH     H2 2996   0.206  -0.004   0.606
  937HOH      O 2997   1.264   1.270   3.339
  937HOH     H1 2998   1.312   1.341   3.381
  937HOH     H2 2999   1.174   1.280   3.371
  938HOH      O 3000   1.516   1.881   1.538
  938HOH     H1 3001   1.490   1.828   1.462
  938HOH     H2 3002   1.593   1.929   1.509
  939HOH      O 3003   3.984   2.946   3.543
  939HOH     H1 3004   3.933   3.012   3.590
  939HOH     H2 3005   3.918   2.889   3.503
  940HOH      O 3006   3.235   0.395   1.465
  940HOH     H1 3007   3.256   0.303   1.449
  940HOH     H2 3008   3.275   0.441   1.391
  941HOH      O 3009   0.093   0.186   1.052
  941HOH     H1 3010   0.041   0.114   1.089
  941HOH     H2 3011   0.037   0.263   1.061
  942HOH      O 3012   3.267   3.063   3.950
  942HOH     H1 3013   3.316   3.137   3.913
  942HOH     H2 3014   3.235   3.015   3.874
  943HOH      O 3015   2.214   3.745   0.497
  943HOH     H1 3016   2.291   3.695   0.469
  943HOH     H2 3017   2.170   3.769   0.416
  944HOH      O 3018   2.927   1.909   1.889
  944HOH     H1 3019   2.956   1.835   1.836
  944HOH     H2 3020   2.889   1.869   1.967
  945HOH      O 3021   1.440   3.970   2.653
  945HOH     H1 3022   1.360   3.937   2.614
  945HOH     H2 3023   1.438   4.064   2.636
  946HOH      O 3024   0.530   2.044   0.040
  946HOH     H1 3025   0.582   1.972   0.076
  946HOH     H2 3026   0.555   2.047  -0.052
  947HOH      O 3027   2.121   3.862   0.243
  947HOH     H1 3028   2.092   3.953   0.231
  947HOH     H2 3029   2.040   3.810   0.233
  948HOH      O 3030   3.756   0.636   3.492
  948HOH     H1 3031   3.662   0.627   3.508
  948HOH     H2 3032   3.767   0.726   3.461
  949HOH      O 3033   0.983   0.268   2.191
  949HOH     H1 3034   1.046   0.315   2.136
  949HOH     H2 3035   1.035   0.232   2.263
  950HOH      O 3036   3.102   3.430   1.293
  950HOH     H1 3037   3.176   3.375   1.268
  950HOH     H2 3038   3.129   3.471   1.375
  951HOH      O 3039   1.163   0.662   3.966
  951HOH     H1 3040   1.093   0.600   3.948
  951HOH     H2 3041   1.179   0.705   3.882
  952HOH      O 3042   4.049   0.851   3.685
  952HOH     H1 3043   3.973   0.885   3.639
  952HOH     H2 3044   4.029   0.758   3.699
  953HOH      O 3045   1.515   0.193   2.550
  953HOH     H1 3046   1.457   0.266   2.575
  953HOH     H2 3047   1.562   0.172   2.630
  954HOH      O 3048   3.722   1.037   2.979
  954HOH     H1 3049   3.740   0.985   2.901
  954HOH     H2 3050   3.756   1.124   2.957
  955HOH      O 3051   2.793   2.173   1.435
  955HOH     H1 3052   2.882   2.164   1.469
  955HOH     H2 3053   2.745   2.099   1.472
  956HOH      O 3054   3.065   0.590   2.836
  956HOH     H1 3055   3.148   0.573   2.881
  956HOH     H2 3056   3.037   0.503   2.805
  957HOH      O 3057   2.196   2.108   3.677
  957HOH     H1 3058   2.201   2.204   3.675
  957HOH     H2 3059   2.279   2.080   3.716
  958HOH      O 3060   0.497   0.878   1.165
  958HOH     H1 3061   0.418   0.849   1.210
  958HOH     H2 3062   0.479   0.968   1.139
  959HOH      O 3063   2.758   1.714   3.213
  959HOH     H1 3064   2.754   1.774   3.288
  959HOH     H2 3065   2.774   1.628   3.252
  960HOH      O 3066   2.885   0.144   1.860
  960HOH     H1 3067   2.898   0.120   1.951
  960HOH     H2 3068   2.926   0.230   1.852
  961HOH      O 3069   1.770   2.573   2.659
  961HOH     H1 3070   1.816   2.501   2.616
  961HOH     H2 3071   1.686   2.578   2.614
  962HOH      O 3072   2.393   3.843   2.779
  962HOH     H1 3073   2.439   3.925   2.758
  962HOH     H2 3074   2.423   3.822   2.867
  963HOH      O 3075   3.636   0.823   1.012
  963HOH     H1 3076   3.666   0.849   0.925
  963HOH     H2 3077   3.668   0.893   1.070
  964HOH      O 3078   2.040   0.018   1.684
  964HOH     H1 3079   1.973  -0.004   1.620
  964HOH     H2 3080   2.094   0.084   1.641
  965HOH      O 3081   1.088   0.685   2.651
  965HOH     H1 3082   1.121   0.762   2.605
  965HOH     H2 3083   1.107   0.703   2.743
  966HOH      O 3084   2.559   0.500   1.948
  966HOH     H1 3085   2.480   0.545   1.979
  966HOH     H2 3086   2.580   0.440   2.020
  967HOH      O 3087   2.770   3.912   1.003
  967HOH     H1 3088   2.854   3.887   0.965
  967HOH     H2 3089   2.755   4.002   0.972
  968HOH      O 3090   2.462   3.420   1.098
  968HOH     H1 3091   2.491   3.332   1.124
  968HOH     H2 3092   2.374   3.428   1.133
  969HOH      O 3093   2.139   2.308   1.792
  969HOH     H1 3094   2.196   2.378   1.761
  969HOH     H2 3095   2.131   2.325   1.886
  970HOH      O 3096   2.347   1.003   1.021
  970HOH     H1 3097   2.353   1.084   0.970
  970HOH     H2 3098   2.438   0.979   1.038
  971HOH      O 3099   3.349   2.006   1.584
  971HOH     H1 3100   3.403   1.940   1.627
  971HOH     H2 3101   3.270   2.012   1.639
  972HOH      O 3102   2.708   2.449   1.412
  972HOH     H1 3103   2.711   2.358   1.440
  972HOH     H2 3104   2.772   2.493   1.468
  973HOH      O 3105   2.609   1.764   0.824
  973HOH     H1 3106   2.637   1.839   0.771
  973HOH     H2 3107   2.689   1.714   0.839
  974HOH      O 3108   1.050   0.549   0.226
  974HOH     H1 3109   1.131   0.599   0.234
  974HOH     H2 3110   1.075   0.470   0.177
  975HOH      O 3111   2.968   1.209   3.248
  975HOH     H1 3112   3.020   1.240   3.322
  975HOH     H2 3113   2.949   1.118   3.268
  976HOH      O 3114   0.246   2.313   2.489
  976HOH     H1 3115   0.217   2.389   2.540
  976HOH     H2 3116   0.263   2.349   2.402
  977HOH      O 3117   1.200   2.824   1.624
  977HOH     H1 3118   1.144   2.770   1.679
  977HOH     H2 3119   1.141   2.890   1.587
  978HOH      O 3120   3.809   3.352   1.425
  978HOH     H1 3121   3.873   3.408   1.468
  978HOH     H2 3122   3.852   3.324   1.344
  979HOH      O 3123   0.456   2.606   2.774
  979HOH     H1 3124   0.468   2.658   2.854
  979HOH     H2 3125   0.366   2.622   2.748
  980HOH      O 3126   3.066   1.648   1.271
  980HOH     H1 3127   2.975   1.675   1.277
  980HOH     H2 3128   3.113   1.729   1.249
  981HOH      O 3129   3.218   4.009   2.406
  981HOH     H1 3130   3.213   3.997   2.312
  981HOH     H2 3131   3.312   4.013   2.424
  982HOH      O 3132   1.710   0.351   2.175
  982HOH     H1 3133   1.790   0.326   2.128
  982HOH     H2 3134   1.682   0.272   2.220
  983HOH      O 3135   0.801   0.378   0.578
  983HOH     H1 3136   0.862   0.438   0.536
  983HOH     H2 3137   0.722   0.382   0.524
  984HOH      O 3138   2.652   3.407   0.521
  984HOH     H1 3139   2.672   3.468   0.451
  984HOH     H2 3140   2.634   3.463   0.597
  985HOH      O 3141   2.031   0.550   1.618
  985HOH     H1 3142   2.101   0.560   1.552
  985HOH     H2 3143   2.019   0.638   1.654
  986HOH      O 3144   0.695   2.864   3.295
  986HOH     H1 3145   0.671   2.825   3.379
  986HOH     H2 3146   0.709   2.956   3.314
  987HOH      O 3147   1.374   3.686   2.738
  987HOH     H1 3148   1.302   3.719   2.685
  987HOH     H2 3149   1.453   3.713   2.691
  988HOH      O 3150   2.377   3.040   2.129
  988HOH     H1 3151   2.344   2.963   2.083
  988HOH     H2 3152   2.443   3.006   2.189
  989HOH      O 3153   2.393   0.035   1.883
  989HOH     H1 3154   2.399   0.084   1.965
  989HOH     H2 3155   2.484   0.026   1.854
  990HOH      O 3156   2.562   1.087   0.022
  990HOH     H1 3157   2.580   1.102   0.115
  990HOH     H2 3158   2.539   0.995   0.016
  991HOH      O 3159   1.202   0.946   2.603
  991HOH     H1 3160   1.215   1.003   2.527
  991HOH     H2 3161   1.288   0.911   2.622
  992HOH      O 3162   0.687   1.128   3.933
  992HOH     H1 3163   0.653   1.076   4.006
  992HOH     H2 3164   0.771   1.087   3.911
  993HOH      O 3165   0.135   3.783   3.270
  993HOH     H1 3166   0.192   3.713   3.239
  993HOH     H2 3167   0.169   3.862   3.228
  994HOH      O 3168   3.993   3.561   3.837
  994HOH     H1 3169   3.956   3.584   3.922
  994HOH     H2 3170   3.956   3.474   3.818
  995HOH      O 3171   3.885   0.491   0.008
  995HOH     H1 3172   3.902   0.579   0.044
  995HOH     H2 3173   3.800   0.499  -0.035
  996HOH      O 3174   2.852   1.164   2.211
  996HOH     H1 3175   2.860   1.118   2.294
  996HOH     H2 3176   2.942   1.183   2.185
  997HOH      O 3177   1.499   0.098   3.292
  997HOH     H1 3178   1.450   0.134   3.217
  997HOH     H2 3179   1.553   0.172   3.322
  998HOH      O 3180   0.333   2.359   1.412
  998HOH     H1 3181   0.347   2.322   1.325
  998HOH     H2 3182   0.271   2.299   1.454
  999HOH      O 3183   0.362   2.996   0.859
  999HOH     H1 3184   0.359   3.090   0.845
  999HOH     H2 3185   0.452   2.979   0.888
 1000HOH      O 3186   0.372   3.182   1.166
 1000HOH     H1 3187   0.392   3.260   1.114
 1000HOH     H2 3188   0.452   3.129   1.159
 1001HOH      O 3189   3.333   3.864   1.841
 1001HOH     H1 3190   3.365   3.854   1.931
 1001HOH     H2 3191   3.393   3.813   1.788
 1002HOH      O 3192   0.657   1.385   2.812
 1002HOH     H1 3193   0.694   1.465   2.775
 1002HOH     H2 3194   0.689   1.315   2.755
 1003HOH      O 3195   1.322   0.199   1.752
 1003HOH     H1 3196   1.388   0.263   1.724
 1003HOH     H2 3197   1.372   0.130   1.794
 1004HOH      O 3198   1.044   2.588   1.383
 1004HOH     H1 3199   0.964   2.639   1.372
 1004HOH     H2 3200   1.107   2.629   1.323
 1005HOH      O 3201   2.988   3.632   0.963
 1005HOH     H1 3202   2.950   3.546   0.941
 1005HOH     H2 3203   2.980   3.638   1.058
 1006HOH      O 3204   3.166   2.114   3.928
 1006HOH     H1 3205   3.242   2.062   3.900
 1006HOH     H2 3206   3.182   2.131   4.021
 1007HOH      O 3207   3.803   3.167   3.189
 1007HOH     H1 3208   3.857   3.147   3.113
 1007HOH     H2 3209   3.864   3.172   3.262
 1008HOH      O 3210   1.301   3.803   0.832
 1008HOH     H1 3211   1.371   3.825   0.771
 1008HOH     H2 3212   1.225   3.852   0.800
 1009HOH      O 3213   1.866   3.650   1.544
 1009HOH     H1 3214   1.840   3.723   1.488
 1009HOH     H2 3215   1.938   3.609   1.497
 1010HOH      O 3216   2.088   2.944   1.469
 1010HOH     H1 3217   2.157   2.880   1.450
 1010HOH     H2 3218   2.036   2.948   1.389
 1011HOH      O 3219   1.741   2.818   0.976
 1011HOH     H1 3220   1.768   2.757   0.907
 1011HOH     H2 3221   1.666   2.864   0.938
 1012HOH      O 3222   2.364   3.854   1.078
 1012HOH     H1 3223   2.303   3.796   1.033
 1012HOH     H2 3224   2.413   3.796   1.137
 1013HOH      O 3225   1.388   3.928   3.405
 1013HOH     H1 3226   1.470   3.880   3.413
 1013HOH     H2 3227   1.410   4.004   3.351
 1014HOH      O 3228   2.963   2.642   1.189
 1014HOH     H1 3229   2.926   2.729   1.195
 1014HOH     H2 3230   2.888   2.583   1.189
 1015HOH      O 3231   1.160   2.055   1.118
 1015HOH     H1 3232   1.247   2.082   1.090
 1015HOH     H2 3233   1.122   2.133   1.158
 1016HOH      O 3234   3.166   1.015   0.181
 1016HOH     H1 3235   3.133   1.050   0.264
 1016HOH     H2 3236   3.176   0.921   0.197
 1017HOH      O 3237   0.883   2.636   0.506
 1017HOH     H1 3238   0.929   2.553   0.524
 1017HOH     H2 3239   0.903   2.654   0.414
 1018HOH      O 3240   3.586   3.822   0.662
 1018HOH     H1 3241   3.609   3.907   0.700
 1018HOH     H2 3242   3.599   3.834   0.567
 1019HOH      O 3243   1.946   2.968   2.266
 1019HOH     H1 3244   1.960   2.982   2.172
 1019HOH     H2 3245   1.992   3.040   2.308
 1020HOH      O 3246   1.049   1.223   3.029
 1020HOH     H1 3247   0.955   1.230   3.048
 1020HOH     H2 3248   1.057   1.143   2.977
 1021HOH      O 3249   0.303   3.340   0.159
 1021HOH     H1 3250   0.277   3.291   0.081
 1021HOH     H2 3251   0.226   3.341   0.215
 1022HOH      O 3252   0.320   3.068   3.486
 1022HOH     H1 3253   0.246   3.126   3.504
 1022HOH     H2 3254   0.377   3.119   3.428
 1023HOH      O 3255   1.789   3.224   2.227
 1023HOH     H1 3256   1.816   3.168   2.154
 1023HOH     H2 3257   1.711   3.181   2.262
 1024HOH      O 3258   0.163   3.716   2.067
 1024HOH     H1 3259   0.164   3.806   2.100
 1024HOH     H2 3260   0.171   3.662   2.146
 1025HOH      O 3261   2.794   1.298   1.590
 1025HOH     H1 3262   2.771   1.322   1.501
 1025HOH     H2 3263   2.812   1.204   1.586
 1026HOH      O 3264   3.508   3.430   0.572
 1026HOH     H1 3265   3.562   3.496   0.529
 1026HOH     H2 3266   3.538   3.346   0.538
 1027HOH      O 3267   0.200   0.094   1.834
 1027HOH     H1 3268   0.183   0.153   1.760
 1027HOH     H2 3269   0.293   0.073   1.826
 1028HOH      O 3270   0.001   1.499   3.699
 1028HOH     H1 3271   0.081   1.551   3.692
 1028HOH     H2 3272   0.023   1.415   3.657
 1029HOH      O 3273   2.712   1.238   3.663
 1029HOH     H1 3274   2.706   1.147   3.692
 1029HOH     H2 3275   2.644   1.248   3.597
 1030HOH      O 3276   0.058   2.117   2.486
 1030HOH     H1 3277   0.118   2.191   2.483
 1030HOH     H2 3278   0.114   2.040   2.494
 1031HOH      O 3279   3.960   0.282   2.140
 1031HOH     H1 3280   3.881   0.329   2.167
 1031HOH     H2 3281   3.963   0.293   2.045
 1032HOH      O 3282   3.648   1.780   3.404
 1032HOH     H1 3283   3.571   1.744   3.448
 1032HOH     H2 3284   3.716   1.714   3.417
 1033HOH      O 3285   3.211   1.923   1.279
 1033HOH     H1 3286   3.249   1.878   1.355
 1033HOH     H2 3287   3.146   1.982   1.317
 1034HOH      O 3288   0.069   3.347   0.343
 1034HOH     H1 3289   0.012   3.270   0.343
 1034HOH     H2 3290   0.010   3.420   0.324
 1035HOH      O 3291   1.998   0.956   1.382
 1035HOH     H1 3292   1.904   0.965   1.393
 1035HOH     H2 3293   2.009   0.871   1.338
 1036HOH      O 3294   0.732   1.043   2.866
 1036HOH     H1 3295   0.824   1.050   2.843
 1036HOH     H2 3296   0.692   0.995   2.793
 1037HOH      O 3297   2.786   4.022   2.417
 1037HOH     H1 3298   2.731   3.990   2.488
 1037HOH     H2 3299   2.876   4.010   2.449
 1038HOH      O 3300   0.181   1.102   0.214
 1038HOH     H1 3301   0.252   1.076   0.274
 1038HOH     H2 3302   0.226   1.135   0.137
 1039HOH      O 3303   0.373   2.070   0.645
 1039HOH     H1 3304   0.426   2.149   0.635
 1039HOH     H2 3305   0.390   2.041   0.735
 1040HOH      O 3306   3.611   3.477   1.574
 1040HOH     H1 3307   3.568   3.399   1.609
 1040HOH     H2 3308   3.687   3.443   1.526
 1041HOH      O 3309   2.204   1.457   3.806
 1041HOH     H1 3310   2.215   1.473   3.900
 1041HOH     H2 3311   2.160   1.536   3.774
 1042HOH      O 3312   0.462   2.404   1.650
 1042HOH     H1 3313   0.437   2.482   1.699
 1042HOH     H2 3314   0.427   2.418   1.562
 1043HOH      O 3315   0.389   3.522   0.852
 1043HOH     H1 3316   0.322   3.517   0.783
 1043HOH     H2 3317   0.414   3.614   0.855
 1044HOH      O 3318   2.552   2.159   2.211
 1044HOH     H1 3319   2.527   2.217   2.283
 1044HOH     H2 3320   2.491   2.086   2.217
 1045HOH      O 3321   1.194   0.393   3.749
 1045HOH     H1 3322   1.190   0.300   3.772
 1045HOH     H2 3323   1.247   0.396   3.670
 1046HOH      O 3324   0.818   0.936   0.252
 1046HOH     H1 3325   0.734   0.971   0.222
 1046HOH     H2 3326   0.873   0.937   0.174
 1047HOH      O 3327   3.230   1.953   2.397
 1047HOH     H1 3328   3.301   1.911   2.446
 1047HOH     H2 3329   3.230   2.043   2.429
 1048HOH      O 3330   0.777   2.464   3.289
 1048HOH     H1 3331   0.739   2.394   3.342
 1048HOH     H2 3332   0.804   2.530   3.353
 1049HOH      O 3333   3.849   3.850   3.770
 1049HOH     H1 3334   3.941   3.824   3.770
 1049HOH     H2 3335   3.826   3.859   3.678
 1050HOH      O 3336   1.433   2.153   1.360
 1050HOH     H1 3337   1.456   2.201   1.440
 1050HOH     H2 3338   1.357   2.101   1.385
 1051HOH      O 3339   1.146   3.694   2.014
 1051HOH     H1 3340   1.160   3.756   2.086
 1051HOH     H2 3341   1.052   3.701   1.995
 1052HOH      O 3342   3.027   3.438   3.591
 1052HOH     H1 3343   2.998   3.429   3.682
 1052HOH     H2 3344   3.016   3.531   3.572
 1053HOH      O 3345   0.283   3.238   0.474
 1053HOH     H1 3346   0.194   3.253   0.442
 1053HOH     H2 3347   0.332   3.210   0.397
 1054HOH      O 3348   1.448   3.962   2.952
 1054HOH     H1 3349   1.482   4.003   2.872
 1054HOH     H2 3350   1.362   3.930   2.927
 1055HOH      O 3351   3.119   0.554   0.852
 1055HOH     H1 3352   3.130   0.553   0.757
 1055HOH     H2 3353   3.207   0.539   0.887
 1056HOH      O 3354   1.998   2.247   0.967
 1056HOH     H1 3355   2.030   2.212   0.884
 1056HOH     H2 3356   2.034   2.189   1.033
 1057HOH      O 3357   1.876   3.860   0.756
 1057HOH     H1 3358   1.811   3.897   0.816
 1057HOH     H2 3359   1.900   3.776   0.795
 1058HOH      O 3360   1.300   1.809   3.588
 1058HOH     H1 3361   1.243   1.876   3.552
 1058HOH     H2 3362   1.370   1.800   3.523
 1059HOH      O 3363   1.325   2.749   3.705
 1059HOH     H1 3364   1.264   2.763   3.777
 1059HOH     H2 3365   1.401   2.707   3.746
 1060HOH      O 3366   0.915   2.176   3.387
 1060HOH     H1 3367   0.889   2.152   3.298
 1060HOH     H2 3368   0.833   2.186   3.435
 1061HOH      O 3369   2.383   0.608   3.903
 1061HOH     H1 3370   2.471   0.578   3.883
 1061HOH     H2 3371   2.361   0.567   3.986
 1062HOH      O 3372   4.010   3.172   3.374
 1062HOH     H1 3373   4.062   3.163   3.294
 1062HOH     H2 3374   4.009   3.084   3.412
 1063HOH      O 3375   3.906   2.657   3.063
 1063HOH     H1 3376   3.831   2.711   3.089
 1063HOH     H2 3377   3.914   2.591   3.132
 1064HOH      O 3378   3.641   2.000   1.735
 1064HOH     H1 3379   3.646   2.049   1.817
 1064HOH     H2 3380   3.630   1.909   1.762
 1065HOH      O 3381   1.811   3.977   3.128
 1065HOH     H1 3382   1.769   3.960   3.213
 1065HOH     H2 3383   1.765   4.053   3.094
 1066HOH      O 3384   2.196   0.703   0.239
 1066HOH     H1 3385   2.188   0.744   0.325
 1066HOH     H2 3386   2.143   0.623   0.245
 1067HOH      O 3387   3.136   2.180   2.225
 1067HOH     H1 3388   3.183   2.206   2.304
 1067HOH     H2 3389   3.046   2.167   2.254
 1068HOH      O 3390   3.737   2.873   3.182
 1068HOH     H1 3391   3.687   2.845   3.105
 1068HOH     H2 3392   3.752   2.966   3.168
 1069HOH      O 3393   1.289   0.675   2.063
 1069HOH     H1 3394   1.347   0.606   2.096
 1069HOH     H2 3395   1.320   0.755   2.106
 1070HOH      O 3396   0.626   2.471   1.142
 1070HOH     H1 3397   0.595   2.508   1.059
 1070HOH     H2 3398   0.660   2.546   1.190
 1071HOH      O 3399   3.540   3.094   4.012
 1071HOH     H1 3400   3.450   3.065   4.030
 1071HOH     H2 3401   3.586   3.014   3.987
 1072HOH      O 3402   3.894   1.838   1.424
 1072HOH     H1 3403   3.901   1.884   1.341
 1072HOH     H2 3404   3.800   1.840   1.445
 1073HOH      O 3405   3.607   0.209   3.374
 1073HOH     H1 3406   3.608   0.185   3.466
 1073HOH     H2 3407   3.593   0.127   3.327
 1074HOH      O 3408   2.281   3.161   4.055
 1074HOH     H1 3409   2.271   3.081   4.003
 1074HOH     H2 3410   2.315   3.225   3.992
 1075HOH      O 3411   0.681   1.738   1.699
 1075HOH     H1 3412   0.706   1.780   1.781
 1075HOH     H2 3413   0.701   1.803   1.631
 1076HOH      O 3414   0.341   0.404   2.625
 1076HOH     H1 3415   0.395   0.352   2.566
 1076HOH     H2 3416   0.401   0.467   2.664
 1077HOH      O 3417   3.085   2.315   0.552
 1077HOH     H1 3418   3.178   2.291   0.552
 1077HOH     H2 3419   3.078   2.383   0.619
 1078HOH      O 3420   2.752   1.041   1.549
 1078HOH     H1 3421   2.719   0.975   1.488
 1078HOH     H2 3422   2.764   0.993   1.632
 1079HOH      O 3423   1.805   1.592   1.297
 1079HOH     H1 3424   1.771   1.579   1.385
 1079HOH     H2 3425   1.887   1.542   1.296
 1080HOH      O 3426   3.366   3.482   2.967
 1080HOH     H1 3427   3.302   3.528   3.021
 1080HOH     H2 3428   3.351   3.514   2.878
 1081HOH      O 3429   2.413   3.983   2.462
 1081HOH     H1 3430   2.461   4.033   2.529
 1081HOH     H2 3431   2.378   3.908   2.509
 1082HOH      O 3432   0.259   2.633   1.232
 1082HOH     H1 3433   0.278   2.681   1.312
 1082HOH     H2 3434   0.278   2.541   1.253
 1083HOH      O 3435   1.606   3.563   0.462
 1083HOH     H1 3436   1.582   3.544   0.553
 1083HOH     H2 3437   1.651   3.648   0.466
 1084HOH      O 3438   2.619   0.488   3.849
 1084HOH     H1 3439   2.568   0.441   3.783
 1084HOH     H2 3440   2.610   0.435   3.928
 1085HOH      O 3441   2.972   3.510   0.522
 1085HOH     H1 3442   2.902   3.474   0.576
 1085HOH     H2 3443   3.015   3.434   0.483
 1086HOH      O 3444   0.415   0.233   0.662
 1086HOH     H1 3445   0.370   0.155   0.628
 1086HOH     H2 3446   0.473   0.260   0.591
 1087HOH      O 3447   1.707   2.957   1.517
 1087HOH     H1 3448   1.712   3.052   1.509
 1087HOH     H2 3449   1.619   2.934   1.487
 1088HOH      O 3450   0.517   0.880   3.444
 1088HOH     H1 3451   0.544   0.971   3.457
 1088HOH     H2 3452   0.432   0.873   3.488
 1089HOH      O 3453   1.550   3.290   2.377
 1089HOH     H1 3454   1.511   3.351   2.440
 1089HOH     H2 3455   1.619   3.341   2.334
 1090HOH      O 3456   3.558   0.634   2.269
 1090HOH     H1 3457   3.463   0.622   2.256
 1090HOH     H2 3458   3.597   0.601   2.188
 1091HOH      O 3459   1.413   1.473   3.424
 1091HOH     H1 3460   1.414   1.564   3.454
 1091HOH     H2 3461   1.501   1.460   3.386
 1092HOH      O 3462   3.496   1.734   1.717
 1092HOH     H1 3463   3.504   1.655   1.663
 1092HOH     H2 3464   3.474   1.700   1.804
 1093HOH      O 3465   2.245   2.307   0.694
 1093HOH     H1 3466   2.291   2.354   0.763
 1093HOH     H2 3467   2.171   2.363   0.672
 1094HOH      O 3468   3.312   3.277   3.568
 1094HOH     H1 3469   3.297   3.263   3.661
 1094HOH     H2 3470   3.387   3.336   3.564
 1095HOH      O 3471   1.642   0.627   2.583
 1095HOH     H1 3472   1.567   0.600   2.530
 1095HOH     H2 3473   1.714   0.631   2.520
 1096HOH      O 3474   1.678   1.337   0.293
 1096HOH     H1 3475   1.649   1.341   0.202
 1096HOH     H2 3476   1.715   1.423   0.311
 1097HOH      O 3477   1.817   2.660   3.041
 1097HOH     H1 3478   1.854   2.584   3.087
 1097HOH     H2 3479   1.811   2.727   3.108
 1098HOH      O 3480   1.525   3.011   2.121
 1098HOH     H1 3481   1.583   2.937   2.139
 1098HOH     H2 3482   1.455   3.003   2.186
 1099HOH      O 3483   4.051   3.992   0.733
 1099HOH     H1 3484   4.021   3.912   0.777
 1099HOH     H2 3485   3.989   4.059   0.763
 1100HOH      O 3486   2.278   3.852   3.149
 1100HOH     H1 3487   2.332   3.817   3.078
 1100HOH     H2 3488   2.192   3.865   3.109
 1101HOH      O 3489   1.625   3.445   3.243
 1101HOH     H1 3490   1.579   3.415   3.164
 1101HOH     H2 3491   1.712   3.404   3.237
 1102HOH      O 3492   0.949   3.042   0.126
 1102HOH     H1 3493   0.908   3.007   0.047
 1102HOH     H2 3494   0.884   3.104   0.161
 1103HOH      O 3495   2.838   1.178   0.039
 1103HOH     H1 3496   2.823   1.235   0.115
 1103HOH     H2 3497   2.769   1.201  -0.023
 1104HOH      O 3498   1.163   3.958   1.796
 1104HOH     H1 3499   1.215   3.887   1.834
 1104HOH     H2 3500   1.169   4.029   1.860
 1105HOH      O 3501   0.992   2.677   2.834
 1105HOH     H1 3502   1.072   2.693   2.884
 1105HOH     H2 3503   0.938   2.622   2.891
 1106HOH      O 3504   1.638   1.355   2.428
 1106HOH     H1 3505   1.678   1.338   2.513
 1106HOH     H2 3506   1.705   1.332   2.364
 1107HOH      O 3507   0.831   1.741   0.962
 1107HOH     H1 3508   0.779   1.811   1.002
 1107HOH     H2 3509   0.918   1.749   1.003
 1108HOH      O 3510   0.235   3.488   3.271
 1108HOH     H1 3511   0.200   3.505   3.183
 1108HOH     H2 3512   0.329   3.473   3.257
 1109HOH      O 3513   1.175   0.778   3.690
 1109HOH     H1 3514   1.234   0.853   3.680
 1109HOH     H2 3515   1.166   0.742   3.602
 1110HOH      O 3516   2.440   0.574   0.832
 1110HOH     H1 3517   2.510   0.624   0.876
 1110HOH     H2 3518   2.423   0.622   0.751
 1111HOH      O 3519   2.502   1.055   1.325
 1111HOH     H1 3520   2.482   1.124   1.389
 1111HOH     H2 3521   2.465   0.975   1.363
 1112HOH      O 3522   3.935   0.115   1.464
 1112HOH     H1 3523   3.872   0.073   1.522
 1112HOH     H2 3524   3.975   0.043   1.416
 1113HOH      O 3525   0.786   0.378   2.592
 1113HOH     H1 3526   0.768   0.470   2.575
 1113HOH     H2 3527   0.767   0.334   2.509
 1114HOH      O 3528   2.035   3.957   3.495
 1114HOH     H1 3529   2.005   4.001   3.415
 1114HOH     H2 3530   2.082   3.880   3.463
 1115HOH      O 3531   2.082   0.049   3.248
 1115HOH     H1 3532   2.024   0.124   3.235
 1115HOH     H2 3533   2.060  -0.011   3.176
 1116HOH      O 3534   0.820   3.995   1.532
 1116HOH     H1 3535   0.803   4.050   1.455
 1116HOH     H2 3536   0.899   3.946   1.508
 1117HOH      O 3537   2.077   3.079   0.557
 1117HOH     H1 3538   2.103   3.063   0.466
 1117HOH     H2 3539   2.004   3.140   0.551
 1118HOH      O 3540   0.650   2.253   0.587
 1118HOH     H1 3541   0.717   2.301   0.539
 1118HOH     H2 3542   0.686   2.165   0.597
 1119HOH      O 3543   1.448   1.574   0.010
 1119HOH     H1 3544   1.494   1.644   0.056
 1119HOH     H2 3545   1.358   1.580   0.042
 1120HOH      O 3546   0.143   0.797   0.079
 1120HOH     H1 3547   0.129   0.786   0.173
 1120HOH     H2 3548   0.066   0.759   0.038
 1121HOH      O 3549   0.037   0.374   0.502
 1121HOH     H1 3550   0.118   0.350   0.457
 1121HOH     H2 3551   0.066   0.426   0.577
 1122HOH      O 3552   2.872   2.548   2.313
 1122HOH     H1 3553   2.834   2.635   2.325
 1122HOH     H2 3554   2.824   2.493   2.374
 1123HOH      O 3555   2.033   2.112   3.930
 1123HOH     H1 3556   2.004   2.202   3.915
 1123HOH     H2 3557   2.114   2.105   3.879
 1124HOH      O 3558   2.899   3.702   2.414
 1124HOH     H1 3559   2.877   3.744   2.331
 1124HOH     H2 3560   2.954   3.765   2.460
 1125HOH      O 3561   0.951   3.561   0.870
 1125HOH     H1 3562   0.893   3.573   0.945
 1125HOH     H2 3563   0.906   3.604   0.798
 1126HOH      O 3564   1.738   1.243   3.379
 1126HOH     H1 3565   1.693   1.323   3.405
 1126HOH     H2 3566   1.701   1.175   3.436
 1127HOH      O 3567   2.264   1.410   3.495
 1127HOH     H1 3568   2.174   1.408   3.527
 1127HOH     H2 3569   2.311   1.462   3.560
 1128HOH      O 3570   3.342   1.652   3.224
 1128HOH     H1 3571   3.309   1.743   3.223
 1128HOH     H2 3572   3.277   1.605   3.277
 1129HOH      O 3573   2.419   2.425   0.864
 1129HOH     H1 3574   2.383   2.467   0.942
 1129HOH     H2 3575   2.433   2.496   0.802
 1130HOH      O 3576   0.664   1.056   2.337
 1130HOH     H1 3577   0.656   1.150   2.351
 1130HOH     H2 3578   0.645   1.044   2.244
 1131HOH      O 3579   0.669   3.935   2.046
 1131HOH     H1 3580   0.606   3.880   1.999
 1131HOH     H2 3581   0.615   3.987   2.105
 1132HOH      O 3582   0.222   3.324   2.552
 1132HOH     H1 3583   0.280   3.296   2.622
 1132HOH     H2 3584   0.144   3.357   2.597
 1133HOH      O 3585   1.781   1.739   0.504
 1133HOH     H1 3586   1.693   1.704   0.514
 1133HOH     H2 3587   1.831   1.668   0.465
 1134HOH      O 3588   2.097   3.451   0.555
 1134HOH     H1 3589   2.181   3.484   0.586
 1134HOH     H2 3590   2.102   3.457   0.459
 1135HOH      O 3591   0.845   2.864   1.404
 1135HOH     H1 3592   0.924   2.897   1.447
 1135HOH     H2 3593   0.778   2.866   1.471
 1136HOH      O 3594   2.365   3.724   2.066
 1136HOH     H1 3595   2.332   3.708   2.154
 1136HOH     H2 3596   2.287   3.748   2.015
 1137HOH      O 3597   0.329   3.825   0.879
 1137HOH     H1 3598   0.312   3.916   0.902
 1137HOH     H2 3599   0.424   3.817   0.880
 1138HOH      O 3600   3.547   0.331   2.696
 1138HOH     H1 3601   3.480   0.393   2.668
 1138HOH     H2 3602   3.628   0.365   2.657
 1139HOH      O 3603   0.806   4.017   3.851
 1139HOH     H1 3604   0.718   4.020   3.887
 1139HOH     H2 3605   0.864   4.036   3.925
 1140HOH      O 3606   1.472   1.421   0.490
 1140HOH     H1 3607   1.474   1.387   0.579
 1140HOH     H2 3608   1.530   1.363   0.441
 1141HOH      O 3609   1.443   0.866   3.366
 1141HOH     H1 3610   1.527   0.835   3.334
 1141HOH     H2 3611   1.412   0.927   3.299
 1142HOH      O 3612   3.297   1.966   0.994
 1142HOH     H1 3613   3.201   1.972   0.998
 1142HOH     H2 3614   3.321   1.912   1.069
 1143HOH      O 3615   0.569   0.485   1.171
 1143HOH     H1 3616   0.478   0.494   1.201
 1143HOH     H2 3617   0.562   0.478   1.076
 1144HOH      O 3618   1.049   1.091   1.550
 1144HOH     H1 3619   1.050   1.093   1.645
 1144HOH     H2 3620   0.991   1.163   1.525
 1145HOH      O 3621   0.555   3.918   1.552
 1145HOH     H1 3622   0.646   3.933   1.579
 1145HOH     H2 3623   0.551   3.954   1.463
 1146HOH      O 3624   0.732   1.883   3.187
 1146HOH     H1 3625   0.704   1.974   3.198
 1146HOH     H2 3626   0.683   1.852   3.110
 1147HOH      O 3627   1.341   2.304   1.974
 1147HOH     H1 3628   1.399   2.337   1.905
 1147HOH     H2 3629   1.397   2.300   2.052
 1148HOH      O 3630   0.983   0.605   1.962
 1148HOH     H1 3631   1.076   0.625   1.977
 1148HOH     H2 3632   0.945   0.605   2.050
 1149HOH      O 3633   3.537   1.196   2.433
 1149HOH     H1 3634   3.518   1.137   2.506
 1149HOH     H2 3635   3.453   1.238   2.414
 1150HOH      O 3636   3.245   2.477   1.043
 1150HOH     H1 3637   3.253   2.552   1.102
 1150HOH     H2 3638   3.176   2.422   1.082
 1151HOH      O 3639   0.098   3.980   2.121
 1151HOH     H1 3640   0.070   4.020   2.038
 1151HOH     H2 3641   0.115   4.055   2.178
 1152HOH      O 3642   2.107   2.788   2.920
 1152HOH     H1 3643   2.196   2.756   2.934
 1152HOH     H2 3644   2.092   2.849   2.992
 1153HOH      O 3645   1.197   1.536   0.119
 1153HOH     H1 3646   1.212   1.492   0.202
 1153HOH     H2 3647   1.102   1.533   0.106
 1154HOH      O 3648   3.893   3.109   1.813
 1154HOH     H1 3649   3.894   3.202   1.788
 1154HOH     H2 3650   3.810   3.076   1.781
 1155HOH      O 3651   0.866   0.094   1.279
 1155HOH     H1 3652   0.861   0.182   1.242
 1155HOH     H2 3653   0.954   0.064   1.257
 1156HOH      O 3654   0.252   3.290   1.987
 1156HOH     H1 3655   0.241   3.196   1.975
 1156HOH     H2 3656   0.167   3.320   2.020
 1157HOH      O 3657   0.960   1.483   3.192
 1157HOH     H1 3658   0.880   1.433   3.175
 1157HOH     H2 3659   1.030   1.429   3.154
 1158HOH      O 3660  -0.014   3.401   2.706
 1158HOH     H1 3661   0.011   3.490   2.682
 1158HOH     H2 3662   0.006   3.394   2.799
 1159HOH      O 3663   2.238   3.172   0.769
 1159HOH     H1 3664   2.181   3.134   0.703
 1159HOH     H2 3665   2.244   3.264   0.746
 1160HOH      O 3666   3.644   2.817   3.940
 1160HOH     H1 3667   3.732   2.829   3.906
 1160HOH     H2 3668   3.590   2.798   3.863
 1161HOH      O 3669   1.975   1.133   0.627
 1161HOH     H1 3670   1.982   1.127   0.722
 1161HOH     H2 3671   1.992   1.226   0.608
 1162HOH      O 3672   2.024   2.273   2.086
 1162HOH     H1 3673   2.066   2.345   2.133
 1162HOH     H2 3674   1.991   2.215   2.154
 1163HOH      O 3675   2.435   1.144   3.064
 1163HOH     H1 3676   2.486   1.182   2.992
 1163HOH     H2 3677   2.471   1.185   3.143
 1164HOH      O 3678   1.033   3.010   1.528
 1164HOH     H1 3679   0.977   3.047   1.596
 1164HOH     H2 3680   1.062   3.086   1.477
 1165HOH      O 3681   1.539   1.460   1.909
 1165HOH     H1 3682   1.623   1.477   1.953
 1165HOH     H2 3683   1.558   1.389   1.848
 1166HOH      O 3684   1.917   2.942   1.689
 1166HOH     H1 3685   1.991   2.949   1.629
 1166HOH     H2 3686   1.843   2.918   1.633
 1167HOH      O 3687   3.379   1.526   3.861
 1167HOH     H1 3688   3.337   1.493   3.940
 1167HOH     H2 3689   3.424   1.450   3.824
 1168HOH      O 3690   0.170   2.086   2.770
 1168HOH     H1 3691   0.246   2.144   2.775
 1168HOH     H2 3692   0.207   1.998   2.779
 1169HOH      O 3693   0.212   0.625   0.923
 1169HOH     H1 3694   0.300   0.663   0.925
 1169HOH     H2 3695   0.224   0.539   0.884
 1170HOH      O 3696   3.427   0.493   1.729
 1170HOH     H1 3697   3.379   0.485   1.647
 1170HOH     H2 3698   3.518   0.504   1.702
 1171HOH      O 3699   1.998   2.808   1.895
 1171HOH     H1 3700   1.978   2.858   1.816
 1171HOH     H2 3701   1.927   2.743   1.901
 1172HOH      O 3702   1.188   1.418   2.509
 1172HOH     H1 3703   1.253   1.483   2.482
 1172HOH     H2 3704   1.229   1.372   2.583
 1173HOH      O 3705   1.740   3.866   1.390
 1173HOH     H1 3706   1.658   3.848   1.343
 1173HOH     H2 3707   1.733   3.958   1.414
 1174HOH      O 3708   2.062   2.967   3.116
 1174HOH     H1 3709   2.027   3.032   3.055
 1174HOH     H2 3710   2.150   2.999   3.138
 1175HOH      O 3711   0.601   3.412   2.980
 1175HOH     H1 3712   0.632   3.324   3.002
 1175HOH     H2 3713   0.642   3.432   2.896
 1176HOH      O 3714   0.923   1.519   2.524
 1176HOH     H1 3715   1.013   1.486   2.523
 1176HOH     H2 3716   0.869   1.443   2.542
 1177HOH      O 3717   1.734   2.354   1.429
 1177HOH     H1 3718   1.758   2.283   1.369
 1177HOH     H2 3719   1.811   2.411   1.431
 1178HOH      O 3720   1.323   1.078   1.483
 1178HOH     H1 3721   1.230   1.095   1.477
 1178HOH     H2 3722   1.365   1.164   1.475
 1179HOH      O 3723  -0.004   3.160   2.282
 1179HOH     H1 3724  -0.011   3.128   2.192
 1179HOH     H2 3725   0.060   3.102   2.323
 1180HOH      O 3726   1.466   1.073   0.133
 1180HOH     H1 3727   1.403   1.001   0.128
 1180HOH     H2 3728   1.413   1.151   0.143
 1181HOH      O 3729   3.264   1.892   0.404
 1181HOH     H1 3730   3.318   1.970   0.413
 1181HOH     H2 3731   3.320   1.821   0.436
 1182HOH      O 3732   1.488   2.549   2.579
 1182HOH     H1 3733   1.441   2.469   2.601
 1182HOH     H2 3734   1.441   2.584   2.503
 1183HOH      O 3735   2.124   3.003   1.013
 1183HOH     H1 3736   2.095   3.018   0.923
 1183HOH     H2 3737   2.219   3.014   1.009
 1184HOH      O 3738   3.295   0.622   2.213
 1184HOH     H1 3739   3.235   0.696   2.205
 1184HOH     H2 3740   3.276   0.568   2.136
 1185HOH      O 3741   2.082   3.317   3.126
 1185HOH     H1 3742   2.171   3.288   3.141
 1185HOH     H2 3743   2.084   3.411   3.145
 1186HOH      O 3744   3.529   0.408   0.168
 1186HOH     H1 3745   3.473   0.394   0.244
 1186HOH     H2 3746   3.476   0.463   0.109
 1187HOH      O 3747   3.517   2.858   0.592
 1187HOH     H1 3748   3.528   2.822   0.505
 1187HOH     H2 3749   3.541   2.787   0.651
 1188HOH      O 3750   2.616   0.505   2.406
 1188HOH     H1 3751   2.665   0.436   2.361
 1188HOH     H2 3752   2.671   0.583   2.398
 1189HOH      O 3753   2.421   1.604   2.489
 1189HOH     H1 3754   2.499   1.596   2.545
 1189HOH     H2 3755   2.434   1.539   2.420
 1190HOH      O 3756   1.928   0.274   3.217
 1190HOH     H1 3757   1.937   0.332   3.293
 1190HOH     H2 3758   1.984   0.313   3.150
 1191HOH      O 3759   1.358   3.326   1.925
 1191HOH     H1 3760   1.394   3.414   1.924
 1191HOH     H2 3761   1.426   3.272   1.966
 1192HOH      O 3762   0.341   3.111   1.531
 1192HOH     H1 3763   0.435   3.121   1.523
 1192HOH     H2 3764   0.326   3.083   1.621
 1193HOH      O 3765   3.605   0.794   0.051
 1193HOH     H1 3766   3.698   0.773   0.060
 1193HOH     H2 3767   3.559   0.720   0.090
 1194HOH      O 3768   1.609   3.511   1.632
 1194HOH     H1 3769   1.609   3.529   1.726
 1194HOH     H2 3770   1.683   3.561   1.598
 1195HOH      O 3771   0.429   3.930   3.298
 1195HOH     H1 3772   0.520   3.957   3.310
 1195HOH     H2 3773   0.406   3.885   3.379
 1196HOH      O 3774   3.558   2.419   2.005
 1196HOH     H1 3775   3.524   2.461   2.084
 1196HOH     H2 3776   3.482   2.409   1.948
 1197HOH      O 3777   1.394   0.286   0.952
 1197HOH     H1 3778   1.436   0.270   1.037
 1197HOH     H2 3779   1.345   0.367   0.965
 1198HOH      O 3780   0.728   0.635   2.527
 1198HOH     H1 3781   0.740   0.724   2.558
 1198HOH     H2 3782   0.685   0.644   2.442
 1199HOH      O 3783   3.980   2.711   1.779
 1199HOH     H1 3784   3.964   2.618   1.791
 1199HOH     H2 3785   4.024   2.738   1.859
 1200HOH      O 3786   0.912   3.369   1.604
 1200HOH     H1 3787   0.907   3.313   1.682
 1200HOH     H2 3788   0.982   3.331   1.552
 1201HOH      O 3789   2.651   0.975   3.341
 1201HOH     H1 3790   2.578   1.030   3.369
 1201HOH     H2 3791   2.614   0.919   3.273
 1202HOH      O 3792   3.548   1.385   0.691
 1202HOH     H1 3793   3.637   1.370   0.659
 1202HOH     H2 3794   3.550   1.474   0.726
 1203HOH      O 3795   2.166   1.621   0.350
 1203HOH     H1 3796   2.219   1.541   0.346
 1203HOH     H2 3797   2.225   1.687   0.385
 1204HOH      O 3798   1.710   1.721   3.575
 1204HOH     H1 3799   1.662   1.692   3.652
 1204HOH     H2 3800   1.791   1.759   3.610
 1205HOH      O 3801   2.467   1.912   3.036
 1205HOH     H1 3802   2.387   1.860   3.043
 1205HOH     H2 3803   2.532   1.850   3.001
 1206HOH      O 3804   2.064   3.362   1.396
 1206HOH     H1 3805   2.101   3.298   1.335
 1206HOH     H2 3806   2.130   3.368   1.466
 1207HOH      O 3807   2.960   3.013   3.981
 1207HOH     H1 3808   3.020   3.056   4.041
 1207HOH     H2 3809   2.978   3.053   3.896
 1208HOH      O 3810   2.775   1.298   0.902
 1208HOH     H1 3811   2.737   1.347   0.974
 1208HOH     H2 3812   2.750   1.207   0.919
 1209HOH      O 3813   0.053   0.996   3.088
 1209HOH     H1 3814   0.131   0.947   3.064
 1209HOH     H2 3815  -0.020   0.936   3.072
 1210HOH      O 3816   1.520   3.645   3.440
 1210HOH     H1 3817   1.544   3.581   3.507
 1210HOH     H2 3818   1.577   3.625   3.366
 1211HOH      O 3819   3.755   2.245   1.397
 1211HOH     H1 3820   3.737   2.177   1.462
 1211HOH     H2 3821   3.678   2.245   1.340
 1212HOH      O 3822   3.893   1.909   1.157
 1212HOH     H1 3823   3.799   1.903   1.172
 1212HOH     H2 3824   3.901   1.950   1.071
 1213HOH      O 3825   0.195   0.102   2.411
 1213HOH     H1 3826   0.197   0.176   2.350
 1213HOH     H2 3827   0.138   0.131   2.482
 1214HOH      O 3828   2.981   3.344   2.722
 1214HOH     H1 3829   3.055   3.404   2.713
 1214HOH     H2 3830   2.905   3.397   2.696
 1215HOH      O 3831   3.568   2.261   2.887
 1215HOH     H1 3832   3.544   2.260   2.980
 1215HOH     H2 3833   3.549   2.350   2.858
 1216HOH      O 3834   0.028   3.027   1.375
 1216HOH     H1 3835  -0.005   2.967   1.308
 1216HOH     H2 3836  -0.002   2.988   1.458
 1217HOH      O 3837   0.126   2.754   0.851
 1217HOH     H1 3838   0.047   2.796   0.817
 1217HOH     H2 3839   0.188   2.826   0.866
 1218HOH      O 3840   1.124   0.817   2.880
 1218HOH     H1 3841   1.074   0.889   2.841
 1218HOH     H2 3842   1.209   0.855   2.901
 1219HOH      O 3843   0.881   3.093   3.092
 1219HOH     H1 3844   0.900   3.007   3.130
 1219HOH     H2 3845   0.951   3.106   3.027
 1220HOH      O 3846   1.238   3.667   1.074
 1220HOH     H1 3847   1.303   3.597   1.083
 1220HOH     H2 3848   1.244   3.694   0.982
 1221HOH      O 3849   2.260   0.165   0.662
 1221HOH     H1 3850   2.337   0.179   0.718
 1221HOH     H2 3851   2.216   0.090   0.701
 1222HOH      O 3852   0.772   2.145   3.148
 1222HOH     H1 3853   0.686   2.148   3.107
 1222HOH     H2 3854   0.834   2.153   3.076
 1223HOH      O 3855   0.207   0.619   0.599
 1223HOH     H1 3856   0.187   0.582   0.513
 1223HOH     H2 3857   0.297   0.593   0.616
 1224HOH      O 3858   1.555   1.622   1.299
 1224HOH     H1 3859   1.561   1.602   1.393
 1224HOH     H2 3860   1.643   1.609   1.265
 1225HOH      O 3861   3.618   1.206   1.572
 1225HOH     H1 3862   3.600   1.140   1.639
 1225HOH     H2 3863   3.667   1.159   1.505
 1226HOH      O 3864   0.306   2.331   0.834
 1226HOH     H1 3865   0.372   2.400   0.842
 1226HOH     H2 3866   0.292   2.323   0.740
 1227HOH      O 3867   0.179   1.565   2.924
 1227HOH     H1 3868   0.094   1.527   2.903
 1227HOH     H2 3869   0.199   1.531   3.011
 1228HOH      O 3870   1.441   0.653   1.535
 1228HOH     H1 3871   1.352   0.619   1.521
 1228HOH     H2 3872   1.427   0.740   1.571
 1229HOH      O 3873   2.214   3.549   1.127
 1229HOH     H1 3874   2.137   3.516   1.082
 1229HOH     H2 3875   2.263   3.597   1.060
 1230HOH      O 3876   1.730   2.804   3.526
 1230HOH     H1 3877   1.825   2.819   3.524
 1230HOH     H2 3878   1.693   2.887   3.553
 1231HOH      O 3879   1.148   1.266   1.023
 1231HOH     H1 3880   1.155   1.354   0.985
 1231HOH     H2 3881   1.222   1.218   0.986
 1232HOH      O 3882   1.051   0.419   2.614
 1232HOH     H1 3883   1.083   0.505   2.643
 1232HOH     H2 3884   0.957   0.432   2.601
 1233HOH      O 3885   3.221   0.836   0.536
 1233HOH     H1 3886   3.290   0.775   0.510
 1233HOH     H2 3887   3.267   0.904   0.585
 1234HOH      O 3888   2.461   0.067   1.541
 1234HOH     H1 3889   2.494   0.148   1.502
 1234HOH     H2 3890   2.428   0.016   1.467
 1235HOH      O 3891   0.374   2.942   3.943
 1235HOH     H1 3892   0.370   3.028   3.985
 1235HOH     H2 3893   0.442   2.952   3.876
 1236HOH      O 3894   0.582   2.418   3.071
 1236HOH     H1 3895   0.628   2.493   3.109
 1236HOH     H2 3896   0.629   2.400   2.990
 1237HOH      O 3897   0.563   1.154   0.861
 1237HOH     H1 3898   0.629   1.220   0.884
 1237HOH     H2 3899   0.516   1.193   0.788
 1238HOH      O 3900   0.388   1.542   4.015
 1238HOH     H1 3901   0.430   1.466   3.976
 1238HOH     H2 3902   0.295   1.521   4.014
 1239HOH      O 3903   1.512   0.898   2.573
 1239HOH     H1 3904   1.557   0.910   2.490
 1239HOH     H2 3905   1.525   0.805   2.595
 1240HOH      O 3906   1.174   0.573   2.398
 1240HOH     H1 3907   1.106   0.556   2.333
 1240HOH     H2 3908   1.134   0.635   2.459
 1241HOH      O 3909   2.156   0.175   1.422
 1241HOH     H1 3910   2.224   0.116   1.455
 1241HOH     H2 3911   2.166   0.173   1.327
 1242HOH      O 3912   0.435   3.668   2.911
 1242HOH     H1 3913   0.492   3.594   2.927
 1242HOH     H2 3914   0.488   3.745   2.934
 1243HOH      O 3915   3.280   3.445   0.368
 1243HOH     H1 3916   3.282   3.527   0.319
 1243HOH     H2 3917   3.317   3.467   0.454
 1244HOH      O 3918   1.996   3.369   2.577
 1244HOH     H1 3919   1.927   3.435   2.574
 1244HOH     H2 3920   2.073   3.417   2.609
 1245HOH      O 3921   0.365   1.238   2.567
 1245HOH     H1 3922   0.336   1.164   2.619
 1245HOH     H2 3923   0.339   1.315   2.618
 1246HOH      O 3924   1.690   1.499   3.412
 1246HOH     H1 3925   1.764   1.489   3.351
 1246HOH     H2 3926   1.709   1.580   3.459
 1247HOH      O 3927   1.204   0.306   0.058
 1247HOH     H1 3928   1.218   0.259  -0.024
 1247HOH     H2 3929   1.181   0.237   0.121
 1248HOH      O 3930   0.444   2.378   1.986
 1248HOH     H1 3931   0.539   2.378   1.978
 1248HOH     H2 3932   0.414   2.436   1.915
 1249HOH      O 3933   3.564   3.158   0.439
 1249HOH     H1 3934   3.595   3.174   0.350
 1249HOH     H2 3935   3.529   3.069   0.437
 1250HOH      O 3936   1.327   3.370   0.697
 1250HOH     H1 3937   1.248   3.425   0.697
 1250HOH     H2 3938   1.357   3.371   0.788
 1251HOH      O 3939   1.497   2.801   0.349
 1251HOH     H1 3940   1.488   2.707   0.366
 1251HOH     H2 3941   1.529   2.806   0.259
 1252HOH      O 3942   1.848   1.205   2.999
 1252HOH     H1 3943   1.916   1.266   2.969
 1252HOH     H2 3944   1.884   1.166   3.079
 1253HOH      O 3945   1.032   2.396   0.635
 1253HOH     H1 3946   1.016   2.346   0.555
 1253HOH     H2 3947   1.047   2.330   0.703
 1254HOH      O 3948   3.812   2.361   2.474
 1254HOH     H1 3949   3.730   2.407   2.454
 1254HOH     H2 3950   3.792   2.311   2.553
 1255HOH      O 3951   1.114   2.292   1.231
 1255HOH     H1 3952   1.178   2.334   1.287
 1255HOH     H2 3953   1.080   2.363   1.176
 1256HOH      O 3954   2.956   0.773   0.991
 1256HOH     H1 3955   3.010   0.701   0.958
 1256HOH     H2 3956   2.997   0.852   0.957
 1257HOH      O 3957   0.331   1.517   1.800
 1257HOH     H1 3958   0.298   1.501   1.711
 1257HOH     H2 3959   0.426   1.511   1.792
 1258HOH      O 3960   2.304   3.223   2.522
 1258HOH     H1 3961   2.245   3.196   2.592
 1258HOH     H2 3962   2.249   3.224   2.443
 1259HOH      O 3963   3.918   1.986   3.958
 1259HOH     H1 3964   3.968   1.944   4.028
 1259HOH     H2 3965   3.827   1.976   3.984
 1260HOH      O 3966   3.742   2.378   0.681
 1260HOH     H1 3967   3.741   2.298   0.629
 1260HOH     H2 3968   3.788   2.442   0.627
 1261HOH      O 3969   0.062   0.621   1.728
 1261HOH     H1 3970   0.036   0.681   1.658
 1261HOH     H2 3971   0.157   0.613   1.718
 1262HOH      O 3972   3.680   1.841   2.137
 1262HOH     H1 3973   3.585   1.836   2.125
 1262HOH     H2 3974   3.704   1.754   2.169
 1263HOH      O 3975   3.927   1.297   1.616
 1263HOH     H1 3976   3.908   1.252   1.698
 1263HOH     H2 3977   3.898   1.387   1.631
 1264HOH      O 3978   0.681   1.173   0.498
 1264HOH     H1 3979   0.590   1.203   0.493
 1264HOH     H2 3980   0.707   1.193   0.588
 1265HOH      O 3981   1.853   3.559   2.813
 1265HOH     H1 3982   1.855   3.654   2.822
 1265HOH     H2 3983   1.833   3.544   2.720
 1266HOH      O 3984   1.496   3.410   2.981
 1266HOH     H1 3985   1.486   3.505   2.989
 1266HOH     H2 3986   1.427   3.384   2.920
 1267HOH      O 3987   3.447   1.223   3.867
 1267HOH     H1 3988   3.506   1.247   3.938
 1267HOH     H2 3989   3.409   1.139   3.895
 1268HOH      O 3990   2.091   1.717   0.642
 1268HOH     H1 3991   2.135   1.722   0.557
 1268HOH     H2 3992   2.106   1.802   0.681
 1269HOH      O 3993   0.496   1.976   2.256
 1269HOH     H1 3994   0.504   2.003   2.164
 1269HOH     H2 3995   0.580   1.999   2.295
 1270HOH      O 3996   2.525   1.985   1.914
 1270HOH     H1 3997   2.608   1.974   1.960
 1270HOH     H2 3998   2.537   2.063   1.861
 1271HOH      O 3999   3.771   0.299   0.201
 1271HOH     H1 4000   3.688   0.346   0.193
 1271HOH     H2 4001   3.834   0.353   0.154
 1272HOH      O 4002   0.341   1.167   3.976
 1272HOH     H1 4003   0.415   1.214   3.939
 1272HOH     H2 4004   0.289   1.142   3.899
 1273HOH      O 4005   1.533   0.207   1.175
 1273HOH     H1 4006   1.619   0.208   1.134
 1273HOH     H2 4007   1.544   0.256   1.257
 1274HOH      O 4008   1.914   1.331   1.527
 1274HOH     H1 4009   1.994   1.362   1.484
 1274HOH     H2 4010   1.883   1.406   1.577
 1275HOH      O 4011   2.086   2.727   1.089
 1275HOH     H1 4012   2.077   2.810   1.042
 1275HOH     H2 4013   2.064   2.748   1.180
 1276HOH      O 4014   2.097   1.208   3.756
 1276HOH     H1 4015   2.121   1.300   3.752
 1276HOH     H2 4016   2.003   1.207   3.740
 1277HOH      O 4017   3.984   1.930   2.088
 1277HOH     H1 4018   4.044   1.999   2.063
 1277HOH     H2 4019   4.040   1.858   2.116
 1278HOH      O 4020   1.568   2.661   1.443
 1278HOH     H1 4021   1.592   2.595   1.508
 1278HOH     H2 4022   1.623   2.640   1.367
 1279HOH      O 4023   3.887   2.025   0.914
 1279HOH     H1 4024   3.860   2.116   0.912
 1279HOH     H2 4025   3.982   2.028   0.903
 1280HOH      O 4026   0.929   3.493   3.477
 1280HOH     H1 4027   0.857   3.500   3.414
 1280HOH     H2 4028   0.927   3.575   3.526
 1281HOH      O 4029   3.783   2.558   1.927
 1281HOH     H1 4030   3.746   2.645   1.942
 1281HOH     H2 4031   3.716   2.498   1.960
 1282HOH      O 4032   3.974   3.595   1.273
 1282HOH     H1 4033   3.978   3.583   1.368
 1282HOH     H2 4034   3.989   3.507   1.237
 1283HOH      O 4035   1.588   3.895   3.829
 1283HOH     H1 4036   1.656   3.853   3.778
 1283HOH     H2 4037   1.506   3.868   3.787
 1284HOH      O 4038   1.276   2.104   3.670
 1284HOH     H1 4039   1.181   2.091   3.675
 1284HOH     H2 4040   1.295   2.110   3.577
 1285HOH      O 4041   2.886   3.192   1.512
 1285HOH     H1 4042   2.800   3.152   1.504
 1285HOH     H2 4043   2.913   3.172   1.602
 1286HOH      O 4044   1.915   1.358   2.227
 1286HOH     H1 4045   1.888   1.424   2.163
 1286HOH     H2 4046   2.008   1.378   2.244
 1287HOH      O 4047   3.014   0.709   1.247
 1287HOH     H1 4048   2.996   0.734   1.157
 1287HOH     H2 4049   3.061   0.784   1.284
 1288HOH      O 4050   0.462   0.696   3.667
 1288HOH     H1 4051   0.374   0.720   3.637
 1288HOH     H2 4052   0.463   0.722   3.759
 1289HOH      O 4053   3.467   2.821   3.736
 1289HOH     H1 4054   3.374   2.801   3.729
 1289HOH     H2 4055   3.473   2.915   3.719
 1290HOH      O 4056   0.815   3.699   0.218
 1290HOH     H1 4057   0.793   3.750   0.296
 1290HOH     H2 4058   0.753   3.729   0.151
 1291HOH      O 4059   1.616   1.723   2.536
 1291HOH     H1 4060   1.635   1.654   2.599
 1291HOH     H2 4061   1.640   1.804   2.581
 1292HOH      O 4062   2.474   0.891   3.888
 1292HOH     H1 4063   2.539   0.930   3.829
 1292HOH     H2 4064   2.390   0.924   3.856
 1293HOH      O 4065   0.676   1.519   0.890
 1293HOH     H1 4066   0.734   1.591   0.915
 1293HOH     H2 4067   0.734   1.444   0.880
 1294HOH      O 4068   2.775   0.301   3.096
 1294HOH     H1 4069   2.738   0.286   3.009
 1294HOH     H2 4070   2.700   0.298   3.155
 1295HOH      O 4071   0.097   1.771   0.842
 1295HOH     H1 4072   0.087   1.866   0.839
 1295HOH     H2 4073   0.192   1.757   0.834
 1296HOH      O 4074   3.019   3.857   1.397
 1296HOH     H1 4075   3.070   3.810   1.462
 1296HOH     H2 4076   3.011   3.946   1.431
 1297HOH      O 4077   1.598   0.290   1.434
 1297HOH     H1 4078   1.681   0.332   1.458
 1297HOH     H2 4079   1.544   0.299   1.512
 1298HOH      O 4080   3.160   1.414   2.996
 1298HOH     H1 4081   3.118   1.330   2.977
 1298HOH     H2 4082   3.168   1.414   3.092
 1299HOH      O 4083   2.502   1.064   2.650
 1299HOH     H1 4084   2.477   1.156   2.643
 1299HOH     H2 4085   2.515   1.036   2.559
 1300HOH      O 4086   1.485   0.123   3.829
 1300HOH     H1 4087   1.564   0.162   3.866
 1300HOH     H2 4088   1.497   0.029   3.840
 1301HOH      O 4089   3.823   0.990   2.682
 1301HOH     H1 4090   3.895   0.959   2.626
 1301HOH     H2 4091   3.805   1.079   2.650
 1302HOH      O 4092   1.152   3.572   0.702
 1302HOH     H1 4093   1.201   3.645   0.742
 1302HOH     H2 4094   1.092   3.544   0.771
 1303HOH      O 4095   1.035   3.752   3.276
 1303HOH     H1 4096   1.013   3.743   3.368
 1303HOH     H2 4097   1.126   3.724   3.270
 1304HOH      O 4098   0.350   3.022   3.055
 1304HOH     H1 4099   0.380   2.935   3.080
 1304HOH     H2 4100   0.429   3.075   3.051
 1305HOH      O 4101   1.833   0.115   1.487
 1305HOH     H1 4102   1.906   0.174   1.471
 1305HOH     H2 4103   1.761   0.150   1.435
 1306HOH      O 4104   2.823   3.890   0.619
 1306HOH     H1 4105   2.880   3.865   0.691
 1306HOH     H2 4106   2.826   3.986   0.619
 1307HOH      O 4107   0.396   2.352   0.540
 1307HOH     H1 4108   0.395   2.447   0.531
 1307HOH     H2 4109   0.485   2.331   0.567
 1308HOH      O 4110   0.935   1.777   3.944
 1308HOH     H1 4111   0.915   1.845   3.880
 1308HOH     H2 4112   0.885   1.801   4.022
 1309HOH      O 4113   1.799   3.404   1.919
 1309HOH     H1 4114   1.847   3.331   1.881
 1309HOH     H2 4115   1.717   3.366   1.951
 1310HOH      O 4116   1.295   1.017   2.219
 1310HOH     H1 4117   1.354   1.037   2.147
 1310HOH     H2 4118   1.334   1.059   2.295
 1311HOH      O 4119   1.302   0.806   1.198
 1311HOH     H1 4120   1.265   0.851   1.274
 1311HOH     H2 4121   1.235   0.811   1.131
 1312HOH      O 4122   2.414   3.977   0.490
 1312HOH     H1 4123   2.401   3.948   0.580
 1312HOH     H2 4124   2.330   4.015   0.465
 1313HOH      O 4125   1.085   0.122   2.868
 1313HOH     H1 4126   1.108   0.038   2.829
 1313HOH     H2 4127   1.111   0.187   2.803
 1314HOH      O 4128   3.150   3.226   0.458
 1314HOH     H1 4129   3.187   3.307   0.423
 1314HOH     H2 4130   3.218   3.191   0.515
 1315HOH      O 4131   3.781   3.096   3.724
 1315HOH     H1 4132   3.768   3.191   3.733
 1315HOH     H2 4133   3.721   3.071   3.653
 1316HOH      O 4134   2.485   3.952   2.175
 1316HOH     H1 4135   2.444   3.958   2.261
 1316HOH     H2 4136   2.446   3.875   2.135
 1317HOH      O 4137   0.464   2.563   0.766
 1317HOH     H1 4138   0.435   2.623   0.834
 1317HOH     H2 4139   0.559   2.573   0.764
 1318HOH      O 4140   2.444   3.674   3.003
 1318HOH     H1 4141   2.493   3.624   3.068
 1318HOH     H2 4142   2.397   3.608   2.952
 1319HOH      O 4143   3.138   1.223   2.136
 1319HOH     H1 4144   3.152   1.258   2.224
 1319HOH     H2 4145   3.217   1.247   2.087
 1320HOH      O 4146   3.409   2.121   2.096
 1320HOH     H1 4147   3.323   2.161   2.083
 1320HOH     H2 4148   3.412   2.052   2.030
 1321HOH      O 4149   1.322   2.897   1.866
 1321HOH     H1 4150   1.375   2.821   1.889
 1321HOH     H2 4151   1.272   2.869   1.790
 1322HOH      O 4152   3.344   3.795   2.151
 1322HOH     H1 4153   3.267   3.740   2.136
 1322HOH     H2 4154   3.389   3.754   2.225
 1323HOH      O 4155   0.042   2.452   0.098
 1323HOH     H1 4156  -0.029   2.477   0.039
 1323HOH     H2 4157   0.055   2.529   0.154
 1324HOH      O 4158   1.455   1.317   0.726
 1324HOH     H1 4159   1.522   1.317   0.794
 1324HOH     H2 4160   1.444   1.225   0.703
 1325HOH      O 4161   0.531   2.135   1.739
 1325HOH     H1 4162   0.485   2.217   1.720
 1325HOH     H2 4163   0.501   2.074   1.672
 1326HOH      O 4164   3.490   3.824   3.085
 1326HOH     H1 4165   3.408   3.826   3.036
 1326HOH     H2 4166   3.549   3.772   3.031
 1327HOH      O 4167   0.402   3.966   2.477
 1327HOH     H1 4168   0.360   3.913   2.546
 1327HOH     H2 4169   0.331   4.020   2.443
 1328HOH      O 4170   3.097   2.513   3.916
 1328HOH     H1 4171   3.172   2.545   3.967
 1328HOH     H2 4172   3.036   2.586   3.914
 1329HOH      O 4173   1.928   0.322   2.750
 1329HOH     H1 4174   1.893   0.410   2.734
 1329HOH     H2 4175   1.919   0.277   2.667
 1330HOH      O 4176   1.928   3.574   0.754
 1330HOH     H1 4177   1.968   3.505   0.807
 1330HOH     H2 4178   1.948   3.549   0.664
 1331HOH      O 4179   1.073   1.934   3.470
 1331HOH     H1 4180   1.045   1.856   3.423
 1331HOH     H2 4181   1.026   2.006   3.429
 1332HOH      O 4182   0.987   2.932   0.754
 1332HOH     H1 4183   0.951   2.939   0.665
 1332HOH     H2 4184   1.073   2.974   0.748
 1333HOH      O 4185   2.201   2.925   2.632
 1333HOH     H1 4186   2.205   3.012   2.672
 1333HOH     H2 4187   2.189   2.866   2.706
 1334HOH      O 4188   2.037   2.690   2.615
 1334HOH     H1 4189   2.035   2.609   2.566
 1334HOH     H2 4190   2.098   2.746   2.567
 1335HOH      O 4191   3.655   3.235   0.188
 1335HOH     H1 4192   3.643   3.184   0.108
 1335HOH     H2 4193   3.696   3.317   0.159
 1336HOH      O 4194   2.248   0.609   1.400
 1336HOH     H1 4195   2.296   0.620   1.318
 1336HOH     H2 4196   2.156   0.599   1.373
 1337HOH      O 4197   3.613   3.602   2.617
 1337HOH     H1 4198   3.558   3.527   2.594
 1337HOH     H2 4199   3.677   3.567   2.679
 1338HOH      O 4200   0.106   3.685   0.444
 1338HOH     H1 4201   0.139   3.764   0.401
 1338HOH     H2 4202   0.011   3.691   0.437
 1339HOH      O 4203   0.732   1.618   0.473
 1339HOH     H1 4204   0.782   1.695   0.445
 1339HOH     H2 4205   0.798   1.554   0.499
 1340HOH      O 4206   0.499   2.781   1.492
 1340HOH     H1 4207   0.408   2.770   1.516
 1340HOH     H2 4208   0.539   2.826   1.566
 1341HOH      O 4209   0.485   0.563   0.644
 1341HOH     H1 4210   0.522   0.497   0.585
 1341HOH     H2 4211   0.559   0.619   0.667
 1342HOH      O 4212   0.600   2.092   3.815
 1342HOH     H1 4213   0.580   2.170   3.764
 1342HOH     H2 4214   0.688   2.066   3.787
 1343HOH      O 4215   1.489   3.163   0.220
 1343HOH     H1 4216   1.417   3.153   0.157
 1343HOH     H2 4217   1.458   3.228   0.282
 1344HOH      O 4218   0.956   2.856   3.204
 1344HOH     H1 4219   0.865   2.851   3.235
 1344HOH     H2 4220   0.999   2.782   3.247
 1345HOH      O 4221   0.200   3.570   1.524
 1345HOH     H1 4222   0.210   3.665   1.529
 1345HOH     H2 4223   0.279   3.536   1.565
 1346HOH      O 4224   2.903   0.140   0.619
 1346HOH     H1 4225   2.934   0.224   0.587
 1346HOH     H2 4226   2.863   0.160   0.704
 1347HOH      O 4227   3.419   1.151   0.248
 1347HOH     H1 4228   3.342   1.099   0.224
 1347HOH     H2 4229   3.485   1.085   0.272
 1348HOH      O 4230   2.245   2.186   1.482
 1348HOH     H1 4231   2.290   2.249   1.427
 1348HOH     H2 4232   2.291   2.189   1.566
 1349HOH      O 4233   3.649   2.900   1.538
 1349HOH     H1 4234   3.743   2.890   1.521
 1349HOH     H2 4235   3.644   2.946   1.622
 1350HOH      O 4236   2.153   3.648   1.890
 1350HOH     H1 4237   2.074   3.671   1.940
 1350HOH     H2 4238   2.151   3.707   1.815
 1351HOH      O 4239   0.112   1.488   3.991
 1351HOH     H1 4240   0.086   1.406   3.950
 1351HOH     H2 4241   0.032   1.519   4.035
 1352HOH      O 4242   2.489   0.351   3.658
 1352HOH     H1 4243   2.406   0.305   3.664
 1352HOH     H2 4244   2.493   0.383   3.568
 1353HOH      O 4245   2.348   2.658   2.281
 1353HOH     H1 4246   2.416   2.718   2.250
 1353HOH     H2 4247   2.279   2.715   2.315
 1354HOH      O 4248   1.932   0.693   0.837
 1354HOH     H1 4249   1.990   0.764   0.864
 1354HOH     H2 4250   1.969   0.615   0.877
 1355HOH      O 4251   3.066   3.677   3.709
 1355HOH     H1 4252   3.023   3.761   3.720
 1355HOH     H2 4253   3.072   3.640   3.797
 1356HOH      O 4254   1.087   0.075   0.236
 1356HOH     H1 4255   1.128   0.031   0.310
 1356HOH     H2 4256   1.040   0.149   0.275
 1357HOH      O 4257   1.567   0.882   2.933
 1357HOH     H1 4258   1.572   0.801   2.882
 1357HOH     H2 4259   1.615   0.862   3.013
 1358HOH      O 4260   3.122   0.566   1.636
 1358HOH     H1 4261   3.145   0.518   1.556
 1358HOH     H2 4262   3.154   0.655   1.621
 1359HOH      O 4263   3.869   0.949   1.146
 1359HOH     H1 4264   3.946   0.892   1.149
 1359HOH     H2 4265   3.876   0.995   1.062
 1360HOH      O 4266   3.954   2.413   1.759
 1360HOH     H1 4267   3.895   2.362   1.703
 1360HOH     H2 4268   3.906   2.421   1.842
 1361HOH      O 4269   0.239   3.536   0.626
 1361HOH     H1 4270   0.216   3.607   0.567
 1361HOH     H2 4271   0.210   3.457   0.581
 1362HOH      O 4272   3.249   1.468   3.622
 1362HOH     H1 4273   3.288   1.496   3.704
 1362HOH     H2 4274   3.198   1.390   3.645
 1363HOH      O 4275   1.700   0.887   3.752
 1363HOH     H1 4276   1.714   0.792   3.757
 1363HOH     H2 4277   1.695   0.914   3.844
 1364HOH      O 4278   2.129   3.416   0.021
 1364HOH     H1 4279   2.206   3.406  -0.034
 1364HOH     H2 4280   2.131   3.340   0.079
 1365HOH      O 4281   2.899   3.318   3.866
 1365HOH     H1 4282   2.936   3.279   3.787
 1365HOH     H2 4283   2.809   3.284   3.869
 1366HOH      O 4284   1.212   3.588   0.382
 1366HOH     H1 4285   1.150   3.530   0.338
 1366HOH     H2 4286   1.217   3.556   0.472
 1367HOH      O 4287   3.034   2.524   0.752
 1367HOH     H1 4288   3.022   2.505   0.846
 1367HOH     H2 4289   2.970   2.593   0.734
 1368HOH      O 4290   2.518   0.065   2.701
 1368HOH     H1 4291   2.544   0.150   2.664
 1368HOH     H2 4292   2.490   0.085   2.790
 1369HOH      O 4293   1.345   1.352   3.674
 1369HOH     H1 4294   1.366   1.398   3.592
 1369HOH     H2 4295   1.274   1.404   3.712
 1370HOH      O 4296   0.971   1.149   0.455
 1370HOH     H1 4297   0.888   1.139   0.409
 1370HOH     H2 4298   1.038   1.126   0.390
 1371HOH      O 4299   2.913   2.910   1.010
 1371HOH     H1 4300   2.961   2.948   0.936
 1371HOH     H2 4301   2.861   2.982   1.044
 1372HOH      O 4302   1.327   2.043   2.048
 1372HOH     H1 4303   1.335   2.121   1.992
 1372HOH     H2 4304   1.269   1.985   1.999
 1373HOH      O 4305   3.812   3.382   4.014
 1373HOH     H1 4306   3.754   3.393   3.938
 1373HOH     H2 4307   3.868   3.308   3.990
 1374HOH      O 4308   1.056   2.506   1.059
 1374HOH     H1 4309   0.991   2.553   1.007
 1374HOH     H2 4310   1.105   2.574   1.104
 1375HOH      O 4311   1.440   1.533   2.425
 1375HOH     H1 4312   1.483   1.617   2.439
 1375HOH     H2 4313   1.512   1.470   2.423
 1376HOH      O 4314   2.836   3.797   3.033
 1376HOH     H1 4315   2.768   3.851   3.074
 1376HOH     H2 4316   2.908   3.798   3.096
 1377HOH      O 4317   3.553   2.262   3.512
 1377HOH     H1 4318   3.489   2.333   3.517
 1377HOH     H2 4319   3.543   2.215   3.594
 1378HOH      O 4320   2.514   2.727   1.166
 1378HOH     H1 4321   2.588   2.715   1.225
 1378HOH     H2 4322   2.554   2.736   1.079
 1379HOH      O 4323   1.401   1.847   0.412
 1379HOH     H1 4324   1.445   1.929   0.435
 1379HOH     H2 4325   1.448   1.780   0.462
 1380HOH      O 4326   2.354   2.280   1.193
 1380HOH     H1 4327   2.329   2.364   1.154
 1380HOH     H2 4328   2.402   2.303   1.272
 1381HOH      O 4329   0.326   1.192   3.493
 1381HOH     H1 4330   0.398   1.235   3.539
 1381HOH     H2 4331   0.327   1.231   3.405
 1382HOH      O 4332   1.837   2.630   2.385
 1382HOH     H1 4333   1.882   2.556   2.427
 1382HOH     H2 4334   1.823   2.693   2.456
 1383HOH      O 4335   2.868   1.729   2.665
 1383HOH     H1 4336   2.868   1.821   2.691
 1383HOH     H2 4337   2.951   1.694   2.697
 1384HOH      O 4338   2.457   0.011   2.966
 1384HOH     H1 4339   2.375   0.022   3.013
 1384HOH     H2 4340   2.521  -0.012   3.034
 1385HOH      O 4341   3.965   3.886   1.360
 1385HOH     H1 4342   3.873   3.860   1.362
 1385HOH     H2 4343   4.013   3.804   1.353
 1386HOH      O 4344   0.282   1.490   3.171
 1386HOH     H1 4345   0.377   1.483   3.172
 1386HOH     H2 4346   0.251   1.399   3.173
 1387HOH      O 4347   1.655   0.138   2.809
 1387HOH     H1 4348   1.693   0.153   2.896
 1387HOH     H2 4349   1.728   0.146   2.749
 1388HOH      O 4350   3.596   0.076   2.152
 1388HOH     H1 4351   3.631   0.150   2.202
 1388HOH     H2 4352   3.546   0.026   2.216
 1389HOH      O 4353   2.655   0.423   0.083
 1389HOH     H1 4354   2.626   0.332   0.091
 1389HOH     H2 4355   2.624   0.464   0.164
 1390HOH      O 4356   2.532   3.339   0.192
 1390HOH     H1 4357   2.597   3.297   0.136
 1390HOH     H2 4358   2.497   3.411   0.139
 1391HOH      O 4359   2.216   3.756   2.583
 1391HOH     H1 4360   2.205   3.661   2.593
 1391HOH     H2 4361   2.258   3.783   2.664
 1392HOH      O 4362   0.777   0.301   0.128
 1392HOH     H1 4363   0.768   0.209   0.104
 1392HOH     H2 4364   0.687   0.330   0.144
 1393HOH      O 4365   0.571   1.507   3.072
 1393HOH     H1 4366   0.570   1.427   3.124
 1393HOH     H2 4367   0.583   1.476   2.982
 1394HOH      O 4368   0.024   2.502   0.907
 1394HOH     H1 4369   0.041   2.595   0.890
 1394HOH     H2 4370   0.091   2.456   0.858
 1395HOH      O 4371   1.103   0.037   3.231
 1395HOH     H1 4372   1.175   0.050   3.169
 1395HOH     H2 4373   1.126  -0.044   3.277
 1396HOH      O 4374   0.336   2.690   4.033
 1396HOH     H1 4375   0.333   2.642   3.951
 1396HOH     H2 4376   0.358   2.780   4.007
 1397HOH      O 4377   0.715   2.765   2.938
 1397HOH     H1 4378   0.653   2.812   2.993
 1397HOH     H2 4379   0.783   2.736   2.999
 1398HOH      O 4380   1.420   3.550   0.107
 1398HOH     H1 4381   1.411   3.530   0.014
 1398HOH     H2 4382   1.371   3.480   0.151
 1399HOH      O 4383   3.197   3.327   0.126
 1399HOH     H1 4384   3.164   3.248   0.168
 1399HOH     H2 4385   3.257   3.366   0.190
 1400HOH      O 4386   1.961   3.751   2.029
 1400HOH     H1 4387   2.012   3.828   2.003
 1400HOH     H2 4388   1.883   3.754   1.974
 1401HOH      O 4389   1.210   2.768   2.986
 1401HOH     H1 4390   1.304   2.766   2.967
 1401HOH     H2 4391   1.200   2.836   3.053
 1402HOH      O 4392   3.378   0.954   3.925
 1402HOH     H1 4393   3.360   0.869   3.885
 1402HOH     H2 4394   3.372   0.938   4.019
 1403HOH      O 4395   1.861   3.139   2.662
 1403HOH     H1 4396   1.929   3.204   2.642
 1403HOH     H2 4397   1.809   3.179   2.731
 1404HOH      O 4398   0.528   1.778   3.004
 1404HOH     H1 4399   0.458   1.713   2.996
 1404HOH     H2 4400   0.608   1.731   2.979
 1405HOH      O 4401   3.419   1.651   1.966
 1405HOH     H1 4402   3.376   1.586   1.910
 1405HOH     H2 4403   3.497   1.607   1.999
 1406HOH      O 4404   2.106   1.156   0.361
 1406HOH     H1 4405   2.055   1.161   0.442
 1406HOH     H2 4406   2.171   1.226   0.370
 1407HOH      O 4407   0.867   2.235   2.886
 1407HOH     H1 4408   0.915   2.190   2.816
 1407HOH     H2 4409   0.775   2.216   2.867
 1408HOH      O 4410   2.045   3.872   3.024
 1408HOH     H1 4411   1.966   3.905   3.068
 1408HOH     H2 4412   2.015   3.846   2.937
 1409HOH      O 4413   1.640   2.307   0.658
 1409HOH     H1 4414   1.653   2.316   0.753
 1409HOH     H2 4415   1.725   2.277   0.626
 1410HOH      O 4416   0.975   2.621   2.511
 1410HOH     H1 4417   0.973   2.525   2.515
 1410HOH     H2 4418   1.004   2.641   2.423
 1411HOH      O 4419   1.861   2.416   3.186
 1411HOH     H1 4420   1.798   2.463   3.239
 1411HOH     H2 4421   1.923   2.379   3.250
 1412HOH      O 4422   0.530   3.413   1.354
 1412HOH     H1 4423   0.530   3.330   1.306
 1412HOH     H2 4424   0.467   3.468   1.308
 1413HOH      O 4425   3.236   3.865   1.237
 1413HOH     H1 4426   3.153   3.842   1.280
 1413HOH     H2 4427   3.295   3.888   1.310
 1414HOH      O 4428   0.279   1.419   0.796
 1414HOH     H1 4429   0.339   1.488   0.825
 1414HOH     H2 4430   0.209   1.466   0.749
 1415HOH      O 4431   1.920   1.952   2.348
 1415HOH     H1 4432   1.939   2.032   2.396
 1415HOH     H2 4433   1.933   1.974   2.256
 1416HOH      O 4434   1.494   2.332   1.547
 1416HOH     H1 4435   1.433   2.389   1.500
 1416HOH     H2 4436   1.578   2.348   1.503
 1417HOH      O 4437   4.003   0.534   3.167
 1417HOH     H1 4438   3.929   0.477   3.149
 1417HOH     H2 4439   4.051   0.538   3.084
 1418HOH      O 4440   1.052   1.820   2.303
 1418HOH     H1 4441   1.053   1.753   2.235
 1418HOH     H2 4442   1.144   1.838   2.320
 1419HOH      O 4443   3.908   0.378   1.872
 1419HOH     H1 4444   3.891   0.426   1.790
 1419HOH     H2 4445   3.917   0.287   1.844
 1420HOH      O 4446   2.325   0.407   0.091
 1420HOH     H1 4447   2.338   0.319   0.057
 1420HOH     H2 4448   2.236   0.405   0.127
 1421HOH      O 4449   3.668   3.699   3.882
 1421HOH     H1 4450   3.737   3.747   3.836
 1421HOH     H2 4451   3.645   3.755   3.956
 1422HOH      O 4452   1.301   0.299   2.730
 1422HOH     H1 4453   1.354   0.377   2.749
 1422HOH     H2 4454   1.240   0.328   2.662
 1423HOH      O 4455   1.384   0.431   0.247
 1423HOH     H1 4456   1.336   0.509   0.222
 1423HOH     H2 4457   1.361   0.366   0.181
 1424HOH      O 4458   1.293   1.496   2.175
 1424HOH     H1 4459   1.324   1.489   2.266
 1424HOH     H2 4460   1.369   1.528   2.126
 1425HOH      O 4461   1.727   3.078   1.232
 1425HOH     H1 4462   1.701   2.996   1.275
 1425HOH     H2 4463   1.737   3.141   1.304
 1426HOH      O 4464   1.174   2.635   0.331
 1426HOH     H1 4465   1.151   2.542   0.329
 1426HOH     H2 4466   1.218   2.646   0.416
 1427HOH      O 4467   3.561   2.697   0.956
 1427HOH     H1 4468   3.590   2.672   1.044
 1427HOH     H2 4469   3.607   2.780   0.940
 1428HOH      O 4470   2.940   2.734   3.930
 1428HOH     H1 4471   2.853   2.713   3.963
 1428HOH     H2 4472   2.944   2.830   3.932
 1429HOH      O 4473   2.286   1.363   0.368
 1429HOH     H1 4474   2.361   1.348   0.425
 1429HOH     H2 4475   2.316   1.334   0.281
 1430HOH      O 4476   0.153   3.037   0.219
 1430HOH     H1 4477   0.195   2.970   0.273
 1430HOH     H2 4478   0.067   3.049   0.259
 1431HOH      O 4479   3.557   0.116   0.981
 1431HOH     H1 4480   3.552   0.029   1.018
 1431HOH     H2 4481   3.492   0.167   1.029
 1432HOH      O 4482   3.997   3.653   3.461
 1432HOH     H1 4483   4.035   3.678   3.377
 1432HOH     H2 4484   3.942   3.728   3.486
 1433HOH      O 4485   2.286   3.772   0.042
 1433HOH     H1 4486   2.242   3.821   0.112
 1433HOH     H2 4487   2.286   3.831  -0.033
 1434HOH      O 4488   3.827   3.450   3.433
 1434HOH     H1 4489   3.888   3.523   3.444
 1434HOH     H2 4490   3.831   3.429   3.340
 1435HOH      O 4491   1.233   2.247   1.639
 1435HOH     H1 4492   1.276   2.333   1.633
 1435HOH     H2 4493   1.303   2.188   1.668
 1436HOH      O 4494   0.313   3.359   2.291
 1436HOH     H1 4495   0.302   3.362   2.386
 1436HOH     H2 4496   0.232   3.399   2.257
 1437HOH      O 4497   2.744   2.641   2.044
 1437HOH     H1 4498   2.754   2.554   2.083
 1437HOH     H2 4499   2.824   2.653   1.993
 1438HOH      O 4500   3.363   1.297   0.540
 1438HOH     H1 4501   3.348   1.204   0.556
 1438HOH     H2 4502   3.439   1.319   0.594
 1439HOH      O 4503   1.618   1.367   0.029
 1439HOH     H1 4504   1.571   1.447   0.054
 1439HOH     H2 4505   1.708   1.397   0.012
 1440HOH      O 4506   0.517   4.011   3.911
 1440HOH     H1 4507   0.442   3.960   3.881
 1440HOH     H2 4508   0.494   4.102   3.891
 1441HOH      O 4509   1.786   2.144   3.179
 1441HOH     H1 4510   1.805   2.238   3.176
 1441HOH     H2 4511   1.846   2.109   3.245
 1442HOH      O 4512   2.635   1.459   0.750
 1442HOH     H1 4513   2.711   1.507   0.716
 1442HOH     H2 4514   2.673   1.391   0.805
 1443HOH      O 4515   0.685   3.279   2.513
 1443HOH     H1 4516   0.764   3.230   2.492
 1443HOH     H2 4517   0.708   3.370   2.494
 1444HOH      O 4518   0.648   3.617   3.480
 1444HOH     H1 4519   0.729   3.665   3.501
 1444HOH     H2 4520   0.581   3.685   3.476
 1445HOH      O 4521   2.956   0.079   1.588
 1445HOH     H1 4522   2.946   0.088   1.683
 1445HOH     H2 4523   2.889   0.138   1.552
 1446HOH      O 4524   1.444   2.471   0.908
 1446HOH     H1 4525   1.536   2.445   0.898
 1446HOH     H2 4526   1.425   2.521   0.829
 1447HOH      O 4527   1.514   2.641   0.674
 1447HOH     H1 4528   1.439   2.684   0.633
 1447HOH     H2 4529   1.557   2.594   0.603
 1448HOH      O 4530   3.968   1.997   3.512
 1448HOH     H1 4531   3.894   2.000   3.573
 1448HOH     H2 4532   4.028   2.064   3.543
 1449HOH      O 4533   2.471   1.677   3.934
 1449HOH     H1 4534   2.471   1.615   4.006
 1449HOH     H2 4535   2.517   1.631   3.863
 1450HOH      O 4536   1.376   3.080   2.349
 1450HOH     H1 4537   1.337   3.077   2.437
 1450HOH     H2 4538   1.441   3.150   2.354
 1451HOH      O 4539   2.311   0.873   2.725
 1451HOH     H1 4540   2.363   0.946   2.691
 1451HOH     H2 4541   2.355   0.795   2.692
 1452HOH      O 4542   2.708   2.170   0.381
 1452HOH     H1 4543   2.621   2.140   0.353
 1452HOH     H2 4544   2.754   2.187   0.299
 1453HOH      O 4545   1.981   0.558   0.567
 1453HOH     H1 4546   2.038   0.509   0.626
 1453HOH     H2 4547   2.023   0.643   0.558
 1454HOH      O 4548   0.646   2.239   3.463
 1454HOH     H1 4549   0.583   2.285   3.408
 1454HOH     H2 4550   0.631   2.272   3.551
 1455HOH      O 4551   1.398   1.610   1.592
 1455HOH     H1 4552   1.310   1.643   1.608
 1455HOH     H2 4553   1.448   1.634   1.670
 1456HOH      O 4554   2.896   3.436   1.640
 1456HOH     H1 4555   2.813   3.479   1.619
 1456HOH     H2 4556   2.903   3.365   1.577
 1457HOH      O 4557   1.298   3.012   2.603
 1457HOH     H1 4558   1.257   2.927   2.621
 1457HOH     H2 4559   1.362   3.022   2.673
 1458HOH      O 4560   3.428   1.580   2.249
 1458HOH     H1 4561   3.396   1.670   2.241
 1458HOH     H2 4562   3.386   1.533   2.178
 1459HOH      O 4563   3.893   2.881   3.840
 1459HOH     H1 4564   3.849   2.952   3.793
 1459HOH     H2 4565   3.984   2.909   3.847
 1460HOH      O 4566   0.779   0.121   0.426
 1460HOH     H1 4567   0.849   0.180   0.400
 1460HOH     H2 4568   0.709   0.178   0.457
 1461HOH      O 4569   2.863   2.809   2.644
 1461HOH     H1 4570   2.804   2.884   2.646
 1461HOH     H2 4571   2.879   2.794   2.551
 1462HOH      O 4572   2.037   2.442   0.566
 1462HOH     H1 4573   2.078   2.465   0.483
 1462HOH     H2 4574   2.064   2.513   0.626
 1463HOH      O 4575   3.189   1.241   2.645
 1463HOH     H1 4576   3.123   1.297   2.686
 1463HOH     H2 4577   3.268   1.254   2.698
 1464HOH      O 4578   3.221   0.023   3.110
 1464HOH     H1 4579   3.264   0.032   3.025
 1464HOH     H2 4580   3.169   0.104   3.118
 1465HOH      O 4581   0.294   3.814   2.691
 1465HOH     H1 4582   0.231   3.852   2.752
 1465HOH     H2 4583   0.358   3.770   2.748
 1466HOH      O 4584   2.468   1.121   1.948
 1466HOH     H1 4585   2.426   1.063   2.012
 1466HOH     H2 4586   2.439   1.088   1.863
 1467HOH      O 4587   3.691   3.534   2.226
 1467HOH     H1 4588   3.716   3.447   2.196
 1467HOH     H2 4589   3.616   3.558   2.172
 1468HOH      O 4590   0.335   0.544   1.735
 1468HOH     H1 4591   0.382   0.461   1.741
 1468HOH     H2 4592   0.370   0.587   1.657
 1469HOH      O 4593   1.575   2.811   0.085
 1469HOH     H1 4594   1.651   2.846   0.132
 1469HOH     H2 4595   1.554   2.878   0.020
 1470HOH      O 4596   2.856   2.020   1.221
 1470HOH     H1 4597   2.793   2.071   1.272
 1470HOH     H2 4598   2.819   1.931   1.220
 1471HOH      O 4599   1.066   3.925   3.737
 1471HOH     H1 4600   0.995   3.982   3.768
 1471HOH     H2 4601   1.141   3.983   3.729
 1472HOH      O 4602   0.870   3.875   0.426
 1472HOH     H1 4603   0.954   3.884   0.381
 1472HOH     H2 4604   0.852   3.963   0.460
 1473HOH      O 4605   1.121   2.303   3.067
 1473HOH     H1 4606   1.041   2.290   3.016
 1473HOH     H2 4607   1.148   2.215   3.092
 1474HOH      O 4608   1.995   0.714   3.859
 1474HOH     H1 4609   2.070   0.655   3.869
 1474HOH     H2 4610   2.008   0.781   3.926
 1475HOH      O 4611   3.314   3.693   0.757
 1475HOH     H1 4612   3.405   3.725   0.762
 1475HOH     H2 4613   3.265   3.751   0.814
 1476HOH      O 4614   0.439   0.690   1.543
 1476HOH     H1 4615   0.455   0.771   1.591
 1476HOH     H2 4616   0.527   0.655   1.526
 1477HOH      O 4617   2.853   2.364   3.887
 1477HOH     H1 4618   2.943   2.395   3.872
 1477HOH     H2 4619   2.834   2.310   3.810
 1478HOH      O 4620   3.394   1.343   2.840
 1478HOH     H1 4621   3.318   1.399   2.853
 1478HOH     H2 4622   3.408   1.302   2.926
 1479HOH      O 4623   3.658   2.018   2.940
 1479HOH     H1 4624   3.621   2.002   3.027
 1479HOH     H2 4625   3.638   2.109   2.922
 1480HOH      O 4626   0.864   2.003   3.769
 1480HOH     H1 4627   0.914   2.077   3.734
 1480HOH     H2 4628   0.838   1.953   3.692
 1481HOH      O 4629   2.706   0.499   0.373
 1481HOH     H1 4630   2.686   0.449   0.452
 1481HOH     H2 4631   2.633   0.560   0.365
 1482HOH      O 4632   0.622   2.521   2.356
 1482HOH     H1 4633   0.677   2.476   2.291
 1482HOH     H2 4634   0.629   2.467   2.435
 1483HOH      O 4635   0.458   2.660   0.420
 1483HOH     H1 4636   0.460   2.725   0.490
 1483HOH     H2 4637   0.515   2.696   0.352
 1484HOH      O 4638   2.306   0.152   1.190
 1484HOH     H1 4639   2.392   0.149   1.231
 1484HOH     H2 4640   2.312   0.222   1.126
 1485HOH      O 4641   3.337   1.012   2.803
 1485HOH     H1 4642   3.337   0.955   2.880
 1485HOH     H2 4643   3.298   1.093   2.834
 1486HOH      O 4644   1.027   3.825   1.145
 1486HOH     H1 4645   1.113   3.795   1.115
 1486HOH     H2 4646   0.968   3.753   1.126
 1487HOH      O 4647   0.992   3.312   0.624
 1487HOH     H1 4648   1.041   3.250   0.570
 1487HOH     H2 4649   1.034   3.396   0.609
 1488HOH      O 4650   3.750   0.312   1.143
 1488HOH     H1 4651   3.697   0.392   1.144
 1488HOH     H2 4652   3.692   0.246   1.106
 1489HOH      O 4653   2.630   2.618   2.465
 1489HOH     H1 4654   2.584   2.699   2.442
 1489HOH     H2 4655   2.664   2.634   2.553
 1490HOH      O 4656   1.096   2.101   0.187
 1490HOH     H1 4657   1.190   2.118   0.177
 1490HOH     H2 4658   1.090   2.049   0.267
 1491HOH      O 4659   3.532   2.282   3.168
 1491HOH     H1 4660   3.542   2.212   3.233
 1491HOH     H2 4661   3.461   2.337   3.202
 1492HOH      O 4662   2.847   2.832   2.323
 1492HOH     H1 4663   2.771   2.858   2.271
 1492HOH     H2 4664   2.920   2.882   2.285
 1493HOH      O 4665   0.549   0.571   2.730
 1493HOH     H1 4666   0.625   0.607   2.684
 1493HOH     H2 4667   0.580   0.554   2.818
 1494HOH      O 4668   1.990   0.538   1.247
 1494HOH     H1 4669   1.912   0.588   1.224
 1494HOH     H2 4670   2.036   0.525   1.164
 1495HOH      O 4671   2.784   0.295   1.507
 1495HOH     H1 4672   2.830   0.360   1.453
 1495HOH     H2 4673   2.735   0.348   1.571
 1496HOH      O 4674   0.529   3.203   3.643
 1496HOH     H1 4675   0.532   3.146   3.720
 1496HOH     H2 4676   0.464   3.163   3.586
 1497HOH      O 4677   3.656   2.998   1.239
 1497HOH     H1 4678   3.683   2.981   1.330
 1497HOH     H2 4679   3.580   2.941   1.225
 1498HOH      O 4680   3.859   0.500   2.334
 1498HOH     H1 4681   3.951   0.474   2.335
 1498HOH     H2 4682   3.858   0.584   2.288
 1499HOH      O 4683   1.774   3.686   3.290
 1499HOH     H1 4684   1.740   3.767   3.327
 1499HOH     H2 4685   1.701   3.650   3.240
 1500HOH      O 4686   0.052   2.807   2.006
 1500HOH     H1 4687   0.012   2.743   2.065
 1500HOH     H2 4688   0.144   2.809   2.031
 1501HOH      O 4689   0.358   3.798   3.841
 1501HOH     H1 4690   0.265   3.804   3.819
 1501HOH     H2 4691   0.362   3.735   3.913
 1502HOH      O 4692   2.130   2.644   0.746
 1502HOH     H1 4693   2.156   2.701   0.674
 1502HOH     H2 4694   2.112   2.704   0.818
 1503HOH      O 4695   1.440   2.562   1.190
 1503HOH     H1 4696   1.534   2.576   1.199
 1503HOH     H2 4697   1.427   2.539   1.098
 1504HOH      O 4698   1.479   3.019   2.815
 1504HOH     H1 4699   1.557   3.004   2.762
 1504HOH     H2 4700   1.475   2.942   2.873
 1505HOH      O 4701   2.993   1.888   0.340
 1505HOH     H1 4702   2.948   1.950   0.398
 1505HOH     H2 4703   3.078   1.873   0.381
 1506HOH      O 4704   0.374   1.662   2.039
 1506HOH     H1 4705   0.299   1.684   2.094
 1506HOH     H2 4706   0.335   1.619   1.963
 1507HOH      O 4707   3.529   1.474   3.167
 1507HOH     H1 4708   3.463   1.543   3.158
 1507HOH     H2 4709   3.608   1.510   3.128
 1508HOH      O 4710   1.525   2.305   2.178
 1508HOH     H1 4711   1.524   2.238   2.246
 1508HOH     H2 4712   1.613   2.343   2.182
 1509HOH      O 4713   1.074   0.332   1.726
 1509HOH     H1 4714   1.159   0.294   1.745
 1509HOH     H2 4715   1.011   0.266   1.755
 1510HOH      O 4716   2.379   3.992   3.377
 1510HOH     H1 4717   2.291   4.029   3.373
 1510HOH     H2 4718   2.391   3.949   3.292
 1511HOH      O 4719   2.082   1.205   1.296
 1511HOH     H1 4720   2.168   1.187   1.259
 1511HOH     H2 4721   2.046   1.118   1.315
 1512HOH      O 4722   3.372   3.505   1.982
 1512HOH     H1 4723   3.431   3.435   1.954
 1512HOH     H2 4724   3.343   3.546   1.901
 1513HOH      O 4725   0.579   2.367   3.713
 1513HOH     H1 4726   0.487   2.394   3.720
 1513HOH     H2 4727   0.627   2.448   3.700
 1514HOH      O 4728   3.730   1.587   0.202
 1514HOH     H1 4729   3.725   1.670   0.250
 1514HOH     H2 4730   3.711   1.520   0.268
 1515HOH      O 4731   1.817   2.593   1.784
 1515HOH     H1 4732   1.805   2.512   1.833
 1515HOH     H2 4733   1.761   2.657   1.829
 1516HOH      O 4734   0.926   2.960   0.484
 1516HOH     H1 4735   0.908   2.890   0.422
 1516HOH     H2 4736   0.998   3.009   0.443
 1517HOH      O 4737   3.270   0.462   3.075
 1517HOH     H1 4738   3.195   0.428   3.027
 1517HOH     H2 4739   3.303   0.387   3.124
 1518HOH      O 4740   3.596   0.990   0.682
 1518HOH     H1 4741   3.640   1.032   0.609
 1518HOH     H2 4742   3.636   0.903   0.688
 1519HOH      O 4743   0.306   0.235   3.056
 1519HOH     H1 4744   0.341   0.323   3.070
 1519HOH     H2 4745   0.380   0.183   3.027
 1520HOH      O 4746   3.668   3.714   2.926
 1520HOH     H1 4747   3.720   3.785   2.890
 1520HOH     H2 4748   3.684   3.640   2.868
 1521HOH      O 4749   1.911   0.340   0.926
 1521HOH     H1 4750   1.845   0.382   0.872
 1521HOH     H2 4751   1.909   0.248   0.899
 1522HOH      O 4752   2.416   1.256   3.845
 1522HOH     H1 4753   2.340   1.315   3.842
 1522HOH     H2 4754   2.422   1.230   3.937
 1523HOH      O 4755   0.884   3.786   1.981
 1523HOH     H1 4756   0.830   3.851   2.025
 1523HOH     H2 4757   0.868   3.801   1.887
 1524HOH      O 4758   0.083   2.455   3.625
 1524HOH     H1 4759  -0.010   2.429   3.623
 1524HOH     H2 4760   0.096   2.506   3.545
 1525HOH      O 4761   1.559   0.950   1.164
 1525HOH     H1 4762   1.611   0.972   1.087
 1525HOH     H2 4763   1.495   0.887   1.132
 1526HOH      O 4764   1.718   0.833   0.712
 1526HOH     H1 4765   1.774   0.862   0.639
 1526HOH     H2 4766   1.777   0.784   0.769
 1527HOH      O 4767   3.710   2.540   0.283
 1527HOH     H1 4768   3.759   2.463   0.255
 1527HOH     H2 4769   3.660   2.566   0.205
 1528HOH      O 4770   3.642   0.049   0.740
 1528HOH     H1 4771   3.616   0.076   0.828
 1528HOH     H2 4772   3.737   0.060   0.739
 1529HOH      O 4773   1.738   0.468   0.728
 1529HOH     H1 4774   1.736   0.467   0.632
 1529HOH     H2 4775   1.761   0.557   0.751
 1530HOH      O 4776   2.220   1.558   1.076
 1530HOH     H1 4777   2.197   1.478   1.028
 1530HOH     H2 4778   2.245   1.620   1.008
 1531HOH      O 4779   2.961   3.134   1.752
 1531HOH     H1 4780   2.886   3.166   1.801
 1531HOH     H2 4781   2.950   3.039   1.750
 1532HOH      O 4782   2.546   2.240   1.651
 1532HOH     H1 4783   2.631   2.199   1.636
 1532HOH     H2 4784   2.552   2.275   1.740
 1533HOH      O 4785   0.919   3.162   1.799
 1533HOH     H1 4786   0.836   3.165   1.846
 1533HOH     H2 4787   0.985   3.157   1.868
 1534HOH      O 4788   3.358   2.449   3.596
 1534HOH     H1 4789   3.310   2.530   3.579
 1534HOH     H2 4790   3.295   2.393   3.643
 1535HOH      O 4791   0.596   2.247   2.823
 1535HOH     H1 4792   0.523   2.299   2.788
 1535HOH     H2 4793   0.553   2.173   2.866
 1536HOH      O 4794   1.947   2.061   3.576
 1536HOH     H1 4795   2.008   2.104   3.636
 1536HOH     H2 4796   1.959   1.967   3.592
 1537HOH      O 4797   0.742   1.678   2.828
 1537HOH     H1 4798   0.769   1.740   2.761
 1537HOH     H2 4799   0.823   1.651   2.871
 1538HOH      O 4800   2.945   0.415   0.578
 1538HOH     H1 4801   2.956   0.509   0.560
 1538HOH     H2 4802   2.943   0.375   0.491
 1539HOH      O 4803   2.368   1.512   0.722
 1539HOH     H1 4804   2.317   1.575   0.773
 1539HOH     H2 4805   2.449   1.501   0.772
 1540HOH      O 4806   3.642   2.830   2.940
 1540HOH     H1 4807   3.575   2.894   2.917
 1540HOH     H2 4808   3.681   2.803   2.857
 1541HOH      O 4809   0.472   1.700   3.817
 1541HOH     H1 4810   0.525   1.632   3.775
 1541HOH     H2 4811   0.446   1.662   3.901
 1542HOH      O 4812   3.233   3.864   0.964
 1542HOH     H1 4813   3.216   3.871   1.058
 1542HOH     H2 4814   3.212   3.951   0.929
 1543HOH      O 4815   3.913   2.880   0.767
 1543HOH     H1 4816   3.848   2.889   0.837
 1543HOH     H2 4817   3.890   2.948   0.704
 1544HOH      O 4818   0.660   0.586   0.383
 1544HOH     H1 4819   0.753   0.608   0.391
 1544HOH     H2 4820   0.615   0.671   0.386
 1545HOH      O 4821   3.265   2.243   1.850
 1545HOH     H1 4822   3.343   2.281   1.810
 1545HOH     H2 4823   3.247   2.298   1.927
 1546HOH      O 4824   0.427   2.681   1.013
 1546HOH     H1 4825   0.492   2.718   1.072
 1546HOH     H2 4826   0.348   2.671   1.067
 1547HOH      O 4827   3.844   2.057   0.244
 1547HOH     H1 4828   3.774   2.113   0.211
 1547HOH     H2 4829   3.920   2.115   0.254
 1548HOH      O 4830   1.166   2.714   3.917
 1548HOH     H1 4831   1.093   2.659   3.946
 1548HOH     H2 4832   1.201   2.751   3.997
 1549HOH      O 4833   3.600   2.645   1.439
 1549HOH     H1 4834   3.601   2.739   1.458
 1549HOH     H2 4835   3.654   2.606   1.507
 1550HOH      O 4836   0.613   3.134   2.984
 1550HOH     H1 4837   0.606   3.103   2.894
 1550HOH     H2 4838   0.703   3.114   3.011
 1551HOH      O 4839   2.450   2.162   0.266
 1551HOH     H1 4840   2.466   2.078   0.225
 1551HOH     H2 4841   2.488   2.226   0.206
 1552HOH      O 4842   0.296   0.902   0.441
 1552HOH     H1 4843   0.286   0.908   0.536
 1552HOH     H2 4844   0.212   0.867   0.410
 1553HOH      O 4845   4.052   3.073   2.030
 1553HOH     H1 4846   4.035   2.985   2.063
 1553HOH     H2 4847   3.988   3.086   1.960
 1554HOH      O 4848   3.672   1.261   1.215
 1554HOH     H1 4849   3.670   1.356   1.200
 1554HOH     H2 4850   3.765   1.239   1.211
 1555HOH      O 4851   0.564   3.897   3.027
 1555HOH     H1 4852   0.660   3.892   3.024
 1555HOH     H2 4853   0.544   3.901   3.120
 1556HOH      O 4854   1.584   2.870   3.214
 1556HOH     H1 4855   1.553   2.829   3.295
 1556HOH     H2 4856   1.675   2.893   3.231
 1557HOH      O 4857   2.578   1.497   3.778
 1557HOH     H1 4858   2.640   1.527   3.711
 1557HOH     H2 4859   2.553   1.409   3.750
 1558HOH      O 4860   2.404   1.188   2.261
 1558HOH     H1 4861   2.459   1.128   2.311
 1558HOH     H2 4862   2.463   1.226   2.196
 1559HOH      O 4863   3.359   2.832   2.778
 1559HOH     H1 4864   3.360   2.770   2.706
 1559HOH     H2 4865   3.267   2.859   2.786
 1560HOH      O 4866   2.137   1.424   1.962
 1560HOH     H1 4867   2.073   1.463   2.021
 1560HOH     H2 4868   2.133   1.478   1.883
 1561HOH      O 4869   2.603   0.285   3.308
 1561HOH     H1 4870   2.513   0.258   3.287
 1561HOH     H2 4871   2.646   0.203   3.333
 1562HOH      O 4872   2.382   0.994   1.722
 1562HOH     H1 4873   2.318   1.049   1.678
 1562HOH     H2 4874   2.394   0.919   1.664
 1563HOH      O 4875   3.347   0.645   1.361
 1563HOH     H1 4876   3.354   0.685   1.274
 1563HOH     H2 4877   3.354   0.718   1.422
 1564HOH      O 4878   2.763   0.962   3.738
 1564HOH     H1 4879   2.763   0.875   3.699
 1564HOH     H2 4880   2.845   0.965   3.788
 1565HOH      O 4881   1.155   1.469   3.814
 1565HOH     H1 4882   1.130   1.539   3.753
 1565HOH     H2 4883   1.160   1.512   3.899
 1566HOH      O 4884   2.285   0.171   3.986
 1566HOH     H1 4885   2.291   0.145   3.894
 1566HOH     H2 4886   2.200   0.139   4.015
 1567HOH      O 4887   3.746   2.143   0.498
 1567HOH     H1 4888   3.778   2.143   0.408
 1567HOH     H2 4889   3.685   2.069   0.502
 1568HOH      O 4890   1.913   1.789   0.168
 1568HOH     H1 4891   1.983   1.853   0.176
 1568HOH     H2 4892   1.891   1.787   0.075
 1569HOH      O 4893   1.921   0.246   0.296
 1569HOH     H1 4894   2.005   0.232   0.339
 1569HOH     H2 4895   1.888   0.158   0.279
 1570HOH      O 4896   2.051   3.914   2.414
 1570HOH     H1 4897   2.112   3.882   2.481
 1570HOH     H2 4898   2.016   3.836   2.373
 1571HOH      O 4899   2.384   0.819   2.242
 1571HOH     H1 4900   2.442   0.773   2.180
 1571HOH     H2 4901   2.327   0.872   2.186
 1572HOH      O 4902   0.471   1.214   2.967
 1572HOH     H1 4903   0.414   1.166   2.907
 1572HOH     H2 4904   0.537   1.254   2.910
 1573HOH      O 4905   1.509   1.662   0.584
 1573HOH     H1 4906   1.548   1.652   0.670
 1573HOH     H2 4907   1.481   1.573   0.560
 1574HOH      O 4908   2.631   2.452   3.181
 1574HOH     H1 4909   2.687   2.530   3.175
 1574HOH     H2 4910   2.546   2.485   3.211
 1575HOH      O 4911   3.915   0.088   2.425
 1575HOH     H1 4912   3.941   0.117   2.337
 1575HOH     H2 4913   3.837   0.140   2.445
 1576HOH      O 4914   3.998   1.829   3.261
 1576HOH     H1 4915   3.980   1.747   3.308
 1576HOH     H2 4916   3.970   1.898   3.321
 1577HOH      O 4917   0.038   1.275   2.961
 1577HOH     H1 4918   0.051   1.182   2.979
 1577HOH     H2 4919  -0.056   1.290   2.976
 1578HOH      O 4920   3.481   3.541   1.167
 1578HOH     H1 4921   3.409   3.552   1.106
 1578HOH     H2 4922   3.524   3.460   1.140
 1579HOH      O 4923   1.474   3.934   1.710
 1579HOH     H1 4924   1.565   3.964   1.705
 1579HOH     H2 4925   1.431   3.976   1.635
 1580HOH      O 4926   3.829   0.372   1.483
 1580HOH     H1 4927   3.795   0.390   1.571
 1580HOH     H2 4928   3.879   0.291   1.493
 1581HOH      O 4929   2.535   2.804   2.162
 1581HOH     H1 4930   2.569   2.731   2.109
 1581HOH     H2 4931   2.546   2.881   2.106
 1582HOH      O 4932   1.945   2.494   1.081
 1582HOH     H1 4933   2.010   2.558   1.054
 1582HOH     H2 4934   1.988   2.409   1.070
 1583HOH      O 4935   3.211   2.788   1.573
 1583HOH     H1 4936   3.192   2.790   1.667
 1583HOH     H2 4937   3.238   2.877   1.551
 1584HOH      O 4938   0.388   1.963   0.898
 1584HOH     H1 4939   0.321   1.905   0.935
 1584HOH     H2 4940   0.437   1.996   0.974
 1585HOH      O 4941   0.730   1.916   3.549
 1585HOH     H1 4942   0.734   1.839   3.492
 1585HOH     H2 4943   0.641   1.950   3.537
 1586HOH      O 4944   0.371   1.724   0.815
 1586HOH     H1 4945   0.421   1.718   0.896
 1586HOH     H2 4946   0.435   1.744   0.747
 1587HOH      O 4947   1.641   3.185   0.529
 1587HOH     H1 4948   1.574   3.236   0.485
 1587HOH     H2 4949   1.724   3.220   0.496
 1588HOH      O 4950   2.386   0.641   3.221
 1588HOH     H1 4951   2.440   0.701   3.170
 1588HOH     H2 4952   2.447   0.599   3.282
 1589HOH      O 4953   2.712   2.734   0.957
 1589HOH     H1 4954   2.786   2.783   0.994
 1589HOH     H2 4955   2.725   2.644   0.988
 1590HOH      O 4956   0.375   0.577   2.014
 1590HOH     H1 4957   0.386   0.671   2.007
 1590HOH     H2 4958   0.341   0.550   1.929
 1591HOH      O 4959   2.157   3.511   0.277
 1591HOH     H1 4960   2.212   3.587   0.294
 1591HOH     H2 4961   2.150   3.507   0.182
 1592HOH      O 4962   1.527   1.243   1.208
 1592HOH     H1 4963   1.603   1.247   1.265
 1592HOH     H2 4964   1.506   1.150   1.202
 1593HOH      O 4965   0.094   2.948   0.579
 1593HOH     H1 4966   0.030   2.911   0.640
 1593HOH     H2 4967   0.130   2.873   0.532
 1594HOH      O 4968   0.060   2.617   3.366
 1594HOH     H1 4969   0.007   2.545   3.331
 1594HOH     H2 4970  -0.004   2.680   3.398
 1595HOH      O 4971   3.359   0.763   1.112
 1595HOH     H1 4972   3.444   0.795   1.080
 1595HOH     H2 4973   3.346   0.680   1.067
 1596HOH      O 4974   0.504   2.968   1.872
 1596HOH     H1 4975   0.585   2.950   1.824
 1596HOH     H2 4976   0.521   2.933   1.960
 1597HOH      O 4977   0.877   3.401   4.009
 1597HOH     H1 4978   0.850   3.327   3.956
 1597HOH     H2 4979   0.886   3.366   4.097
 1598HOH      O 4980   2.797   0.037   0.224
 1598HOH     H1 4981   2.728   0.074   0.280
 1598HOH     H2 4982   2.875   0.087   0.248
 1599HOH      O 4983   2.361   3.640   1.509
 1599HOH     H1 4984   2.271   3.642   1.476
 1599HOH     H2 4985   2.361   3.702   1.582
 1600HOH      O 4986   1.209   0.668   3.435
 1600HOH     H1 4987   1.158   0.636   3.361
 1600HOH     H2 4988   1.283   0.714   3.395
 1601HOH      O 4989   0.866   1.312   0.920
 1601HOH     H1 4990   0.955   1.310   0.955
 1601HOH     H2 4991   0.862   1.235   0.863
 1602HOH      O 4992   0.626   0.642   3.335
 1602HOH     H1 4993   0.612   0.728   3.375
 1602HOH     H2 4994   0.545   0.594   3.352
 1603HOH      O 4995   3.025   1.609   2.392
 1603HOH     H1 4996   3.051   1.643   2.306
 1603HOH     H2 4997   3.107   1.598   2.439
 1604HOH      O 4998   3.793   2.597   0.528
 1604HOH     H1 4999   3.857   2.662   0.500
 1604HOH     H2 5000   3.729   2.594   0.457
 1605HOH      O 5001   2.627   0.564   3.361
 1605HOH     H1 5002   2.623   0.468   3.360
 1605HOH     H2 5003   2.703   0.584   3.416
 1606HOH      O 5004   1.506   0.419   0.491
 1606HOH     H1 5005   1.596   0.428   0.459
 1606HOH     H2 5006   1.451   0.448   0.418
 1607HOH      O 5007   0.116   3.776   3.748
 1607HOH     H1 5008   0.083   3.686   3.758
 1607HOH     H2 5009   0.117   3.790   3.653
 1608HOH      O 5010   3.544   0.923   2.259
 1608HOH     H1 5011   3.586   0.839   2.278
 1608HOH     H2 5012   3.549   0.972   2.341
 1609HOH      O 5013   2.742   0.052   2.158
 1609HOH     H1 5014   2.656   0.011   2.152
 1609HOH     H2 5015   2.772   0.033   2.247
 1610HOH      O 5016   1.721   3.031   0.316
 1610HOH     H1 5017   1.664   3.077   0.254
 1610HOH     H2 5018   1.693   3.062   0.402
 1611HOH      O 5019   1.551   0.243   0.735
 1611HOH     H1 5020   1.603   0.323   0.731
 1611HOH     H2 5021   1.492   0.256   0.809
 1612HOH      O 5022   0.738   2.820   0.611
 1612HOH     H1 5023   0.764   2.897   0.561
 1612HOH     H2 5024   0.795   2.750   0.579
 1613HOH      O 5025   1.263   1.251   0.064
 1613HOH     H1 5026   1.239   1.343   0.058
 1613HOH     H2 5027   1.249   1.217  -0.024
 1614HOH      O 5028   3.751   3.821   3.523
 1614HOH     H1 5029   3.661   3.836   3.551
 1614HOH     H2 5030   3.743   3.773   3.441
 1615HOH      O 5031   1.424   2.689   3.416
 1615HOH     H1 5032   1.389   2.765   3.462
 1615HOH     H2 5033   1.446   2.626   3.485
 1616HOH      O 5034   0.151   2.208   3.172
 1616HOH     H1 5035   0.152   2.120   3.134
 1616HOH     H2 5036   0.059   2.224   3.192
 1617HOH      O 5037   1.763   0.547   3.517
 1617HOH     H1 5038   1.845   0.575   3.476
 1617HOH     H2 5039   1.711   0.627   3.524
 1618HOH      O 5040   0.249   2.803   0.307
 1618HOH     H1 5041   0.319   2.759   0.355
 1618HOH     H2 5042   0.238   2.752   0.227
 1619HOH      O 5043   2.358   3.157   1.507
 1619HOH     H1 5044   2.279   3.110   1.482
 1619HOH     H2 5045   2.328   3.244   1.534
 1620HOH      O 5046   0.951   1.805   2.564
 1620HOH     H1 5047   0.962   1.818   2.470
 1620HOH     H2 5048   0.942   1.710   2.574
 1621HOH      O 5049   1.744   2.558   3.382
 1621HOH     H1 5050   1.765   2.502   3.457
 1621HOH     H2 5051   1.727   2.644   3.420
 1622HOH      O 5052   0.404   0.842   3.195
 1622HOH     H1 5053   0.483   0.849   3.142
 1622HOH     H2 5054   0.433   0.868   3.283
 1623HOH      O 5055   2.374   2.019   3.862
 1623HOH     H1 5056   2.432   2.093   3.880
 1623HOH     H2 5057   2.432   1.946   3.844
 1624HOH      O 5058   2.568   0.330   2.631
 1624HOH     H1 5059   2.596   0.393   2.564
 1624HOH     H2 5060   2.583   0.374   2.714
 1625HOH      O 5061   3.446   2.458   1.744
 1625HOH     H1 5062   3.406   2.498   1.666
 1625HOH     H2 5063   3.513   2.398   1.708
 1626HOH      O 5064   3.581   2.981   2.597
 1626HOH     H1 5065   3.546   3.053   2.545
 1626HOH     H2 5066   3.570   3.010   2.687
 1627HOH      O 5067   2.680   2.924   0.745
 1627HOH     H1 5068   2.619   2.979   0.795
 1627HOH     H2 5069   2.721   2.868   0.810
 1628HOH      O 5070   3.925   1.686   2.583
 1628HOH     H1 5071   3.843   1.699   2.537
 1628HOH     H2 5072   3.966   1.611   2.539
 1629HOH      O 5073   2.485   3.088   0.861
 1629HOH     H1 5074   2.399   3.120   0.836
 1629HOH     H2 5075   2.469   3.028   0.933
 1630HOH      O 5076   1.692   1.959   0.283
 1630HOH     H1 5077   1.761   1.930   0.344
 1630HOH     H2 5078   1.739   2.002   0.212
 1631HOH      O 5079   1.331   3.359   0.963
 1631HOH     H1 5080   1.256   3.347   1.021
 1631HOH     H2 5081   1.400   3.305   1.001
 1632HOH      O 5082   2.009   1.986   2.049
 1632HOH     H1 5083   2.074   1.916   2.047
 1632HOH     H2 5084   2.055   2.062   2.014
 1633HOH      O 5085   1.501   2.106   0.497
 1633HOH     H1 5086   1.510   2.198   0.521
 1633HOH     H2 5087   1.587   2.081   0.464
 1634HOH      O 5088   3.828   1.571   1.801
 1634HOH     H1 5089   3.887   1.599   1.731
 1634HOH     H2 5090   3.741   1.571   1.761
 1635HOH      O 5091   3.469   2.777   2.409
 1635HOH     H1 5092   3.499   2.851   2.463
 1635HOH     H2 5093   3.438   2.713   2.473
 1636HOH      O 5094   3.625   3.807   0.339
 1636HOH     H1 5095   3.615   3.789   0.246
 1636HOH     H2 5096   3.600   3.900   0.348
 1637HOH      O 5097   2.012   0.114   0.036
 1637HOH     H1 5098   1.979   0.203   0.046
 1637HOH     H2 5099   1.980   0.068   0.114
 1638HOH      O 5100   3.798   0.991   3.280
 1638HOH     H1 5101   3.802   1.064   3.219
 1638HOH     H2 5102   3.830   0.916   3.230
 1639HOH      O 5103   3.206   2.830   0.497
 1639HOH     H1 5104   3.268   2.899   0.518
 1639HOH     H2 5105   3.204   2.775   0.576
 1640HOH      O 5106   3.047   0.733   3.414
 1640HOH     H1 5107   2.988   0.808   3.419
 1640HOH     H2 5108   3.105   0.753   3.341
 1641HOH      O 5109   0.425   1.405   1.505
 1641HOH     H1 5110   0.333   1.430   1.510
 1641HOH     H2 5111   0.424   1.321   1.459
 1642HOH      O 5112   2.067   1.478   1.301
 1642HOH     H1 5113   2.128   1.510   1.235
 1642HOH     H2 5114   2.059   1.385   1.283
 1643HOH      O 5115   1.572   0.691   0.951
 1643HOH     H1 5116   1.553   0.677   0.858
 1643HOH     H2 5117   1.555   0.605   0.992
 1644HOH      O 5118   1.557   1.222   3.836
 1644HOH     H1 5119   1.563   1.267   3.921
 1644HOH     H2 5120   1.480   1.260   3.794
 1645HOH      O 5121   3.296   2.703   1.857
 1645HOH     H1 5122   3.363   2.723   1.791
 1645HOH     H2 5123   3.346   2.678   1.935
 1646HOH      O 5124   2.480   3.576   0.058
 1646HOH     H1 5125   2.424   3.654   0.049
 1646HOH     H2 5126   2.569   3.611   0.057
 1647HOH      O 5127   1.142   1.159   3.822
 1647HOH     H1 5128   1.203   1.119   3.759
 1647HOH     H2 5129   1.136   1.250   3.796
 1648HOH      O 5130   3.704   3.726   3.273
 1648HOH     H1 5131   3.773   3.772   3.226
 1648HOH     H2 5132   3.638   3.706   3.206
 1649HOH      O 5133   2.505   0.862   3.089
 1649HOH     H1 5134   2.455   0.936   3.123
 1649HOH     H2 5135   2.527   0.887   3.000
 1650HOH      O 5136   0.129   2.062   0.846
 1650HOH     H1 5137   0.224   2.052   0.841
 1650HOH     H2 5138   0.105   2.097   0.760
 1651HOH      O 5139   3.898   0.175   0.551
 1651HOH     H1 5140   3.960   0.248   0.557
 1651HOH     H2 5141   3.940   0.104   0.601
 1652HOH      O 5142   0.496   2.912   0.566
 1652HOH     H1 5143   0.467   2.960   0.644
 1652HOH     H2 5144   0.571   2.860   0.596
 1653HOH      O 5145   3.066   3.064   0.219
 1653HOH     H1 5146   3.028   2.978   0.238
 1653HOH     H2 5147   3.093   3.097   0.304
 1654HOH      O 5148   2.370   1.249   0.138
 1654HOH     H1 5149   2.286   1.236   0.094
 1654HOH     H2 5150   2.431   1.191   0.091
 1655HOH      O 5151   3.404   0.505   0.984
 1655HOH     H1 5152   3.372   0.426   1.028
 1655HOH     H2 5153   3.483   0.528   1.031
 1656HOH      O 5154   0.332   2.306   2.781
 1656HOH     H1 5155   0.320   2.353   2.698
 1656HOH     H2 5156   0.329   2.374   2.848
 1657HOH      O 5157   1.904   3.683   0.217
 1657HOH     H1 5158   1.873   3.658   0.304
 1657HOH     H2 5159   1.859   3.624   0.157
 1658HOH      O 5160   1.988   1.409   3.555
 1658HOH     H1 5161   1.959   1.487   3.602
 1658HOH     H2 5162   1.909   1.356   3.545
 1659HOH      O 5163   0.098   1.639   2.159
 1659HOH     H1 5164   0.011   1.622   2.195
 1659HOH     H2 5165   0.119   1.728   2.187
 1660HOH      O 5166   3.979   3.553   1.998
 1660HOH     H1 5167   4.045   3.622   1.998
 1660HOH     H2 5168   3.991   3.509   2.082
 1661HOH      O 5169   0.439   2.024   1.499
 1661HOH     H1 5170   0.373   2.094   1.504
 1661HOH     H2 5171   0.452   2.010   1.405
 1662HOH      O 5172   3.654   0.562   1.138
 1662HOH     H1 5173   3.699   0.593   1.216
 1662HOH     H2 5174   3.668   0.630   1.072
 1663HOH      O 5175   1.071   2.100   1.873
 1663HOH     H1 5176   1.090   2.006   1.868
 1663HOH     H2 5177   1.143   2.141   1.826
 1664HOH      O 5178   2.900   3.522   2.991
 1664HOH     H1 5179   2.872   3.607   3.027
 1664HOH     H2 5180   2.818   3.474   2.977
 1665HOH      O 5181   1.869   2.230   0.556
 1665HOH     H1 5182   1.896   2.163   0.493
 1665HOH     H2 5183   1.913   2.310   0.527
 1666HOH      O 5184   3.609   2.146   2.261
 1666HOH     H1 5185   3.547   2.129   2.191
 1666HOH     H2 5186   3.576   2.225   2.304
 1667HOH      O 5187   1.531   2.399   1.792
 1667HOH     H1 5188   1.524   2.368   1.701
 1667HOH     H2 5189   1.625   2.410   1.806
 1668HOH      O 5190   3.311   1.426   0.943
 1668HOH     H1 5191   3.331   1.426   0.850
 1668HOH     H2 5192   3.373   1.365   0.981
 1669HOH      O 5193   1.597   3.299   3.501
 1669HOH     H1 5194   1.617   3.370   3.563
 1669HOH     H2 5195   1.599   3.341   3.415
 1670HOH      O 5196   4.000   3.181   4.010
 1670HOH     H1 5197   4.031   3.123   3.940
 1670HOH     H2 5198   4.029   3.139   4.090
 1671HOH      O 5199   3.634   1.937   3.946
 1671HOH     H1 5200   3.558   1.985   3.913
 1671HOH     H2 5201   3.605   1.899   4.029
 1672HOH      O 5202   0.709   1.172   1.684
 1672HOH     H1 5203   0.796   1.187   1.718
 1672HOH     H2 5204   0.667   1.258   1.687
 1673HOH      O 5205   1.316   0.992   2.963
 1673HOH     H1 5206   1.323   1.049   3.040
 1673HOH     H2 5207   1.405   0.961   2.948
 1674HOH      O 5208   1.044   1.621   2.115
 1674HOH     H1 5209   1.137   1.603   2.110
 1674HOH     H2 5210   1.010   1.597   2.029
 1675HOH      O 5211   1.394   2.401   3.511
 1675HOH     H1 5212   1.306   2.364   3.500
 1675HOH     H2 5213   1.421   2.426   3.423
 1676HOH      O 5214   1.428   2.879   1.508
 1676HOH     H1 5215   1.464   2.793   1.486
 1676HOH     H2 5216   1.354   2.859   1.567
 1677HOH      O 5217   0.801   2.356   0.401
 1677HOH     H1 5218   0.757   2.291   0.346
 1677HOH     H2 5219   0.801   2.436   0.348
 1678HOH      O 5220   3.164   2.356   1.415
 1678HOH     H1 5221   3.241   2.402   1.446
 1678HOH     H2 5222   3.157   2.380   1.322
 1679HOH      O 5223   3.256   1.470   1.706
 1679HOH     H1 5224   3.239   1.383   1.743
 1679HOH     H2 5225   3.221   1.465   1.617
 1680HOH      O 5226   1.209   3.236   2.934
 1680HOH     H1 5227   1.289   3.184   2.944
 1680HOH     H2 5228   1.227   3.292   2.858
 1681HOH      O 5229   2.629   2.304   1.009
 1681HOH     H1 5230   2.609   2.212   1.028
 1681HOH     H2 5231   2.559   2.332   0.951
 1682HOH      O 5232   0.948   0.610   1.168
 1682HOH     H1 5233   0.877   0.667   1.198
 1682HOH     H2 5234   0.999   0.665   1.108
 1683HOH      O 5235   3.777   3.992   2.735
 1683HOH     H1 5236   3.695   4.020   2.692
 1683HOH     H2 5237   3.806   4.069   2.783
 1684HOH      O 5238   1.057   3.963   0.776
 1684HOH     H1 5239   1.096   4.035   0.826
 1684HOH     H2 5240   0.972   3.949   0.817
 1685HOH      O 5241   0.281   0.909   1.847
 1685HOH     H1 5242   0.251   0.958   1.770
 1685HOH     H2 5243   0.376   0.924   1.849
 1686HOH      O 5244   3.549   2.625   0.090
 1686HOH     H1 5245   3.454   2.620   0.083
 1686HOH     H2 5246   3.573   2.696   0.029
 1687HOH      O 5247   0.258   2.222   3.431
 1687HOH     H1 5248   0.215   2.232   3.346
 1687HOH     H2 5249   0.343   2.263   3.419
 1688HOH      O 5250   0.113   0.616   2.239
 1688HOH     H1 5251   0.165   0.697   2.240
 1688HOH     H2 5252   0.085   0.607   2.148
 1689HOH      O 5253   1.549   2.925   0.742
 1689HOH     H1 5254   1.634   2.933   0.698
 1689HOH     H2 5255   1.524   2.833   0.728
 1690HOH      O 5256   3.253   3.194   3.248
 1690HOH     H1 5257   3.204   3.198   3.165
 1690HOH     H2 5258   3.337   3.155   3.224
 1691HOH      O 5259   0.946   1.506   0.231
 1691HOH     H1 5260   0.887   1.432   0.217
 1691HOH     H2 5261   0.989   1.488   0.314
 1692HOH      O 5262   1.417   2.649   1.939
 1692HOH     H1 5263   1.504   2.673   1.969
 1692HOH     H2 5264   1.425   2.557   1.913
 1693HOH      O 5265   0.157   1.862   2.506
 1693HOH     H1 5266   0.072   1.828   2.534
 1693HOH     H2 5267   0.220   1.817   2.562
 1694HOH      O 5268   0.931   1.327   1.464
 1694HOH     H1 5269   0.917   1.407   1.515
 1694HOH     H2 5270   1.006   1.347   1.408
 1695HOH      O 5271   0.377   0.766   2.317
 1695HOH     H1 5272   0.332   0.815   2.249
 1695HOH     H2 5273   0.452   0.821   2.340
 1696HOH      O 5274   1.159   2.441   3.803
 1696HOH     H1 5275   1.227   2.508   3.803
 1696HOH     H2 5276   1.159   2.405   3.892
 1697HOH      O 5277   1.619   3.517   0.733
 1697HOH     H1 5278   1.707   3.555   0.731
 1697HOH     H2 5279   1.634   3.423   0.745
 1698HOH      O 5280   2.742   0.689   2.751
 1698HOH     H1 5281   2.754   0.742   2.672
 1698HOH     H2 5282   2.775   0.744   2.822
 1699HOH      O 5283   3.619   3.860   1.959
 1699HOH     H1 5284   3.576   3.899   2.035
 1699HOH     H2 5285   3.711   3.851   1.985
 1700HOH      O 5286   0.859   2.525   3.569
 1700HOH     H1 5287   0.917   2.601   3.561
 1700HOH     H2 5288   0.874   2.494   3.658
 1701HOH      O 5289   0.151   3.388   1.311
 1701HOH     H1 5290   0.215   3.425   1.250
 1701HOH     H2 5291   0.172   3.429   1.395
 1702HOH      O 5292   0.901   3.154   2.434
 1702HOH     H1 5293   0.959   3.144   2.509
 1702HOH     H2 5294   0.960   3.159   2.359
 1703HOH      O 5295   0.222   1.862   2.232
 1703HOH     H1 5296   0.194   1.896   2.318
 1703HOH     H2 5297   0.317   1.874   2.232
 1704HOH      O 5298   1.558   3.581   2.138
 1704HOH     H1 5299   1.525   3.603   2.051
 1704HOH     H2 5300   1.492   3.617   2.198
 1705HOH      O 5301   3.172   0.887   3.639
 1705HOH     H1 5302   3.193   0.975   3.605
 1705HOH     H2 5303   3.193   0.828   3.566
 1706HOH      O 5304   2.034   2.675   1.361
 1706HOH     H1 5305   2.044   2.588   1.323
 1706HOH     H2 5306   2.010   2.658   1.452
 1707HOH      O 5307   1.406   2.318   0.278
 1707HOH     H1 5308   1.441   2.393   0.231
 1707HOH     H2 5309   1.421   2.339   0.371
 1708HOH      O 5310   0.793   3.552   2.074
 1708HOH     H1 5311   0.821   3.639   2.046
 1708HOH     H2 5312   0.701   3.547   2.051
 1709HOH      O 5313   1.602   3.484   3.722
 1709HOH     H1 5314   1.510   3.494   3.749
 1709HOH     H2 5315   1.648   3.554   3.768
 1710HOH      O 5316   1.871   3.330   3.311
 1710HOH     H1 5317   1.887   3.250   3.361
 1710HOH     H2 5318   1.935   3.327   3.239
 1711HOH      O 5319   0.799   1.258   0.233
 1711HOH     H1 5320   0.721   1.240   0.180
 1711HOH     H2 5321   0.771   1.240   0.322
 1712HOH      O 5322   1.359   0.990   3.634
 1712HOH     H1 5323   1.408   1.064   3.670
 1712HOH     H2 5324   1.404   0.968   3.553
 1713HOH      O 5325   0.175   1.577   3.397
 1713HOH     H1 5326   0.169   1.672   3.407
 1713HOH     H2 5327   0.210   1.564   3.309
 1714HOH      O 5328   3.951   0.998   2.270
 1714HOH     H1 5329   3.965   0.988   2.364
 1714HOH     H2 5330   4.037   1.023   2.236
 1715HOH      O 5331   3.012   2.609   1.935
 1715HOH     H1 5332   2.978   2.523   1.956
 1715HOH     H2 5333   3.106   2.596   1.926
 1716HOH      O 5334   0.825   3.598   1.129
 1716HOH     H1 5335   0.826   3.503   1.131
 1716HOH     H2 5336   0.764   3.623   1.198
 1717HOH      O 5337   1.745   1.289   2.663
 1717HOH     H1 5338   1.693   1.227   2.715
 1717HOH     H2 5339   1.835   1.256   2.669
 1718HOH      O 5340   3.997   2.971   2.889
 1718HOH     H1 5341   3.932   2.902   2.901
 1718HOH     H2 5342   3.960   3.028   2.822
 1719HOH      O 5343   0.891   0.864   3.239
 1719HOH     H1 5344   0.903   0.809   3.316
 1719HOH     H2 5345   0.959   0.932   3.247
 1720HOH      O 5346   3.487   0.917   3.112
 1720HOH     H1 5347   3.469   0.832   3.072
 1720HOH     H2 5348   3.548   0.960   3.051
 1721HOH      O 5349   1.894   0.369   4.021
 1721HOH     H1 5350   1.835   0.414   4.081
 1721HOH     H2 5351   1.889   0.419   3.940
 1722HOH      O 5352   3.405   0.022   3.906
 1722HOH     H1 5353   3.419   0.113   3.932
 1722HOH     H2 5354   3.318   0.022   3.864
 1723HOH      O 5355   2.570   3.439   1.712
 1723HOH     H1 5356   2.579   3.455   1.618
 1723HOH     H2 5357   2.524   3.356   1.717
 1724HOH      O 5358   0.147   3.740   1.136
 1724HOH     H1 5359   0.115   3.798   1.066
 1724HOH     H2 5360   0.073   3.682   1.154
 1725HOH      O 5361   0.850   0.354   0.843
 1725HOH     H1 5362   0.845   0.330   0.750
 1725HOH     H2 5363   0.785   0.424   0.853
 1726HOH      O 5364   3.658   2.121   1.116
 1726HOH     H1 5365   3.675   2.194   1.056
 1726HOH     H2 5366   3.595   2.155   1.179
 1727HOH      O 5367   3.351   0.385   0.361
 1727HOH     H1 5368   3.346   0.303   0.409
 1727HOH     H2 5369   3.299   0.371   0.282
 1728HOH      O 5370   3.944   2.613   2.168
 1728HOH     H1 5371   3.893   2.612   2.249
 1728HOH     H2 5372   3.888   2.570   2.104
 1729HOH      O 5373   1.773   0.845   3.453
 1729HOH     H1 5374   1.780   0.938   3.476
 1729HOH     H2 5375   1.852   0.805   3.487
 1730HOH      O 5376   0.643   1.745   1.997
 1730HOH     H1 5377   0.685   1.783   2.075
 1730HOH     H2 5378   0.551   1.736   2.021
 1731HOH      O 5379   0.954   2.786   0.255
 1731HOH     H1 5380   1.030   2.733   0.234
 1731HOH     H2 5381   0.959   2.861   0.196
 1732HOH      O 5382   2.553   3.752   1.295
 1732HOH     H1 5383   2.583   3.674   1.341
 1732HOH     H2 5384   2.614   3.821   1.323
 1733HOH      O 5385   0.161   3.239   3.657
 1733HOH     H1 5386   0.089   3.261   3.598
 1733HOH     H2 5387   0.202   3.323   3.678
 1734HOH      O 5388   2.588   0.444   1.230
 1734HOH     H1 5389   2.677   0.458   1.263
 1734HOH     H2 5390   2.538   0.416   1.306
 1735HOH      O 5391   1.382   3.042   0.450
 1735HOH     H1 5392   1.407   2.953   0.424
 1735HOH     H2 5393   1.447   3.098   0.407
 1736HOH      O 5394   2.438   1.309   2.838
 1736HOH     H1 5395   2.414   1.364   2.764
 1736HOH     H2 5396   2.430   1.366   2.914
 1737HOH      O 5397   3.528   3.824   0.067
 1737HOH     H1 5398   3.511   3.913   0.038
 1737HOH     H2 5399   3.447   3.777   0.050
 1738HOH      O 5400   3.293   0.953   1.748
 1738HOH     H1 5401   3.255   1.038   1.767
 1738HOH     H2 5402   3.288   0.905   1.831
 1739HOH      O 5403   3.548   3.225   1.369
 1739HOH     H1 5404   3.615   3.292   1.355
 1739HOH     H2 5405   3.578   3.151   1.316
 1740HOH      O 5406   0.071   3.117   3.090
 1740HOH     H1 5407   0.044   3.059   3.019
 1740HOH     H2 5408   0.164   3.096   3.104
 1741HOH      O 5409   1.602   1.771   0.102
 1741HOH     H1 5410   1.618   1.807   0.189
 1741HOH     H2 5411   1.668   1.813   0.046
 1742HOH      O 5412   3.623   1.318   3.412
 1742HOH     H1 5413   3.536   1.356   3.397
 1742HOH     H2 5414   3.645   1.274   3.330
 1743HOH      O 5415   0.299   2.814   2.105
 1743HOH     H1 5416   0.363   2.876   2.141
 1743HOH     H2 5417   0.309   2.736   2.159
 1744HOH      O 5418   2.516   1.677   0.539
 1744HOH     H1 5419   2.583   1.709   0.599
 1744HOH     H2 5420   2.446   1.646   0.596
 1745HOH      O 5421   2.068   1.389   0.582
 1745HOH     H1 5422   2.032   1.477   0.598
 1745HOH     H2 5423   2.155   1.405   0.548
 1746HOH      O 5424   1.129   0.417   0.790
 1746HOH     H1 5425   1.040   0.402   0.824
 1746HOH     H2 5426   1.174   0.464   0.861
 1747HOH      O 5427   2.980   3.101   3.695
 1747HOH     H1 5428   2.898   3.057   3.717
 1747HOH     H2 5429   2.970   3.124   3.602
 1748HOH      O 5430   0.695   2.766   2.220
 1748HOH     H1 5431   0.787   2.781   2.197
 1748HOH     H2 5432   0.693   2.678   2.257
 1749HOH      O 5433   1.474   3.798   1.236
 1749HOH     H1 5434   1.501   3.778   1.147
 1749HOH     H2 5435   1.394   3.746   1.248
 1750HOH      O 5436   3.046   3.771   0.744
 1750HOH     H1 5437   3.031   3.709   0.816
 1750HOH     H2 5438   3.093   3.719   0.678
 1751HOH      O 5439   3.719   2.627   2.310
 1751HOH     H1 5440   3.637   2.595   2.348
 1751HOH     H2 5441   3.718   2.721   2.326
 1752HOH      O 5442   3.600   3.996   3.289
 1752HOH     H1 5443   3.655   3.924   3.318
 1752HOH     H2 5444   3.557   3.963   3.210
 1753HOH      O 5445  -0.027   0.661   0.728
 1753HOH     H1 5446  -0.029   0.721   0.803
 1753HOH     H2 5447   0.064   0.662   0.699
 1754HOH      O 5448   3.588   0.323   2.961
 1754HOH     H1 5449   3.588   0.335   2.867
 1754HOH     H2 5450   3.495   0.328   2.986
 1755HOH      O 5451   3.340   3.708   2.803
 1755HOH     H1 5452   3.434   3.698   2.783
 1755HOH     H2 5453   3.330   3.801   2.825
 1756HOH      O 5454   1.498   3.825   0.086
 1756HOH     H1 5455   1.550   3.807   0.008
 1756HOH     H2 5456   1.463   3.739   0.111
 1757HOH      O 5457   0.673   3.161   1.245
 1757HOH     H1 5458   0.695   3.072   1.219
 1757HOH     H2 5459   0.708   3.216   1.175
 1758HOH      O 5460   1.257   2.917   0.981
 1758HOH     H1 5461   1.284   2.985   1.043
 1758HOH     H2 5462   1.266   2.958   0.895
 1759HOH      O 5463   2.194   0.810   0.914
 1759HOH     H1 5464   2.225   0.726   0.948
 1759HOH     H2 5465   2.255   0.874   0.950
 1760HOH      O 5466   1.919   1.513   3.219
 1760HOH     H1 5467   2.003   1.508   3.265
 1760HOH     H2 5468   1.939   1.490   3.129
 1761HOH      O 5469   2.052   0.441   3.409
 1761HOH     H1 5470   2.087   0.528   3.388
 1761HOH     H2 5471   2.129   0.386   3.420
 1762HOH      O 5472   1.044   0.668   3.090
 1762HOH     H1 5473   0.991   0.739   3.127
 1762HOH     H2 5474   1.077   0.703   3.008
 1763HOH      O 5475   0.956   2.043   2.174
 1763HOH     H1 5476   0.958   2.060   2.080
 1763HOH     H2 5477   1.027   1.980   2.188
 1764HOH      O 5478   2.255   3.628   2.303
 1764HOH     H1 5479   2.214   3.666   2.380
 1764HOH     H2 5480   2.349   3.634   2.320
 1765HOH      O 5481   2.077   0.444   0.185
 1765HOH     H1 5482   2.040   0.425   0.098
 1765HOH     H2 5483   2.011   0.410   0.246
 1766HOH      O 5484   3.355   1.294   1.439
 1766HOH     H1 5485   3.439   1.255   1.462
 1766HOH     H2 5486   3.370   1.388   1.441
 1767HOH      O 5487   2.776   3.158   0.122
 1767HOH     H1 5488   2.819   3.087   0.074
 1767HOH     H2 5489   2.844   3.224   0.134
 1768HOH      O 5490   1.083   2.121   2.745
 1768HOH     H1 5491   1.090   2.094   2.836
 1768HOH     H2 5492   1.173   2.116   2.712
 1769HOH      O 5493   1.854   0.581   2.752
 1769HOH     H1 5494   1.845   0.642   2.825
 1769HOH     H2 5495   1.784   0.606   2.691
 1770HOH      O 5496   1.643   3.785   2.566
 1770HOH     H1 5497   1.599   3.844   2.627
 1770HOH     H2 5498   1.623   3.821   2.480
 1771HOH      O 5499   2.880   3.658   1.989
 1771HOH     H1 5500   2.917   3.625   1.907
 1771HOH     H2 5501   2.788   3.634   1.984
 1772HOH      O 5502   0.459   3.665   0.197
 1772HOH     H1 5503   0.531   3.699   0.144
 1772HOH     H2 5504   0.400   3.624   0.134
 1773HOH      O 5505   1.376   0.128   0.240
 1773HOH     H1 5506   1.297   0.079   0.217
 1773HOH     H2 5507   1.354   0.171   0.322
 1774HOH      O 5508   1.198   0.793   0.657
 1774HOH     H1 5509   1.275   0.738   0.668
 1774HOH     H2 5510   1.200   0.819   0.565
 1775HOH      O 5511   3.596   1.303   0.096
 1775HOH     H1 5512   3.599   1.384   0.146
 1775HOH     H2 5513   3.548   1.242   0.153
 1776HOH      O 5514   1.211   0.830   0.384
 1776HOH     H1 5515   1.220   0.760   0.320
 1776HOH     H2 5516   1.196   0.909   0.332
 1777HOH      O 5517   0.256   2.912   1.810
 1777HOH     H1 5518   0.195   2.938   1.878
 1777HOH     H2 5519   0.341   2.942   1.841
 1778HOH      O 5520   2.973   2.781   0.652
 1778HOH     H1 5521   2.940   2.827   0.575
 1778HOH     H2 5522   3.028   2.846   0.696
 1779HOH      O 5523   2.726   0.694   3.062
 1779HOH     H1 5524   2.659   0.747   3.105
 1779HOH     H2 5525   2.753   0.632   3.129
 1780HOH      O 5526   2.893   0.559   3.988
 1780HOH     H1 5527   2.888   0.654   3.993
 1780HOH     H2 5528   2.801   0.531   3.984
 1781HOH      O 5529   3.253   1.271   2.374
 1781HOH     H1 5530   3.233   1.232   2.459
 1781HOH     H2 5531   3.248   1.365   2.390
 1782HOH      O 5532   3.714   2.734   2.676
 1782HOH     H1 5533   3.672   2.807   2.629
 1782HOH     H2 5534   3.776   2.698   2.613
 1783HOH      O 5535   1.134   0.208   2.419
 1783HOH     H1 5536   1.112   0.261   2.496
 1783HOH     H2 5537   1.107   0.120   2.442
 1784HOH      O 5538   2.889   0.694   0.298
 1784HOH     H1 5539   2.827   0.640   0.345
 1784HOH     H2 5540   2.905   0.769   0.356
 1785HOH      O 5541   2.213   0.304   3.639
 1785HOH     H1 5542   2.125   0.338   3.658
 1785HOH     H2 5543   2.206   0.210   3.655
 1786HOH      O 5544   1.584   0.133   2.302
 1786HOH     H1 5545   1.544   0.158   2.385
 1786HOH     H2 5546   1.595   0.039   2.308
 1787HOH      O 5547   3.059   0.239   3.162
 1787HOH     H1 5548   2.969   0.269   3.150
 1787HOH     H2 5549   3.090   0.286   3.239
 1788HOH      O 5550   3.873   2.134   2.637
 1788HOH     H1 5551   3.894   2.176   2.720
 1788HOH     H2 5552   3.947   2.153   2.580
 1789HOH      O 5553   3.766   1.246   2.583
 1789HOH     H1 5554   3.691   1.229   2.526
 1789HOH     H2 5555   3.774   1.341   2.583
 1790HOH      O 5556   1.232   1.970   3.977
 1790HOH     H1 5557   1.137   1.965   3.961
 1790HOH     H2 5558   1.247   1.906   4.047
 1791HOH      O 5559   2.294   3.164   3.448
 1791HOH     H1 5560   2.335   3.128   3.369
 1791HOH     H2 5561   2.200   3.149   3.435
 1792HOH      O 5562   0.006   1.395   0.378
 1792HOH     H1 5563   0.060   1.467   0.346
 1792HOH     H2 5564  -0.021   1.349   0.299
 1793HOH      O 5565   0.781   3.264   3.789
 1793HOH     H1 5566   0.730   3.190   3.821
 1793HOH     H2 5567   0.747   3.281   3.701
 1794HOH      O 5568   2.187   3.165   1.262
 1794HOH     H1 5569   2.132   3.133   1.190
 1794HOH     H2 5570   2.268   3.114   1.255
 1795HOH      O 5571   3.236   0.438   3.838
 1795HOH     H1 5572   3.240   0.529   3.806
 1795HOH     H2 5573   3.323   0.403   3.820
 1796HOH      O 5574   2.988   3.548   3.975
 1796HOH     H1 5575   2.942   3.466   3.958
 1796HOH     H2 5576   3.079   3.523   3.987
 1797HOH      O 5577   2.035   0.345   2.996
 1797HOH     H1 5578   1.991   0.323   2.914
 1797HOH     H2 5579   2.109   0.399   2.969
 1798HOH      O 5580   0.947   0.201   3.080
 1798HOH     H1 5581   0.978   0.164   2.998
 1798HOH     H2 5582   0.986   0.145   3.148
 1799HOH      O 5583   3.764   1.811   0.329
 1799HOH     H1 5584   3.768   1.904   0.304
 1799HOH     H2 5585   3.819   1.805   0.407
 1800HOH      O 5586   3.291   3.979   3.399
 1800HOH     H1 5587   3.213   3.924   3.401
 1800HOH     H2 5588   3.290   4.018   3.311
 1801HOH      O 5589   0.341   3.519   1.139
 1801HOH     H1 5590   0.374   3.494   1.053
 1801HOH     H2 5591   0.290   3.599   1.123
 1802HOH      O 5592   2.965   3.417   0.220
 1802HOH     H1 5593   2.983   3.504   0.255
 1802HOH     H2 5594   3.049   3.386   0.188
 1803HOH      O 5595   1.339   2.023   2.752
 1803HOH     H1 5596   1.394   1.994   2.825
 1803HOH     H2 5597   1.328   1.945   2.698
 1804HOH      O 5598   1.212   1.663   1.276
 1804HOH     H1 5599   1.178   1.663   1.366
 1804HOH     H2 5600   1.305   1.642   1.286
 1805HOH      O 5601   3.881   2.529   1.143
 1805HOH     H1 5602   3.917   2.481   1.217
 1805HOH     H2 5603   3.950   2.525   1.076
 1806HOH      O 5604   0.501   3.808   0.649
 1806HOH     H1 5605   0.562   3.753   0.698
 1806HOH     H2 5606   0.507   3.894   0.691
 1807HOH      O 5607   2.473   0.767   3.515
 1807HOH     H1 5608   2.501   0.777   3.424
 1807HOH     H2 5609   2.555   0.764   3.564
 1808HOH      O 5610   1.349   0.164   3.089
 1808HOH     H1 5611   1.309   0.208   3.014
 1808HOH     H2 5612   1.394   0.088   3.052
 1809HOH      O 5613   3.399   3.303   2.485
 1809HOH     H1 5614   3.478   3.267   2.445
 1809HOH     H2 5615   3.360   3.357   2.416
 1810HOH      O 5616   1.817   0.068   2.562
 1810HOH     H1 5617   1.836   0.005   2.492
 1810HOH     H2 5618   1.793   0.148   2.517
 1811HOH      O 5619   0.062   2.425   0.490
 1811HOH     H1 5620   0.141   2.456   0.534
 1811HOH     H2 5621   0.002   2.499   0.494
 1812HOH      O 5622   1.367   2.078   0.801
 1812HOH     H1 5623   1.417   2.145   0.848
 1812HOH     H2 5624   1.398   2.083   0.711
 1813HOH      O 5625   0.657   2.717   1.266
 1813HOH     H1 5626   0.711   2.779   1.316
 1813HOH     H2 5627   0.577   2.709   1.318
 1814HOH      O 5628   3.493   2.254   3.880
 1814HOH     H1 5629   3.490   2.178   3.821
 1814HOH     H2 5630   3.406   2.293   3.872
 1815HOH      O 5631   2.982   1.688   1.723
 1815HOH     H1 5632   2.962   1.627   1.651
 1815HOH     H2 5633   3.060   1.651   1.764
 1816HOH      O 5634   1.394   2.955   3.545
 1816HOH     H1 5635   1.378   2.883   3.607
 1816HOH     H2 5636   1.481   2.987   3.569
 1817HOH      O 5637   0.733   2.351   1.734
 1817HOH     H1 5638   0.651   2.371   1.689
 1817HOH     H2 5639   0.800   2.400   1.685
 1818HOH      O 5640   2.265   0.966   2.987
 1818HOH     H1 5641   2.313   1.039   3.024
 1818HOH     H2 5642   2.291   0.964   2.895
 1819HOH      O 5643   1.879   3.228   3.924
 1819HOH     H1 5644   1.920   3.303   3.882
 1819HOH     H2 5645   1.891   3.156   3.862
 1820HOH      O 5646   2.285   1.824   0.487
 1820HOH     H1 5647   2.380   1.811   0.493
 1820HOH     H2 5648   2.275   1.915   0.458
 1821HOH      O 5649   3.345   0.490   2.605
 1821HOH     H1 5650   3.250   0.499   2.613
 1821HOH     H2 5651   3.377   0.580   2.594
 1822HOH      O 5652   3.531   3.054   3.592
 1822HOH     H1 5653   3.523   2.987   3.525
 1822HOH     H2 5654   3.468   3.121   3.566
 1823HOH      O 5655   3.960   4.010   1.096
 1823HOH     H1 5656   3.887   3.954   1.071
 1823HOH     H2 5657   3.978   3.988   1.187
 1824HOH      O 5658   1.618   1.097   0.416
 1824HOH     H1 5659   1.572   1.069   0.337
 1824HOH     H2 5660   1.666   1.175   0.389
 1825HOH      O 5661   3.366   2.282   0.335
 1825HOH     H1 5662   3.397   2.368   0.362
 1825HOH     H2 5663   3.357   2.233   0.417
 1826HOH      O 5664   0.642   1.474   1.290
 1826HOH     H1 5665   0.664   1.383   1.270
 1826HOH     H2 5666   0.590   1.469   1.370
 1827HOH      O 5667   3.277   3.941   2.862
 1827HOH     H1 5668   3.182   3.940   2.869
 1827HOH     H2 5669   3.296   4.014   2.803
 1828HOH      O 5670   0.146   1.452   1.536
 1828HOH     H1 5671   0.094   1.532   1.539
 1828HOH     H2 5672   0.082   1.381   1.538
 1829HOH      O 5673   2.641   1.630   0.316
 1829HOH     H1 5674   2.676   1.716   0.294
 1829HOH     H2 5675   2.587   1.646   0.393
 1830HOH      O 5676   0.677   2.686   3.945
 1830HOH     H1 5677   0.651   2.631   4.019
 1830HOH     H2 5678   0.705   2.624   3.878
 1831HOH      O 5679   3.354   0.264   1.121
 1831HOH     H1 5680   3.277   0.241   1.069
 1831HOH     H2 5681   3.344   0.213   1.202
 1832HOH      O 5682   3.476   1.577   3.473
 1832HOH     H1 5683   3.395   1.551   3.516
 1832HOH     H2 5684   3.448   1.614   3.389
 1833HOH      O 5685   0.166   2.985   2.401
 1833HOH     H1 5686   0.209   2.900   2.412
 1833HOH     H2 5687   0.209   3.042   2.464
 1834HOH      O 5688   0.233   0.504   0.362
 1834HOH     H1 5689   0.328   0.489   0.360
 1834HOH     H2 5690   0.203   0.474   0.276
 1835HOH      O 5691   0.610   1.344   2.521
 1835HOH     H1 5692   0.525   1.301   2.508
 1835HOH     H2 5693   0.589   1.436   2.531
 1836HOH      O 5694   2.184   3.737   3.387
 1836HOH     H1 5695   2.246   3.793   3.340
 1836HOH     H2 5696   2.238   3.670   3.428
 1837HOH      O 5697   2.606   0.132   1.293
 1837HOH     H1 5698   2.648   0.204   1.337
 1837HOH     H2 5699   2.667   0.059   1.302
 1838HOH      O 5700   3.158   3.241   0.976
 1838HOH     H1 5701   3.192   3.319   0.932
 1838HOH     H2 5702   3.065   3.261   0.992
 1839HOH      O 5703   3.112   0.951   0.867
 1839HOH     H1 5704   3.201   0.958   0.834
 1839HOH     H2 5705   3.107   1.017   0.936
 1840HOH      O 5706   2.552   2.565   1.866
 1840HOH     H1 5707   2.627   2.607   1.908
 1840HOH     H2 5708   2.558   2.474   1.894
 1841HOH      O 5709   0.547   0.072   2.658
 1841HOH     H1 5710   0.521   0.164   2.653
 1841HOH     H2 5711   0.490   0.028   2.595
 1842HOH      O 5712   3.176   1.464   0.655
 1842HOH     H1 5713   3.240   1.420   0.599
 1842HOH     H2 5714   3.138   1.394   0.708
 1843HOH      O 5715   1.842   4.009   0.234
 1843HOH     H1 5716   1.757   4.025   0.194
 1843HOH     H2 5717   1.822   3.958   0.313
 1844HOH      O 5718   2.773   3.237   2.494
 1844HOH     H1 5719   2.709   3.223   2.564
 1844HOH     H2 5720   2.793   3.331   2.499
 1845HOH      O 5721   0.062   3.653   2.660
 1845HOH     H1 5722   0.148   3.694   2.664
 1845HOH     H2 5723   0.003   3.723   2.631
 1846HOH      O 5724   3.168   1.218   3.702
 1846HOH     H1 5725   3.255   1.178   3.697
 1846HOH     H2 5726   3.152   1.227   3.796
 1847HOH      O 5727   3.412   2.698   2.133
 1847HOH     H1 5728   3.329   2.653   2.146
 1847HOH     H2 5729   3.442   2.719   2.221
 1848HOH      O 5730   1.850   0.923   0.500
 1848HOH     H1 5731   1.896   0.994   0.545
 1848HOH     H2 5732   1.798   0.967   0.433
 1849HOH      O 5733   1.675   3.489   0.194
 1849HOH     H1 5734   1.591   3.530   0.177
 1849HOH     H2 5735   1.691   3.505   0.287
 1850HOH      O 5736   0.529   0.120   2.940
 1850HOH     H1 5737   0.524   0.042   2.994
 1850HOH     H2 5738   0.542   0.087   2.851
 1851HOH      O 5739   1.027   3.828   1.436
 1851HOH     H1 5740   1.090   3.885   1.479
 1851HOH     H2 5741   1.042   3.841   1.342
 1852HOH      O 5742   0.023   2.643   1.491
 1852HOH     H1 5743  -0.000   2.575   1.428
 1852HOH     H2 5744   0.009   2.603   1.576
 1853HOH      O 5745   1.413   3.621   1.906
 1853HOH     H1 5746   1.393   3.658   1.820
 1853HOH     H2 5747   1.333   3.633   1.957
 1854HOH      O 5748   0.665   0.922   2.583
 1854HOH     H1 5749   0.682   0.999   2.529
 1854HOH     H2 5750   0.570   0.910   2.579
 1855HOH      O 5751   2.756   2.489   1.144
 1855HOH     H1 5752   2.697   2.423   1.107
 1855HOH     H2 5753   2.743   2.483   1.238
 1856HOH      O 5754   2.967   2.892   1.424
 1856HOH     H1 5755   3.022   2.962   1.387
 1856HOH     H2 5756   3.025   2.845   1.484
 1857HOH      O 5757   1.527   1.927   1.148
 1857HOH     H1 5758   1.470   2.002   1.166
 1857HOH     H2 5759   1.553   1.896   1.235
 1858HOH      O 5760   1.137   3.377   3.360
 1858HOH     H1 5761   1.136   3.283   3.376
 1858HOH     H2 5762   1.069   3.412   3.417
 1859HOH      O 5763   3.007   2.878   1.884
 1859HOH     H1 5764   3.023   2.786   1.902
 1859HOH     H2 5765   3.041   2.924   1.961
 1860HOH      O 5766   0.434   1.287   0.618
 1860HOH     H1 5767   0.402   1.295   0.529
 1860HOH     H2 5768   0.366   1.327   0.672
 1861HOH      O 5769   0.064   2.146   0.577
 1861HOH     H1 5770   0.063   2.239   0.555
 1861HOH     H2 5771   0.110   2.104   0.505
 1862HOH      O 5772   1.992   0.879   2.066
 1862HOH     H1 5773   1.910   0.923   2.044
 1862HOH     H2 5774   2.008   0.902   2.158
 1863HOH      O 5775   3.450   0.680   2.980
 1863HOH     H1 5776   3.501   0.671   2.899
 1863HOH     H2 5777   3.416   0.591   2.996
 1864HOH      O 5778   2.566   1.631   2.995
 1864HOH     H1 5779   2.631   1.614   3.063
 1864HOH     H2 5780   2.511   1.553   2.994
 1865HOH      O 5781   0.482   1.971   1.254
 1865HOH     H1 5782   0.415   1.938   1.193
 1865HOH     H2 5783   0.533   2.033   1.202
 1866HOH      O 5784   1.827   3.528   3.502
 1866HOH     H1 5785   1.833   3.598   3.436
 1866HOH     H2 5786   1.840   3.447   3.452
 1867HOH      O 5787   3.222   0.120   1.616
 1867HOH     H1 5788   3.212   0.215   1.614
 1867HOH     H2 5789   3.136   0.087   1.643
 1868HOH      O 5790   1.892   2.963   0.089
 1868HOH     H1 5791   1.857   2.987   0.175
 1868HOH     H2 5792   1.897   3.047   0.042
 1869HOH      O 5793   0.885   1.630   1.309
 1869HOH     H1 5794   0.791   1.625   1.294
 1869HOH     H2 5795   0.924   1.639   1.222
 1870HOH      O 5796   3.737   0.668   1.612
 1870HOH     H1 5797   3.661   0.711   1.653
 1870HOH     H2 5798   3.812   0.720   1.641
 1871HOH      O 5799   1.834   2.104   1.726
 1871HOH     H1 5800   1.870   2.092   1.638
 1871HOH     H2 5801   1.907   2.138   1.777
 1872HOH      O 5802   0.528   0.254   3.828
 1872HOH     H1 5803   0.443   0.296   3.834
 1872HOH     H2 5804   0.588   0.313   3.874
 1873HOH      O 5805   2.387   2.681   0.205
 1873HOH     H1 5806   2.380   2.775   0.222
 1873HOH     H2 5807   2.399   2.674   0.111
 1874HOH      O 5808   2.675   1.816   2.462
 1874HOH     H1 5809   2.711   1.768   2.537
 1874HOH     H2 5810   2.606   1.871   2.499
 1875HOH      O 5811   1.877   3.047   2.022
 1875HOH     H1 5812   1.857   2.965   1.977
 1875HOH     H2 5813   1.920   3.101   1.955
 1876HOH      O 5814   1.382   2.795   2.407
 1876HOH     H1 5815   1.318   2.786   2.477
 1876HOH     H2 5816   1.387   2.889   2.390
 1877HOH      O 5817   3.271   3.512   3.942
 1877HOH     H1 5818   3.363   3.507   3.917
 1877HOH     H2 5819   3.247   3.423   3.965
 1878HOH      O 5820   3.290   2.949   2.237
 1878HOH     H1 5821   3.219   2.939   2.299
 1878HOH     H2 5822   3.364   2.904   2.277
 1879HOH      O 5823   0.032   1.870   0.134
 1879HOH     H1 5824   0.043   1.913   0.218
 1879HOH     H2 5825   0.118   1.879   0.091
 1880HOH      O 5826   2.141   3.941   1.935
 1880HOH     H1 5827   2.229   3.975   1.917
 1880HOH     H2 5828   2.087   3.975   1.864
 1881HOH      O 5829   3.633   0.186   1.390
 1881HOH     H1 5830   3.669   0.248   1.453
 1881HOH     H2 5831   3.638   0.232   1.306
 1882HOH      O 5832   3.766   3.478   2.790
 1882HOH     H1 5833   3.848   3.470   2.743
 1882HOH     H2 5834   3.778   3.425   2.869
 1883HOH      O 5835   2.329   3.545   3.515
 1883HOH     H1 5836   2.288   3.461   3.535
 1883HOH     H2 5837   2.408   3.546   3.569
 1884HOH      O 5838   3.953   3.542   1.567
 1884HOH     H1 5839   3.926   3.604   1.635
 1884HOH     H2 5840   4.048   3.537   1.575
 1885HOH      O 5841   1.824   1.706   2.305
 1885HOH     H1 5842   1.794   1.682   2.393
 1885HOH     H2 5843   1.872   1.788   2.318
 1886HOH      O 5844   0.771   3.589   3.853
 1886HOH     H1 5845   0.697   3.535   3.825
 1886HOH     H2 5846   0.822   3.532   3.911
 1887HOH      O 5847   0.778   0.146   1.000
 1887HOH     H1 5848   0.817   0.216   0.947
 1887HOH     H2 5849   0.749   0.190   1.079
 1888HOH      O 5850   3.789   3.088   0.604
 1888HOH     H1 5851   3.785   3.164   0.662
 1888HOH     H2 5852   3.706   3.089   0.556
 1889HOH      O 5853   2.675   2.868  -0.017
 1889HOH     H1 5854   2.607   2.802  -0.003
 1889HOH     H2 5855   2.697   2.900   0.070
 1890HOH      O 5856   1.351   3.154   3.392
 1890HOH     H1 5857   1.356   3.087   3.459
 1890HOH     H2 5858   1.404   3.227   3.426
 1891HOH      O 5859   1.216   0.133   3.835
 1891HOH     H1 5860   1.220   0.070   3.907
 1891HOH     H2 5861   1.308   0.146   3.811
 1892HOH      O 5862   2.950   3.875   2.140
 1892HOH     H1 5863   2.892   3.951   2.132
 1892HOH     H2 5864   2.911   3.810   2.082
 1893HOH      O 5865   3.811   0.342   3.746
 1893HOH     H1 5866   3.860   0.270   3.786
 1893HOH     H2 5867   3.842   0.345   3.656
 1894HOH      O 5868   1.777   2.936   2.467
 1894HOH     H1 5869   1.804   3.003   2.531
 1894HOH     H2 5870   1.834   2.950   2.392
 1895HOH      O 5871   1.936   1.866   1.226
 1895HOH     H1 5872   1.928   1.776   1.256
 1895HOH     H2 5873   1.924   1.861   1.131
 1896HOH      O 5874   2.520   3.178   2.675
 1896HOH     H1 5875   2.480   3.228   2.746
 1896HOH     H2 5876   2.448   3.162   2.614
 1897HOH      O 5877   0.217   0.006   3.147
 1897HOH     H1 5878   0.279  -0.029   3.212
 1897HOH     H2 5879   0.250   0.093   3.127
 1898HOH      O 5880   1.369   0.362   3.545
 1898HOH     H1 5881   1.389   0.449   3.581
 1898HOH     H2 5882   1.455   0.323   3.529
 1899HOH      O 5883   1.565   1.988   3.853
 1899HOH     H1 5884   1.648   1.953   3.883
 1899HOH     H2 5885   1.512   1.911   3.832
 1900HOH      O 5886   2.864   1.749   0.957
 1900HOH     H1 5887   2.892   1.841   0.961
 1900HOH     H2 5888   2.946   1.700   0.951
 1901HOH      O 5889   1.287   2.753   0.572
 1901HOH     H1 5890   1.297   2.847   0.562
 1901HOH     H2 5891   1.228   2.742   0.647
 1902HOH      O 5892   1.045   3.379   3.096
 1902HOH     H1 5893   1.087   3.310   3.043
 1902HOH     H2 5894   1.077   3.364   3.184
 1903HOH      O 5895   3.933   0.597   3.710
 1903HOH     H1 5896   3.888   0.595   3.625
 1903HOH     H2 5897   3.885   0.535   3.764
 1904HOH      O 5898   3.950   0.696   2.586
 1904HOH     H1 5899   3.988   0.777   2.552
 1904HOH     H2 5900   4.001   0.627   2.545
 1905HOH      O 5901   1.776   1.548   2.030
 1905HOH     H1 5902   1.759   1.594   2.113
 1905HOH     H2 5903   1.785   1.618   1.966
 1906HOH      O 5904   0.196   1.078   3.764
 1906HOH     H1 5905   0.128   1.011   3.756
 1906HOH     H2 5906   0.215   1.103   3.673
 1907HOH      O 5907   3.905   1.344   0.870
 1907HOH     H1 5908   3.886   1.438   0.879
 1907HOH     H2 5909   3.985   1.331   0.920
 1908HOH      O 5910   2.612   3.944   3.180
 1908HOH     H1 5911   2.580   3.867   3.228
 1908HOH     H2 5912   2.665   3.992   3.244
 1909HOH      O 5913   3.843   2.517   3.963
 1909HOH     H1 5914   3.792   2.435   3.961
 1909HOH     H2 5915   3.838   2.549   3.873
 1910HOH      O 5916   3.693   0.246   2.378
 1910HOH     H1 5917   3.599   0.265   2.382
 1910HOH     H2 5918   3.734   0.331   2.362
 1911HOH      O 5919   2.877   2.242   0.896
 1911HOH     H1 5920   2.893   2.225   0.803
 1911HOH     H2 5921   2.788   2.276   0.899
 1912HOH      O 5922   0.888   3.717   3.637
 1912HOH     H1 5923   0.850   3.682   3.717
 1912HOH     H2 5924   0.958   3.776   3.667
 1913HOH      O 5925   1.869   0.583   2.392
 1913HOH     H1 5926   1.956   0.602   2.426
 1913HOH     H2 5927   1.884   0.553   2.302
 1914HOH      O 5928   4.005   2.255   0.282
 1914HOH     H1 5929   4.041   2.314   0.216
 1914HOH     H2 5930   4.035   2.291   0.366
 1915HOH      O 5931   3.964   1.335   1.215
 1915HOH     H1 5932   3.949   1.428   1.203
 1915HOH     H2 5933   4.029   1.312   1.149
 1916HOH      O 5934   1.227   3.029   3.916
 1916HOH     H1 5935   1.208   2.936   3.930
 1916HOH     H2 5936   1.208   3.043   3.823
 1917HOH      O 5937   2.955   0.821   2.124
 1917HOH     H1 5938   2.976   0.791   2.035
 1917HOH     H2 5939   3.040   0.832   2.167
 1918HOH      O 5940   3.110   2.959   0.795
 1918HOH     H1 5941   3.099   3.053   0.788
 1918HOH     H2 5942   3.195   2.948   0.839
 1919HOH      O 5943   0.945   1.776   0.703
 1919HOH     H1 5944   0.998   1.696   0.697
 1919HOH     H2 5945   0.887   1.761   0.777
 1920HOH      O 5946   1.450   2.488   3.233
 1920HOH     H1 5947   1.496   2.563   3.271
 1920HOH     H2 5948   1.507   2.456   3.164
 1921HOH      O 5949   0.967   2.354   2.473
 1921HOH     H1 5950   0.999   2.324   2.388
 1921HOH     H2 5951   0.928   2.276   2.512
 1922HOH      O 5952   3.609   0.949   0.275
 1922HOH     H1 5953   3.662   0.880   0.315
 1922HOH     H2 5954   3.603   0.923   0.183
 1923HOH      O 5955   0.541   1.884   2.688
 1923HOH     H1 5956   0.466   1.894   2.748
 1923HOH     H2 5957   0.525   1.948   2.619
 1924HOH      O 5958   0.799   3.279   0.263
 1924HOH     H1 5959   0.837   3.229   0.335
 1924HOH     H2 5960   0.708   3.248   0.258
 1925HOH      O 5961   1.883   1.537   0.314
 1925HOH     H1 5962   1.966   1.526   0.360
 1925HOH     H2 5963   1.902   1.603   0.247
 1926HOH      O 5964   3.675   0.449   1.992
 1926HOH     H1 5965   3.609   0.385   1.967
 1926HOH     H2 5966   3.757   0.413   1.957
 1927HOH      O 5967   3.347   2.575   1.520
 1927HOH     H1 5968   3.437   2.603   1.504
 1927HOH     H2 5969   3.301   2.656   1.543
 1928HOH      O 5970   3.153   0.984   2.507
 1928HOH     H1 5971   3.062   1.001   2.484
 1928HOH     H2 5972   3.169   1.041   2.583
 1929HOH      O 5973   3.808   2.295   0.942
 1929HOH     H1 5974   3.872   2.332   0.880
 1929HOH     H2 5975   3.727   2.342   0.922
 1930HOH      O 5976   1.672   3.939   3.371
 1930HOH     H1 5977   1.605   4.001   3.343
 1930HOH     H2 5978   1.703   3.974   3.455
 1931HOH      O 5979   3.885   2.443   3.293
 1931HOH     H1 5980   3.862   2.443   3.386
 1931HOH     H2 5981   3.878   2.351   3.267
 1932HOH      O 5982   3.175   0.117   0.706
 1932HOH     H1 5983   3.088   0.096   0.671
 1932HOH     H2 5984   3.157   0.170   0.784
 1933HOH      O 5985   1.778   1.525   1.008
 1933HOH     H1 5986   1.806   1.529   1.100
 1933HOH     H2 5987   1.856   1.548   0.958
 1934HOH      O 5988   3.083   1.708   0.743
 1934HOH     H1 5989   3.102   1.720   0.836
 1934HOH     H2 5990   3.118   1.621   0.722
 1935HOH      O 5991   3.854   0.368   3.462
 1935HOH     H1 5992   3.793   0.344   3.392
 1935HOH     H2 5993   3.863   0.463   3.453
 1936HOH      O 5994   1.265   3.054   0.741
 1936HOH     H1 5995   1.262   3.148   0.753
 1936HOH     H2 5996   1.345   3.039   0.690
 1937HOH      O 5997   2.153   0.461   1.826
 1937HOH     H1 5998   2.112   0.492   1.745
 1937HOH     H2 5999   2.199   0.380   1.801
 1938HOH      O 6000   0.223   0.535   2.854
 1938HOH     H1 6001   0.129   0.520   2.845
 1938HOH     H2 6002   0.261   0.496   2.776
 1939HOH      O 6003   3.094   2.898   2.779
 1939HOH     H1 6004   3.019   2.840   2.760
 1939HOH     H2 6005   3.077   2.977   2.727
 1940HOH      O 6006   2.006   0.803   1.740
 1940HOH     H1 6007   2.052   0.864   1.797
 1940HOH     H2 6008   1.927   0.779   1.788
 1941HOH      O 6009   1.923   3.885   3.918
 1941HOH     H1 6010   1.954   3.800   3.949
 1941HOH     H2 6011   1.953   3.947   3.985
 1942HOH      O 6012   0.907   1.016   3.800
 1942HOH     H1 6013   0.995   1.047   3.780
 1942HOH     H2 6014   0.890   0.949   3.733
 1943HOH      O 6015   3.534   2.437   2.466
 1943HOH     H1 6016   3.487   2.513   2.499
 1943HOH     H2 6017   3.490   2.362   2.506
 1944HOH      O 6018   0.238   0.107   0.045
 1944HOH     H1 6019   0.239   0.063  -0.040
 1944HOH     H2 6020   0.146   0.113   0.068
 1945HOH      O 6021   1.873   1.670   2.891
 1945HOH     H1 6022   1.799   1.649   2.833
 1945HOH     H2 6023   1.847   1.752   2.934
 1946HOH      O 6024   2.631   0.141   3.750
 1946HOH     H1 6025   2.562   0.087   3.712
 1946HOH     H2 6026   2.601   0.231   3.736
 1947HOH      O 6027   2.899   3.358   0.941
 1947HOH     H1 6028   2.812   3.342   0.978
 1947HOH     H2 6029   2.903   3.302   0.864
 1948HOH      O 6030   2.754   1.557   2.363
 1948HOH     H1 6031   2.741   1.640   2.409
 1948HOH     H2 6032   2.848   1.539   2.372
 1949HOH      O 6033   0.758   3.185   0.693
 1949HOH     H1 6034   0.844   3.227   0.690
 1949HOH     H2 6035   0.697   3.252   0.662
 1950HOH      O 6036   1.622   3.055   3.610
 1950HOH     H1 6037   1.627   3.138   3.562
 1950HOH     H2 6038   1.595   3.081   3.699
 1951HOH      O 6039   1.198   3.857   2.208
 1951HOH     H1 6040   1.168   3.938   2.248
 1951HOH     H2 6041   1.277   3.881   2.160
 1952HOH      O 6042   3.197   0.255   2.133
 1952HOH     H1 6043   3.196   0.159   2.125
 1952HOH     H2 6044   3.289   0.278   2.130
 1953HOH      O 6045   1.207   3.121   0.154
 1953HOH     H1 6046   1.113   3.100   0.154
 1953HOH     H2 6047   1.238   3.088   0.069
 1954HOH      O 6048   0.536   2.515   0.099
 1954HOH     H1 6049   0.463   2.577   0.099
 1954HOH     H2 6050   0.498   2.435   0.061
 1955HOH      O 6051   0.111   1.952   3.070
 1955HOH     H1 6052   0.054   1.976   2.997
 1955HOH     H2 6053   0.053   1.912   3.134
 1956HOH      O 6054   0.197   3.703   2.341
 1956HOH     H1 6055   0.283   3.682   2.379
 1956HOH     H2 6056   0.139   3.713   2.416
 1957HOH      O 6057   0.616   0.011   1.305
 1957HOH     H1 6058   0.580   0.094   1.337
 1957HOH     H2 6059   0.706   0.033   1.279
 1958HOH      O 6060   0.659   0.733   1.996
 1958HOH     H1 6061   0.642   0.638   1.995
 1958HOH     H2 6062   0.732   0.744   1.935
 1959HOH      O 6063   2.319   0.613   1.986
 1959HOH     H1 6064   2.247   0.637   2.044
 1959HOH     H2 6065   2.277   0.573   1.910
 1960HOH      O 6066   0.014   0.187   3.510
 1960HOH     H1 6067   0.101   0.220   3.490
 1960HOH     H2 6068  -0.046   0.251   3.469
 1961HOH      O 6069   3.988   0.437   1.174
 1961HOH     H1 6070   3.969   0.501   1.243
 1961HOH     H2 6071   3.910   0.382   1.170
 1962HOH      O 6072   3.147   2.547   0.311
 1962HOH     H1 6073   3.140   2.455   0.285
 1962HOH     H2 6074   3.226   2.550   0.366
 1963HOH      O 6075   2.737   3.249   1.872
 1963HOH     H1 6076   2.753   3.336   1.835
 1963HOH     H2 6077   2.645   3.252   1.899
 1964HOH      O 6078   2.454   2.809   1.608
 1964HOH     H1 6079   2.488   2.856   1.684
 1964HOH     H2 6080   2.478   2.718   1.622
 1965HOH      O 6081   0.566   1.015   0.131
 1965HOH     H1 6082   0.543   0.924   0.113
 1965HOH     H2 6083   0.483   1.063   0.124
 1966HOH      O 6084   0.120   1.445   1.965
 1966HOH     H1 6085   0.110   1.529   2.010
 1966HOH     H2 6086   0.185   1.461   1.897
 1967HOH      O 6087   0.353   0.851   3.908
 1967HOH     H1 6088   0.332   0.939   3.878
 1967HOH     H2 6089   0.297   0.837   3.984
 1968HOH      O 6090   3.869   3.377   1.808
 1968HOH     H1 6091   3.913   3.440   1.865
 1968HOH     H2 6092   3.818   3.431   1.748
 1969HOH      O 6093   2.778   3.918   1.301
 1969HOH     H1 6094   2.846   3.862   1.340
 1969HOH     H2 6095   2.777   3.893   1.209
 1970HOH      O 6096   3.944   3.335   1.161
 1970HOH     H1 6097   3.930   3.344   1.067
 1970HOH     H2 6098   4.019   3.276   1.168
 1971HOH      O 6099   0.925   4.001   0.057
 1971HOH     H1 6100   0.992   4.036   0.115
 1971HOH     H2 6101   0.854   3.976   0.116
 1972HOH      O 6102   0.549   0.848   0.373
 1972HOH     H1 6103   0.465   0.886   0.401
 1972HOH     H2 6104   0.614   0.913   0.400
 1973HOH      O 6105   1.249   1.803   0.173
 1973HOH     H1 6106   1.314   1.830   0.238
 1973HOH     H2 6107   1.245   1.708   0.181
 1974HOH      O 6108   1.102   2.260   0.904
 1974HOH     H1 6109   1.191   2.248   0.935
 1974HOH     H2 6110   1.064   2.326   0.962
 1975HOH      O 6111   0.355   0.284   0.252
 1975HOH     H1 6112   0.424   0.310   0.192
 1975HOH     H2 6113   0.314   0.208   0.211
 1976HOH      O 6114   2.607   1.015   0.828
 1976HOH     H1 6115   2.590   0.960   0.752
 1976HOH     H2 6116   2.626   0.954   0.899
 1977HOH      O 6117   0.910   1.124   0.737
 1977HOH     H1 6118   1.001   1.117   0.765
 1977HOH     H2 6119   0.915   1.145   0.644
 1978HOH      O 6120   1.583   3.023   1.784
 1978HOH     H1 6121   1.593   2.992   1.694
 1978HOH     H2 6122   1.502   2.982   1.814
 1979HOH      O 6123   2.008   3.130   3.485
 1979HOH     H1 6124   2.007   3.147   3.579
 1979HOH     H2 6125   1.998   3.036   3.477
 1980HOH      O 6126   3.686   1.706   2.443
 1980HOH     H1 6127   3.605   1.706   2.494
 1980HOH     H2 6128   3.685   1.623   2.396
 1981HOH      O 6129   0.855   3.912   0.939
 1981HOH     H1 6130   0.866   3.867   1.023
 1981HOH     H2 6131   0.858   4.005   0.962
 1982HOH      O 6132   2.763   0.438   0.788
 1982HOH     H1 6133   2.701   0.403   0.725
 1982HOH     H2 6134   2.845   0.448   0.739
 1983HOH      O 6135   0.821   2.478   2.717
 1983HOH     H1 6136   0.828   2.413   2.786
 1983HOH     H2 6137   0.809   2.427   2.637
 1984HOH      O 6138   2.293   3.872   1.655
 1984HOH     H1 6139   2.285   3.930   1.732
 1984HOH     H2 6140   2.350   3.921   1.595
 1985HOH      O 6141   3.567   3.468   3.130
 1985HOH     H1 6142   3.491   3.496   3.079
 1985HOH     H2 6143   3.546   3.378   3.156
 1986HOH      O 6144   1.996   0.715   3.570
 1986HOH     H1 6145   2.079   0.708   3.524
 1986HOH     H2 6146   2.020   0.734   3.661
 1987HOH      O 6147   0.179   1.824   1.363
 1987HOH     H1 6148   0.208   1.826   1.455
 1987HOH     H2 6149   0.203   1.910   1.329
 1988HOH      O 6150   1.098   2.443   1.970
 1988HOH     H1 6151   1.171   2.385   1.947
 1988HOH     H2 6152   1.020   2.397   1.938
 1989HOH      O 6153   2.732   3.026   2.727
 1989HOH     H1 6154   2.795   3.071   2.784
 1989HOH     H2 6155   2.657   3.085   2.724
 1990HOH      O 6156   3.018   0.672   0.559
 1990HOH     H1 6157   2.963   0.737   0.601
 1990HOH     H2 6158   3.104   0.712   0.552
 1991HOH      O 6159   3.660   2.979   1.782
 1991HOH     H1 6160   3.659   2.902   1.838
 1991HOH     H2 6161   3.614   3.046   1.832
 1992HOH      O 6162   3.025   0.118   0.329
 1992HOH     H1 6163   3.010   0.201   0.285
 1992HOH     H2 6164   2.979   0.127   0.413
 1993HOH      O 6165   0.210   2.609   0.631
 1993HOH     H1 6166   0.304   2.603   0.648
 1993HOH     H2 6167   0.179   2.676   0.691
 1994HOH      O 6168   2.350   0.344   0.975
 1994HOH     H1 6169   2.404   0.416   0.943
 1994HOH     H2 6170   2.385   0.267   0.931
 1995HOH      O 6171   0.908   2.256   0.090
 1995HOH     H1 6172   0.819   2.225   0.108
 1995HOH     H2 6173   0.964   2.206   0.150
 1996HOH      O 6174   0.691   0.909   0.874
 1996HOH     H1 6175   0.784   0.918   0.894
 1996HOH     H2 6176   0.665   0.995   0.841
 1997HOH      O 6177   0.952   0.710   1.527
 1997HOH     H1 6178   1.017   0.640   1.533
 1997HOH     H2 6179   0.968   0.749   1.441
 1998HOH      O 6180   0.319   2.408   3.767
 1998HOH     H1 6181   0.296   2.354   3.843
 1998HOH     H2 6182   0.236   2.421   3.721
 1999HOH      O 6183   3.374   0.762   2.543
 1999HOH     H1 6184   3.404   0.819   2.472
 1999HOH     H2 6185   3.299   0.808   2.580
 2000HOH      O 6186   3.898   2.194   2.276
 2000HOH     H1 6187   3.856   2.247   2.345
 2000HOH     H2 6188   3.974   2.155   2.319
 2001HOH      O 6189   1.659   1.927   2.713
 2001HOH     H1 6190   1.672   2.021   2.702
 2001HOH     H2 6191   1.633   1.916   2.804
 2002HOH      O 6192   1.067   2.275   2.242
 2002HOH     H1 6193   1.157   2.264   2.212
 2002HOH     H2 6194   1.024   2.193   2.219
 2003HOH      O 6195   2.494   0.676   0.327
 2003HOH     H1 6196   2.403   0.647   0.321
 2003HOH     H2 6197   2.518   0.700   0.237
 2004HOH      O 6198   3.868   3.694   0.937
 2004HOH     H1 6199   3.820   3.659   0.862
 2004HOH     H2 6200   3.960   3.686   0.912
 2005HOH      O 6201   3.904   2.908   2.484
 2005HOH     H1 6202   3.994   2.939   2.482
 2005HOH     H2 6203   3.911   2.812   2.483
 2006HOH      O 6204   2.076   0.363   2.282
 2006HOH     H1 6205   2.122   0.445   2.301
 2006HOH     H2 6206   2.135   0.294   2.313
 2007HOH      O 6207   1.610   1.311   1.695
 2007HOH     H1 6208   1.677   1.246   1.675
 2007HOH     H2 6209   1.541   1.295   1.630
 2008HOH      O 6210   3.256   2.404   2.083
 2008HOH     H1 6211   3.230   2.472   2.144
 2008HOH     H2 6212   3.242   2.322   2.131
 2009HOH      O 6213   3.571   0.838   3.629
 2009HOH     H1 6214   3.626   0.836   3.551
 2009HOH     H2 6215   3.539   0.929   3.633
 2010HOH      O 6216   3.954   1.868   0.558
 2010HOH     H1 6217   4.048   1.848   0.565
 2010HOH     H2 6218   3.951   1.961   0.539
 2011HOH      O 6219   1.862   0.492   3.763
 2011HOH     H1 6220   1.886   0.581   3.789
 2011HOH     H2 6221   1.830   0.501   3.673
 2012HOH      O 6222   2.622   0.610   1.495
 2012HOH     H1 6223   2.567   0.532   1.496
 2012HOH     H2 6224   2.661   0.613   1.582
 2013HOH      O 6225   0.098   3.646   0.820
 2013HOH     H1 6226   0.168   3.707   0.843
 2013HOH     H2 6227   0.133   3.598   0.745
 2014HOH      O 6228   3.172   2.120   0.184
 2014HOH     H1 6229   3.150   2.037   0.228
 2014HOH     H2 6230   3.240   2.158   0.239
 2015HOH      O 6231   1.375   2.049   3.426
 2015HOH     H1 6232   1.391   1.959   3.398
 2015HOH     H2 6233   1.456   2.077   3.468
 2016HOH      O 6234   0.520   3.487   3.236
 2016HOH     H1 6235   0.599   3.517   3.281
 2016HOH     H2 6236   0.551   3.456   3.151
 2017HOH      O 6237   2.481   2.081   1.063
 2017HOH     H1 6238   2.424   2.148   1.103
 2017HOH     H2 6239   2.432   2.051   0.986
 2018HOH      O 6240   2.512   2.456   0.373
 2018HOH     H1 6241   2.514   2.362   0.389
 2018HOH     H2 6242   2.552   2.494   0.452
 2019HOH      O 6243   3.214   0.849   3.232
 2019HOH     H1 6244   3.159   0.878   3.160
 2019HOH     H2 6245   3.275   0.921   3.246
 2020HOH      O 6246   3.092   1.294   0.364
 2020HOH     H1 6247   3.166   1.323   0.417
 2020HOH     H2 6248   3.040   1.238   0.423
 2021HOH      O 6249   2.953   2.028   3.063
 2021HOH     H1 6250   3.038   2.071   3.066
 2021HOH     H2 6251   2.890   2.100   3.060
 2022HOH      O 6252   1.365   0.890   1.657
 2022HOH     H1 6253   1.385   0.946   1.733
 2022HOH     H2 6254   1.347   0.952   1.586
 2023HOH      O 6255   2.897   0.952   3.444
 2023HOH     H1 6256   2.806   0.954   3.413
 2023HOH     H2 6257   2.892   0.982   3.535
 2024HOH      O 6258   3.610   0.083   3.615
 2024HOH     H1 6259   3.568   0.001   3.588
 2024HOH     H2 6260   3.556   0.115   3.687
 2025HOH      O 6261   0.114   0.834   1.106
 2025HOH     H1 6262   0.164   0.843   1.187
 2025HOH     H2 6263   0.106   0.740   1.093
 2026HOH      O 6264   3.782   0.878   1.973
 2026HOH     H1 6265   3.812   0.841   2.055
 2026HOH     H2 6266   3.861   0.915   1.933
 2027HOH      O 6267   2.973   1.924   2.324
 2027HOH     H1 6268   2.935   1.869   2.393
 2027HOH     H2 6269   3.067   1.910   2.331
 2028HOH      O 6270   3.373   3.886   1.500
 2028HOH     H1 6271   3.434   3.840   1.558
 2028HOH     H2 6272   3.289   3.883   1.546
 2029HOH      O 6273   0.063   1.148   3.300
 2029HOH     H1 6274   0.055   1.096   3.220
 2029HOH     H2 6275   0.121   1.097   3.356
 2030HOH      O 6276   3.096   1.146   1.082
 2030HOH     H1 6277   3.188   1.121   1.094
 2030HOH     H2 6278   3.062   1.157   1.170
 2031HOH      O 6279   1.272   3.627   3.291
 2031HOH     H1 6280   1.344   3.614   3.353
 2031HOH     H2 6281   1.227   3.542   3.289
 2032HOH      O 6282   3.611   2.583   1.179
 2032HOH     H1 6283   3.699   2.551   1.160
 2032HOH     H2 6284   3.613   2.603   1.273
 2033HOH      O 6285   1.636   2.059   3.581
 2033HOH     H1 6286   1.725   2.026   3.582
 2033HOH     H2 6287   1.605   2.048   3.671
 2034HOH      O 6288   2.887   2.182   0.167
 2034HOH     H1 6289   2.865   2.123   0.095
 2034HOH     H2 6290   2.983   2.180   0.171
 2035HOH      O 6291   0.249   0.299   3.443
 2035HOH     H1 6292   0.278   0.317   3.532
 2035HOH     H2 6293   0.299   0.359   3.388
 2036HOH      O 6294   0.382   0.504   3.061
 2036HOH     H1 6295   0.321   0.512   2.988
 2036HOH     H2 6296   0.454   0.563   3.038
 2037HOH      O 6297   0.358   3.258   0.777
 2037HOH     H1 6298   0.408   3.340   0.775
 2037HOH     H2 6299   0.324   3.249   0.688
 2038HOH      O 6300   2.309   3.355   2.907
 2038HOH     H1 6301   2.233   3.409   2.928
 2038HOH     H2 6302   2.345   3.331   2.993
 2039HOH      O 6303   3.368   0.130   2.681
 2039HOH     H1 6304   3.452   0.163   2.713
 2039HOH     H2 6305   3.365   0.158   2.590
 2040HOH      O 6306   3.447   3.683   2.403
 2040HOH     H1 6307   3.508   3.652   2.470
 2040HOH     H2 6308   3.390   3.608   2.386
 2041HOH      O 6309   0.646   2.265   1.335
 2041HOH     H1 6310   0.566   2.221   1.364
 2041HOH     H2 6311   0.615   2.347   1.297
 2042HOH      O 6312   0.617   1.634   0.087
 2042HOH     H1 6313   0.538   1.580   0.078
 2042HOH     H2 6314   0.682   1.590   0.032
 2043HOH      O 6315   1.425   1.081   3.210
 2043HOH     H1 6316   1.370   1.147   3.253
 2043HOH     H2 6317   1.501   1.130   3.178
 2044HOH      O 6318   0.227   2.199   1.601
 2044HOH     H1 6319   0.241   2.218   1.693
 2044HOH     H2 6320   0.146   2.148   1.598
 2045HOH      O 6321   0.643   2.323   2.530
 2045HOH     H1 6322   0.616   2.237   2.499
 2045HOH     H2 6323   0.587   2.340   2.606
 2046HOH      O 6324   1.967   1.132   3.264
 2046HOH     H1 6325   2.041   1.193   3.263
 2046HOH     H2 6326   1.898   1.180   3.310
 2047HOH      O 6327   3.896   3.135   0.330
 2047HOH     H1 6328   3.814   3.167   0.293
 2047HOH     H2 6329   3.869   3.076   0.401
 2048HOH      O 6330   2.748   1.382   0.260
 2048HOH     H1 6331   2.735   1.456   0.318
 2048HOH     H2 6332   2.792   1.419   0.183
 2049HOH      O 6333   2.880   3.229   2.232
 2049HOH     H1 6334   2.855   3.207   2.321
 2049HOH     H2 6335   2.832   3.310   2.213
 2050HOH      O 6336   2.513   2.956   1.830
 2050HOH     H1 6337   2.420   2.945   1.850
 2050HOH     H2 6338   2.524   3.051   1.818
 2051HOH      O 6339   0.932   0.598   0.456
 2051HOH     H1 6340   0.920   0.689   0.485
 2051HOH     H2 6341   0.983   0.606   0.375
 2052HOH      O 6342   0.320   3.827   1.646
 2052HOH     H1 6343   0.258   3.897   1.624
 2052HOH     H2 6344   0.405   3.861   1.619
 2053HOH      O 6345   3.551   3.375   3.489
 2053HOH     H1 6346   3.523   3.321   3.415
 2053HOH     H2 6347   3.647   3.375   3.483
 2054HOH      O 6348   0.647   3.848   2.736
 2054HOH     H1 6349   0.610   3.934   2.718
 2054HOH     H2 6350   0.628   3.797   2.657
 2055HOH      O 6351   1.144   3.066   3.660
 2055HOH     H1 6352   1.217   3.045   3.603
 2055HOH     H2 6353   1.124   3.158   3.641
 2056HOH      O 6354   2.975   1.525   1.508
 2056HOH     H1 6355   2.900   1.482   1.465
 2056HOH     H2 6356   3.039   1.536   1.438
 2057HOH      O 6357   2.768   2.070   1.733
 2057HOH     H1 6358   2.814   2.004   1.785
 2057HOH     H2 6359   2.814   2.152   1.750
 2058HOH      O 6360   0.444   2.092   2.007
 2058HOH     H1 6361   0.413   2.182   1.991
 2058HOH     H2 6362   0.502   2.074   1.932
 2059HOH      O 6363   1.731   0.179   3.891
 2059HOH     H1 6364   1.702   0.119   3.960
 2059HOH     H2 6365   1.812   0.217   3.925
 2060HOH      O 6366   1.177   0.464   0.505
 2060HOH     H1 6367   1.117   0.537   0.519
 2060HOH     H2 6368   1.227   0.459   0.587
 2061HOH      O 6369   0.260   1.847   3.411
 2061HOH     H1 6370   0.171   1.880   3.416
 2061HOH     H2 6371   0.295   1.859   3.500
 2062HOH      O 6372   4.027   0.623   2.001
 2062HOH     H1 6373   4.040   0.682   1.927
 2062HOH     H2 6374   3.998   0.540   1.961
 2063HOH      O 6375   3.671   0.312   1.716
 2063HOH     H1 6376   3.632   0.225   1.707
 2063HOH     H2 6377   3.672   0.327   1.811
 2064HOH      O 6378   0.946   0.657   2.221
 2064HOH     H1 6379   0.979   0.744   2.244
 2064HOH     H2 6380   0.863   0.649   2.268
 2065HOH      O 6381   2.396   2.986   1.101
 2065HOH     H1 6382   2.385   2.920   1.169
 2065HOH     H2 6383   2.431   3.062   1.146
 2066HOH      O 6384   0.778   1.229   3.086
 2066HOH     H1 6385   0.738   1.178   3.157
 2066HOH     H2 6386   0.732   1.199   3.007
 2067HOH      O 6387   2.057   1.732   2.648
 2067HOH     H1 6388   1.993   1.700   2.712
 2067HOH     H2 6389   2.038   1.825   2.639
 2068HOH      O 6390   0.385   3.042   2.594
 2068HOH     H1 6391   0.461   3.048   2.536
 2068HOH     H2 6392   0.416   3.074   2.678
 2069HOH      O 6393   3.890   1.647   0.903
 2069HOH     H1 6394   3.976   1.686   0.890
 2069HOH     H2 6395   3.834   1.689   0.837
 2070HOH      O 6396   3.116   1.622   0.993
 2070HOH     H1 6397   3.187   1.566   0.962
 2070HOH     H2 6398   3.097   1.591   1.081
 2071HOH      O 6399   2.858   3.128   2.994
 2071HOH     H1 6400   2.907   3.205   3.024
 2071HOH     H2 6401   2.839   3.079   3.074
 2072HOH      O 6402   2.809   3.395   1.221
 2072HOH     H1 6403   2.822   3.415   1.128
 2072HOH     H2 6404   2.890   3.423   1.263
 2073HOH      O 6405   1.870   3.279   0.163
 2073HOH     H1 6406   1.817   3.359   0.168
 2073HOH     H2 6407   1.868   3.256   0.070
 2074HOH      O 6408   2.833   2.345   1.791
 2074HOH     H1 6409   2.833   2.362   1.885
 2074HOH     H2 6410   2.832   2.431   1.751
 2075HOH      O 6411   1.994   3.616   3.944
 2075HOH     H1 6412   1.970   3.577   3.860
 2075HOH     H2 6413   2.047   3.549   3.987
 2076HOH      O 6414   2.354   2.977   0.213
 2076HOH     H1 6415   2.448   2.972   0.230
 2076HOH     H2 6416   2.346   3.047   0.148
 2077HOH      O 6417   1.617   3.638   1.042
 2077HOH     H1 6418   1.613   3.604   0.953
 2077HOH     H2 6419   1.628   3.560   1.097
 2078HOH      O 6420   3.500   1.561   2.692
 2078HOH     H1 6421   3.456   1.482   2.722
 2078HOH     H2 6422   3.586   1.558   2.733
 2079HOH      O 6423   3.127   0.900   1.431
 2079HOH     H1 6424   3.087   0.897   1.518
 2079HOH     H2 6425   3.203   0.957   1.442
 2080HOH      O 6426   3.094   1.131   2.914
 2080HOH     H1 6427   3.090   1.046   2.957
 2080HOH     H2 6428   3.052   1.117   2.829
 2081HOH      O 6429   2.503   3.062   0.527
 2081HOH     H1 6430   2.559   3.020   0.592
 2081HOH     H2 6431   2.447   2.991   0.495
 2082HOH      O 6432   0.835   0.098   1.844
 2082HOH     H1 6433   0.767   0.051   1.892
 2082HOH     H2 6434   0.872   0.033   1.784
 2083HOH      O 6435   3.291   3.497   3.366
 2083HOH     H1 6436   3.385   3.513   3.358
 2083HOH     H2 6437   3.254   3.531   3.284
 2084HOH      O 6438   3.152   1.631   2.138
 2084HOH     H1 6439   3.101   1.584   2.073
 2084HOH     H2 6440   3.222   1.673   2.089
 2085HOH      O 6441   3.835   1.537   3.169
 2085HOH     H1 6442   3.853   1.593   3.094
 2085HOH     H2 6443   3.849   1.593   3.245
 2086HOH      O 6444   1.452   2.074   0.135
 2086HOH     H1 6445   1.536   2.056   0.178
 2086HOH     H2 6446   1.418   2.151   0.180
 2087HOH      O 6447   1.658   2.338   3.609
 2087HOH     H1 6448   1.573   2.352   3.567
 2087HOH     H2 6449   1.666   2.243   3.616
 2088HOH      O 6450   2.887   1.411   3.808
 2088HOH     H1 6451   2.810   1.365   3.776
 2088HOH     H2 6452   2.860   1.447   3.893
 2089HOH      O 6453   1.201   1.750   0.591
 2089HOH     H1 6454   1.142   1.817   0.625
 2089HOH     H2 6455   1.251   1.795   0.522
 2090HOH      O 6456   0.480   1.604   1.064
 2090HOH     H1 6457   0.480   1.535   1.129
 2090HOH     H2 6458   0.551   1.581   1.004
 2091HOH      O 6459   0.288   1.890   0.020
 2091HOH     H1 6460   0.331   1.805   0.012
 2091HOH     H2 6461   0.359   1.954   0.014
 2092HOH      O 6462   2.876   0.704   2.388
 2092HOH     H1 6463   2.860   0.786   2.434
 2092HOH     H2 6464   2.886   0.730   2.296
 2093HOH      O 6465   1.728   3.899   0.979
 2093HOH     H1 6466   1.702   3.818   1.022
 2093HOH     H2 6467   1.658   3.915   0.916
 2094HOH      O 6468   2.683   3.900   3.600
 2094HOH     H1 6469   2.620   3.869   3.664
 2094HOH     H2 6470   2.767   3.864   3.629
 2095HOH      O 6471   3.183   3.936   0.225
 2095HOH     H1 6472   3.257   3.941   0.286
 2095HOH     H2 6473   3.125   4.007   0.252
 2096HOH      O 6474   0.861   3.637   0.617
 2096HOH     H1 6475   0.821   3.702   0.560
 2096HOH     H2 6476   0.955   3.643   0.599
 2097HOH      O 6477   1.218   1.816   2.625
 2097HOH     H1 6478   1.122   1.820   2.624
 2097HOH     H2 6479   1.242   1.795   2.535
 2098HOH      O 6480   3.099   0.728   1.920
 2098HOH     H1 6481   3.184   0.769   1.906
 2098HOH     H2 6482   3.117   0.634   1.920
 2099HOH      O 6483   2.585   0.128   0.355
 2099HOH     H1 6484   2.544   0.053   0.399
 2099HOH     H2 6485   2.549   0.125   0.266
 2100HOH      O 6486   2.445   3.209   1.931
 2100HOH     H1 6487   2.379   3.278   1.924
 2100HOH     H2 6488   2.417   3.158   2.008
 2101HOH      O 6489   1.496   0.470   2.764
 2101HOH     H1 6490   1.542   0.536   2.712
 2101HOH     H2 6491   1.555   0.450   2.836
 2102HOH      O 6492   0.304   3.216   3.936
 2102HOH     H1 6493   0.243   3.153   3.899
 2102HOH     H2 6494   0.295   3.294   3.882
 2103HOH      O 6495   0.438   3.786   3.538
 2103HOH     H1 6496   0.368   3.720   3.545
 2103HOH     H2 6497   0.462   3.805   3.629
 2104HOH      O 6498   0.533   3.612   2.570
 2104HOH     H1 6499   0.461   3.551   2.585
 2104HOH     H2 6500   0.515   3.650   2.484
 2105HOH      O 6501   2.189   3.153   2.769
 2105HOH     H1 6502   2.096   3.143   2.789
 2105HOH     H2 6503   2.220   3.218   2.832
 2106HOH      O 6504   0.602   0.706   3.920
 2106HOH     H1 6505   0.529   0.756   3.955
 2106HOH     H2 6506   0.673   0.721   3.983
 2107HOH      O 6507   3.719   2.282  -0.002
 2107HOH     H1 6508   3.687   2.276   0.088
 2107HOH     H2 6509   3.641   2.270  -0.056
 2108HOH      O 6510   0.327   0.397   3.946
 2108HOH     H1 6511   0.310   0.489   3.927
 2108HOH     H2 6512   0.243   0.363   3.975
 2109HOH      O 6513   0.134   0.693   3.316
 2109HOH     H1 6514   0.128   0.747   3.238
 2109HOH     H2 6515   0.071   0.623   3.302
 2110HOH      O 6516   3.974   2.414   1.389
 2110HOH     H1 6517   4.022   2.364   1.323
 2110HOH     H2 6518   3.899   2.358   1.411
 2111HOH      O 6519   1.111   3.478   3.920
 2111HOH     H1 6520   1.027   3.447   3.954
 2111HOH     H2 6521   1.106   3.573   3.930
   4.02727   4.02727   4.02727   0.00000   0.00000   0.00000   0.00000   0.00000   0.00000
