Generated with MDTraj, t= 1824.0
 6521
    1MOL     O1    1   3.379   1.978   3.376
    1MOL     O2    2   3.564   2.034   3.276
    1MOL     N1    3   3.466   1.962   3.285
    1MOL     C1    4   3.423   1.891   3.163
    1MOL     C2    5   3.459   1.758   3.144
    1MOL     C3    6   3.321   1.949   3.085
    1MOL     C4    7   3.391   1.687   3.045
    1MOL     C5    8   3.258   1.880   2.984
    1MOL     C6    9   3.288   1.748   2.972
    1MOL     C7   10   3.426   1.542   3.035
    1MOL     O3   11   3.511   1.497   3.117
    1MOL     O4   12   3.374   1.483   2.944
    1MOL     H1   13   3.537   1.723   3.212
    1MOL     H2   14   3.281   2.048   3.107
    1MOL     H3   15   3.182   1.920   2.916
    1MOL     H4   16   3.246   1.683   2.896
    2OCB     C1   17   3.307   3.353   3.432
    2OCB     C2   18   3.339   3.302   3.157
    2OCB     C3   19   3.207   3.399   3.336
    2OCB     C4   20   3.407   3.267   3.388
    2OCB     C5   21   3.425   3.241   3.251
    2OCB     C6   22   3.231   3.381   3.196
    2OCB     O1   23   3.347   3.264   3.025
    2OCB     C7   24   3.138   3.451   3.096
    2OCB     C8   25   3.251   3.166   2.983
    2OCB     O2   26   3.153   3.237   2.909
    2OCB     C9   27   3.038   3.254   2.977
    2OCB    C10   28   3.026   3.350   3.073
    2OCB    C11   29   2.902   3.365   3.140
    2OCB    C12   30   2.924   3.179   2.938
    2OCB    C13   31   2.797   3.280   3.116
    2OCB    C14   32   2.805   3.192   3.008
    2OCB     O3   33   2.706   3.091   2.998
    2OCB    C15   34   2.668   3.281   3.204
    2OCB    C16   35   2.693   3.189   3.325
    2OCB    C17   36   2.655   3.058   3.313
    2OCB    C18   37   2.710   2.982   3.088
    2OCB     O4   38   2.612   3.006   3.194
    2OCB     O5   39   3.478   3.196   3.476
    2OCB    C19   40   3.283   3.374   3.580
    2OCB    C20   41   3.191   3.257   3.634
    2OCB     O6   42   3.377   3.111   3.675
    2OCB    C21   43   3.238   3.141   3.686
    2OCB    C22   44   2.666   2.965   3.418
    2OCB    C23   45   2.717   3.010   3.543
    2OCB    C24   46   3.159   3.034   3.721
    2OCB    C25   47   3.023   3.047   3.720
    2OCB     O7   48   2.754   2.916   3.637
    2OCB     O8   49   2.950   2.939   3.749
    2OCB    C26   50   2.885   2.874   3.637
    2OCB    C27   51   3.052   3.275   3.642
    2OCB    C28   52   2.966   3.174   3.689
    2OCB    C29   53   2.739   3.231   3.453
    2OCB    C30   54   2.812   3.185   3.699
    2OCB    C31   55   2.759   3.142   3.559
    2OCB    C32   56   3.423   3.076   3.540
    2OCB    C33   57   2.623   3.426   3.234
    2OCB    C34   58   2.477   3.451   3.279
    2OCB    C35   59   2.458   3.597   3.310
    2OCB     O9   60   2.468   3.674   3.219
    2OCB    C36   61   3.096   3.592   3.146
    2OCB    C37   62   2.999   3.656   3.045
    2OCB    C38   63   2.974   3.801   3.101
    2OCB    O10   64   3.054   3.890   3.069
    2OCB    C39   65   3.241   3.523   3.612
    2OCB    C40   66   3.362   3.619   3.585
    2OCB    C41   67   3.351   3.756   3.650
    2OCB    O11   68   3.256   3.784   3.730
    2OCB    C42   69   2.777   3.330   3.751
    2OCB    C43   70   2.630   3.329   3.801
    2OCB    C44   71   2.611   3.242   3.930
    2OCB    O12   72   2.663   3.271   4.034
    2OCB    C45   73   3.315   3.054   2.900
    2OCB    C46   74   3.418   2.828   2.754
    2OCB    C47   75   3.241   2.987   2.795
    2OCB    C48   76   3.437   2.999   2.936
    2OCB    C49   77   3.486   2.890   2.861
    2OCB    C50   78   3.288   2.876   2.726
    2OCB    C51   79   3.522   2.958   3.531
    2OCB    C52   80   3.683   2.726   3.525
    2OCB    C53   81   3.495   2.848   3.615
    2OCB    C54   82   3.624   2.948   3.441
    2OCB    C55   83   3.710   2.834   3.443
    2OCB    C56   84   3.577   2.739   3.608
    2OCB    C57   85   2.900   2.728   3.639
    2OCB    C58   86   2.927   2.455   3.671
    2OCB    C59   87   2.817   2.643   3.566
    2OCB    C60   88   3.001   2.672   3.730
    2OCB    C61   89   3.018   2.534   3.733
    2OCB    C62   90   2.828   2.506   3.588
    2OCB    C63   91   2.667   2.854   3.018
    2OCB    C64   92   2.615   2.610   2.900
    2OCB    C65   93   2.597   2.759   3.085
    2OCB    C66   94   2.721   2.818   2.894
    2OCB    C67   95   2.700   2.697   2.834
    2OCB    C68   96   2.574   2.634   3.028
    2OCB    O13   97   3.796   2.815   3.337
    2OCB    O14   98   3.119   2.472   3.807
    2OCB    O15   99   2.741   2.420   3.526
    2OCB    O16  100   3.610   2.835   2.892
    2OCB    O17  101   3.213   2.799   2.637
    2OCB    O18  102   2.513   2.536   3.102
    2OCB    O19  103   2.758   2.658   2.709
    2OCB    C69  104   3.233   2.533   3.840
    2OCB    C70  105   3.479   2.641   3.909
    2OCB    C71  106   3.327   2.555   3.738
    2OCB    C72  107   3.265   2.557   3.973
    2OCB    C73  108   3.395   2.601   4.012
    2OCB    C74  109   3.446   2.615   3.773
    2OCB    O20  110   3.549   2.626   3.681
    2OCB    C75  111   3.698   2.879   2.987
    2OCB    C76  112   3.872   2.967   3.182
    2OCB    C77  113   3.755   3.004   2.977
    2OCB    C78  114   3.719   2.805   3.103
    2OCB    C79  115   3.789   2.864   3.208
    2OCB    C80  116   3.854   3.043   3.067
    2OCB    C81  117   2.634   2.457   3.451
    2OCB    C82  118   2.415   2.565   3.316
    2OCB    C83  119   2.520   2.500   3.520
    2OCB    C84  120   2.633   2.459   3.310
    2OCB    C85  121   2.521   2.516   3.239
    2OCB    C86  122   2.403   2.548   3.457
    2OCB    C87  123   2.278   2.582   3.534
    2OCB    O21  124   2.273   2.548   3.652
    2OCB    C88  125   2.847   3.064   2.443
    2OCB    O22  126   2.927   3.145   2.387
    2OCB    C89  127   3.936   3.173   3.039
    2OCB    O23  128   3.934   3.217   2.927
    2OCB    O24  129   2.419   3.629   3.419
    2OCB    O25  130   2.534   3.149   3.925
    2OCB    O26  131   3.432   3.845   3.622
    2OCB    C90  132   3.429   2.607   4.155
    2OCB    O27  133   3.537   2.652   4.196
    2OCB    O28  134   2.729   3.076   2.432
    2OCB    O29  135   2.188   2.629   3.474
    2OCB    O30  136   3.334   2.595   4.235
    2OCB    O31  137   4.012   3.220   3.121
    2OCB    O32  138   2.890   3.809   3.185
    2OCB    C91  139   3.078   2.817   2.613
    2OCB    C92  140   2.794   2.859   2.580
    2OCB    C93  141   2.984   2.728   2.665
    2OCB    C94  142   3.031   2.925   2.549
    2OCB    C95  143   2.892   2.948   2.530
    2OCB    C96  144   2.845   2.744   2.644
    2OCB    C97  145   3.029   2.591   2.722
    2OCB    C98  146   3.638   2.678   3.129
    2OCB    C99  147   3.315   2.514   3.586
    2OCB      C  148   2.764   2.416   3.236
    2OCB     H1  149   3.125   3.460   3.373
    2OCB     H2  150   3.505   3.177   3.215
    2OCB     H3  151   3.192   3.462   3.002
    2OCB     H4  152   3.200   3.118   3.068
    2OCB     H5  153   2.883   3.438   3.218
    2OCB     H6  154   2.933   3.104   2.860
    2OCB     H7  155   2.579   3.240   3.156
    2OCB     H8  156   2.808   2.974   3.136
    2OCB     H9  157   3.375   3.356   3.635
    2OCB    H10  158   2.623   2.867   3.405
    2OCB    H11  159   3.202   2.935   3.741
    2OCB    H12  160   2.936   2.909   3.546
    2OCB    H13  161   3.013   3.372   3.614
    2OCB    H14  162   2.756   3.337   3.472
    2OCB    H15  163   2.789   3.114   3.779
    2OCB    H16  164   3.335   3.041   3.485
    2OCB    H17  165   2.676   3.474   3.317
    2OCB    H18  166   2.640   3.489   3.147
    2OCB    H19  167   2.411   3.431   3.194
    2OCB    H20  168   2.447   3.395   3.368
    2OCB    H21  169   3.181   3.660   3.159
    2OCB    H22  170   3.041   3.577   3.239
    2OCB    H23  171   3.042   3.659   2.944
    2OCB    H24  172   2.910   3.595   3.033
    2OCB    H25  173   3.159   3.571   3.558
    2OCB    H26  174   3.225   3.518   3.720
    2OCB    H27  175   3.451   3.569   3.625
    2OCB    H28  176   3.364   3.647   3.480
    2OCB    H29  177   2.832   3.343   3.844
    2OCB    H30  178   2.789   3.408   3.676
    2OCB    H31  179   2.593   3.431   3.811
    2OCB    H32  180   2.568   3.289   3.720
    2OCB    H33  181   3.457   2.738   2.707
    2OCB    H34  182   3.144   3.030   2.769
    2OCB    H35  183   3.490   3.036   3.023
    2OCB    H36  184   3.749   2.640   3.526
    2OCB    H37  185   3.407   2.857   3.679
    2OCB    H38  186   3.648   3.034   3.379
    2OCB    H39  187   2.931   2.347   3.681
    2OCB    H40  188   2.750   2.696   3.499
    2OCB    H41  189   3.056   2.745   3.790
    2OCB    H42  190   2.597   2.507   2.869
    2OCB    H43  191   2.575   2.773   3.191
    2OCB    H44  192   2.775   2.899   2.847
    2OCB    H45  193   3.562   2.704   3.938
    2OCB    H46  194   3.192   2.527   4.048
    2OCB    H47  195   3.943   2.995   3.259
    2OCB    H48  196   3.735   3.065   2.890
    2OCB    H49  197   2.330   2.603   3.260
    2OCB    H50  198   2.527   2.486   3.627
    2OCB    H51  199   2.688   2.878   2.570
    2OCB    H52  200   3.100   2.995   2.503
    2OCB    H53  201   2.949   2.525   2.756
    2OCB    H54  202   3.081   2.542   2.639
    2OCB    H55  203   3.098   2.604   2.805
    2OCB    H56  204   3.584   2.690   3.223
    2OCB    H57  205   3.578   2.650   3.042
    2OCB    H58  206   3.701   2.591   3.147
    2OCB    H59  207   3.275   2.598   3.529
    2OCB    H60  208   3.408   2.484   3.537
    2OCB    H61  209   3.242   2.437   3.560
    2OCB    H62  210   2.849   2.478   3.262
    2OCB    H63  211   2.793   2.319   3.277
    2OCB    H64  212   2.754   2.412   3.128
    3Na+    Na+  213   2.277   1.381   3.519
    4Na+    Na+  214   0.312   1.287   3.277
    5Na+    Na+  215   0.260   2.746   2.439
    6Na+    Na+  216   2.931   0.213   2.840
    7Na+    Na+  217   0.450   3.707   2.873
    8Na+    Na+  218   2.925   1.793   3.881
    9Na+    Na+  219   3.344   3.983   3.787
   10Na+    Na+  220   2.576   2.999   0.046
   11Na+    Na+  221   1.867   2.536   3.772
   12HOH      O  222   1.464   1.730   0.983
   12HOH     H1  223   1.417   1.662   1.032
   12HOH     H2  224   1.437   1.717   0.892
   13HOH      O  225   2.699   3.727   0.504
   13HOH     H1  226   2.757   3.658   0.537
   13HOH     H2  227   2.687   3.784   0.580
   14HOH      O  228   0.365   2.765   2.217
   14HOH     H1  229   0.449   2.721   2.203
   14HOH     H2  230   0.304   2.721   2.157
   15HOH      O  231   1.918   0.731   0.501
   15HOH     H1  232   1.950   0.703   0.415
   15HOH     H2  233   1.842   0.676   0.518
   16HOH      O  234   2.326   3.443   2.656
   16HOH     H1  235   2.304   3.350   2.659
   16HOH     H2  236   2.390   3.455   2.726
   17HOH      O  237   1.395   2.720   3.278
   17HOH     H1  238   1.351   2.800   3.249
   17HOH     H2  239   1.455   2.698   3.207
   18HOH      O  240   2.786   0.801   0.193
   18HOH     H1  241   2.804   0.873   0.252
   18HOH     H2  242   2.813   0.832   0.107
   19HOH      O  243   3.326   1.528   1.977
   19HOH     H1  244   3.392   1.591   2.007
   19HOH     H2  245   3.371   1.443   1.982
   20HOH      O  246   2.693   3.814   1.054
   20HOH     H1  247   2.686   3.774   0.968
   20HOH     H2  248   2.603   3.821   1.086
   21HOH      O  249   2.587   1.955   1.834
   21HOH     H1  250   2.495   1.936   1.817
   21HOH     H2  251   2.603   1.920   1.921
   22HOH      O  252   3.433   3.262   0.602
   22HOH     H1  253   3.424   3.337   0.543
   22HOH     H2  254   3.345   3.249   0.636
   23HOH      O  255   3.371   0.671   2.518
   23HOH     H1  256   3.340   0.580   2.521
   23HOH     H2  257   3.353   0.699   2.428
   24HOH      O  258   3.953   3.207   2.543
   24HOH     H1  259   3.993   3.138   2.596
   24HOH     H2  260   4.025   3.243   2.491
   25HOH      O  261   1.556   2.782   2.334
   25HOH     H1  262   1.625   2.756   2.273
   25HOH     H2  263   1.576   2.733   2.414
   26HOH      O  264   1.756   0.170   0.064
   26HOH     H1  265   1.771   0.076   0.068
   26HOH     H2  266   1.826   0.208   0.116
   27HOH      O  267   3.675   0.012   0.651
   27HOH     H1  268   3.718   0.076   0.708
   27HOH     H2  269   3.745  -0.046   0.623
   28HOH      O  270   0.243   1.272   0.371
   28HOH     H1  271   0.321   1.218   0.386
   28HOH     H2  272   0.202   1.279   0.457
   29HOH      O  273   2.983   0.373   0.173
   29HOH     H1  274   2.948   0.318   0.103
   29HOH     H2  275   2.912   0.380   0.236
   30HOH      O  276   0.963   3.498   2.390
   30HOH     H1  277   0.971   3.411   2.351
   30HOH     H2  278   0.990   3.486   2.481
   31HOH      O  279   1.820   0.382   2.329
   31HOH     H1  280   1.733   0.390   2.290
   31HOH     H2  281   1.881   0.403   2.258
   32HOH      O  282   3.241   3.964   3.281
   32HOH     H1  283   3.211   3.917   3.203
   32HOH     H2  284   3.195   3.921   3.353
   33HOH      O  285   2.742   3.825   1.985
   33HOH     H1  286   2.689   3.904   1.995
   33HOH     H2  287   2.713   3.787   1.902
   34HOH      O  288   1.998   3.640   0.811
   34HOH     H1  289   1.983   3.550   0.782
   34HOH     H2  290   2.083   3.664   0.772
   35HOH      O  291   3.810   0.697   0.335
   35HOH     H1  292   3.848   0.752   0.267
   35HOH     H2  293   3.838   0.608   0.313
   36HOH      O  294   0.634   1.045   2.586
   36HOH     H1  295   0.638   0.951   2.567
   36HOH     H2  296   0.618   1.086   2.501
   37HOH      O  297   0.398   1.246   2.140
   37HOH     H1  298   0.413   1.330   2.183
   37HOH     H2  299   0.445   1.254   2.057
   38HOH      O  300   3.852   1.114   3.481
   38HOH     H1  301   3.798   1.036   3.468
   38HOH     H2  302   3.942   1.084   3.464
   39HOH      O  303   2.633   1.708   1.348
   39HOH     H1  304   2.624   1.763   1.426
   39HOH     H2  305   2.619   1.619   1.379
   40HOH      O  306   1.658   2.674   0.882
   40HOH     H1  307   1.643   2.630   0.966
   40HOH     H2  308   1.748   2.652   0.859
   41HOH      O  309   1.247   0.932   1.781
   41HOH     H1  310   1.173   0.910   1.724
   41HOH     H2  311   1.323   0.933   1.722
   42HOH      O  312   0.152   0.339   2.574
   42HOH     H1  313   0.174   0.351   2.667
   42HOH     H2  314   0.154   0.427   2.537
   43HOH      O  315   1.081   2.397   1.515
   43HOH     H1  316   1.080   2.491   1.533
   43HOH     H2  317   0.992   2.368   1.536
   44HOH      O  318   0.479   0.479   2.459
   44HOH     H1  319   0.514   0.537   2.391
   44HOH     H2  320   0.384   0.489   2.452
   45HOH      O  321   2.189   0.334   2.408
   45HOH     H1  322   2.238   0.311   2.329
   45HOH     H2  323   2.162   0.250   2.446
   46HOH      O  324   3.537   2.254   2.452
   46HOH     H1  325   3.602   2.184   2.444
   46HOH     H2  326   3.491   2.234   2.533
   47HOH      O  327   3.616   2.822   0.385
   47HOH     H1  328   3.550   2.890   0.377
   47HOH     H2  329   3.602   2.766   0.309
   48HOH      O  330   0.895   0.821   3.644
   48HOH     H1  331   0.905   0.770   3.724
   48HOH     H2  332   0.868   0.908   3.675
   49HOH      O  333   3.356   1.664   3.875
   49HOH     H1  334   3.375   1.754   3.847
   49HOH     H2  335   3.338   1.617   3.794
   50HOH      O  336   3.699   3.876   3.647
   50HOH     H1  337   3.733   3.880   3.736
   50HOH     H2  338   3.606   3.855   3.657
   51HOH      O  339   1.893   1.922   3.673
   51HOH     H1  340   1.855   1.978   3.740
   51HOH     H2  341   1.856   1.953   3.591
   52HOH      O  342   0.808   3.382   0.875
   52HOH     H1  343   0.876   3.355   0.937
   52HOH     H2  344   0.754   3.303   0.863
   53HOH      O  345   2.219   2.274   3.295
   53HOH     H1  346   2.239   2.228   3.377
   53HOH     H2  347   2.141   2.326   3.314
   54HOH      O  348   1.213   0.666   0.627
   54HOH     H1  349   1.278   0.601   0.599
   54HOH     H2  350   1.180   0.633   0.710
   55HOH      O  351   2.439   1.195   2.424
   55HOH     H1  352   2.433   1.102   2.401
   55HOH     H2  353   2.365   1.210   2.483
   56HOH      O  354   2.758   2.145   3.610
   56HOH     H1  355   2.682   2.142   3.667
   56HOH     H2  356   2.727   2.186   3.529
   57HOH      O  357   3.707   3.408   3.670
   57HOH     H1  358   3.801   3.413   3.686
   57HOH     H2  359   3.696   3.442   3.581
   58HOH      O  360   0.277   2.451   3.264
   58HOH     H1  361   0.339   2.391   3.304
   58HOH     H2  362   0.304   2.457   3.173
   59HOH      O  363   0.117   2.049   0.410
   59HOH     H1  364   0.065   2.011   0.339
   59HOH     H2  365   0.200   2.072   0.369
   60HOH      O  366   0.588   3.040   1.920
   60HOH     H1  367   0.622   3.028   2.009
   60HOH     H2  368   0.667   3.045   1.865
   61HOH      O  369   0.086   2.183   1.067
   61HOH     H1  370   0.091   2.097   1.108
   61HOH     H2  371   0.013   2.176   1.005
   62HOH      O  372   3.180   2.196   3.688
   62HOH     H1  373   3.136   2.281   3.694
   62HOH     H2  374   3.272   2.216   3.701
   63HOH      O  375   0.669   0.686   1.978
   63HOH     H1  376   0.764   0.681   1.973
   63HOH     H2  377   0.637   0.619   1.917
   64HOH      O  378   2.070   1.396   2.433
   64HOH     H1  379   2.007   1.395   2.505
   64HOH     H2  380   2.015   1.396   2.354
   65HOH      O  381   0.321   1.447   2.745
   65HOH     H1  382   0.368   1.529   2.731
   65HOH     H2  383   0.272   1.461   2.826
   66HOH      O  384   3.435   2.974   1.629
   66HOH     H1  385   3.347   3.012   1.635
   66HOH     H2  386   3.463   2.965   1.720
   67HOH      O  387   1.759   1.354   3.180
   67HOH     H1  388   1.667   1.369   3.158
   67HOH     H2  389   1.780   1.423   3.242
   68HOH      O  390   3.562   3.475   0.404
   68HOH     H1  391   3.479   3.468   0.358
   68HOH     H2  392   3.628   3.466   0.335
   69HOH      O  393   2.304   2.005   1.750
   69HOH     H1  394   2.294   1.995   1.845
   69HOH     H2  395   2.317   2.099   1.737
   70HOH      O  396   0.342   2.463   1.461
   70HOH     H1  397   0.378   2.499   1.543
   70HOH     H2  398   0.419   2.449   1.406
   71HOH      O  399   2.642   3.730   3.646
   71HOH     H1  400   2.685   3.766   3.568
   71HOH     H2  401   2.572   3.675   3.612
   72HOH      O  402   3.703   0.530   1.729
   72HOH     H1  403   3.692   0.467   1.657
   72HOH     H2  404   3.729   0.476   1.804
   73HOH      O  405   1.434   3.611   2.088
   73HOH     H1  406   1.513   3.655   2.056
   73HOH     H2  407   1.391   3.677   2.142
   74HOH      O  408   1.994   4.012   1.577
   74HOH     H1  409   1.965   3.921   1.580
   74HOH     H2  410   2.037   4.021   1.492
   75HOH      O  411   2.730   0.246   3.372
   75HOH     H1  412   2.681   0.278   3.447
   75HOH     H2  413   2.811   0.210   3.409
   76HOH      O  414   2.977   0.518   1.572
   76HOH     H1  415   3.010   0.465   1.644
   76HOH     H2  416   2.892   0.549   1.602
   77HOH      O  417   1.533   3.227   2.808
   77HOH     H1  418   1.522   3.313   2.766
   77HOH     H2  419   1.588   3.178   2.748
   78HOH      O  420   3.657   1.773   0.240
   78HOH     H1  421   3.637   1.866   0.230
   78HOH     H2  422   3.583   1.728   0.199
   79HOH      O  423   2.457   2.134   1.321
   79HOH     H1  424   2.535   2.177   1.286
   79HOH     H2  425   2.430   2.190   1.394
   80HOH      O  426   3.335   3.676   1.564
   80HOH     H1  427   3.410   3.702   1.617
   80HOH     H2  428   3.267   3.655   1.628
   81HOH      O  429   2.878   2.502   1.246
   81HOH     H1  430   2.838   2.587   1.227
   81HOH     H2  431   2.943   2.491   1.177
   82HOH      O  432   2.699   2.002   3.339
   82HOH     H1  433   2.732   2.006   3.428
   82HOH     H2  434   2.604   1.995   3.349
   83HOH      O  435   1.963   1.169   0.247
   83HOH     H1  436   1.914   1.251   0.243
   83HOH     H2  437   1.970   1.140   0.156
   84HOH      O  438   3.735   3.237   1.978
   84HOH     H1  439   3.720   3.145   1.955
   84HOH     H2  440   3.763   3.234   2.070
   85HOH      O  441   3.705   1.145   2.538
   85HOH     H1  442   3.692   1.149   2.632
   85HOH     H2  443   3.762   1.069   2.524
   86HOH      O  444   2.500   1.719   0.467
   86HOH     H1  445   2.559   1.696   0.538
   86HOH     H2  446   2.502   1.815   0.464
   87HOH      O  447   1.102   1.249   0.239
   87HOH     H1  448   1.016   1.223   0.272
   87HOH     H2  449   1.152   1.167   0.239
   88HOH      O  450   3.532   0.915   3.871
   88HOH     H1  451   3.467   0.983   3.888
   88HOH     H2  452   3.523   0.897   3.777
   89HOH      O  453   0.839   0.339   1.438
   89HOH     H1  454   0.883   0.363   1.520
   89HOH     H2  455   0.754   0.305   1.466
   90HOH      O  456   2.646   0.599   0.078
   90HOH     H1  457   2.618   0.627  -0.009
   90HOH     H2  458   2.677   0.678   0.121
   91HOH      O  459   0.515   2.175   1.526
   91HOH     H1  460   0.435   2.200   1.573
   91HOH     H2  461   0.494   2.189   1.434
   92HOH      O  462   1.066   0.854   0.492
   92HOH     H1  463   1.114   0.812   0.563
   92HOH     H2  464   1.090   0.805   0.414
   93HOH      O  465   1.645   1.048   2.579
   93HOH     H1  466   1.662   1.091   2.663
   93HOH     H2  467   1.700   0.970   2.580
   94HOH      O  468   0.746   2.479   1.559
   94HOH     H1  469   0.756   2.562   1.512
   94HOH     H2  470   0.766   2.412   1.494
   95HOH      O  471   1.077   1.816   1.779
   95HOH     H1  472   1.146   1.843   1.840
   95HOH     H2  473   1.118   1.749   1.724
   96HOH      O  474   0.232   0.802   1.185
   96HOH     H1  475   0.324   0.777   1.178
   96HOH     H2  476   0.212   0.791   1.278
   97HOH      O  477   0.104   3.314   2.359
   97HOH     H1  478   0.121   3.291   2.268
   97HOH     H2  479   0.176   3.374   2.382
   98HOH      O  480   1.648   3.580   2.937
   98HOH     H1  481   1.705   3.506   2.958
   98HOH     H2  482   1.562   3.554   2.969
   99HOH      O  483   0.476   0.607   0.579
   99HOH     H1  484   0.416   0.680   0.564
   99HOH     H2  485   0.440   0.561   0.655
  100HOH      O  486   3.690   0.907   0.527
  100HOH     H1  487   3.738   0.856   0.462
  100HOH     H2  488   3.738   0.894   0.608
  101HOH      O  489   0.932   3.487   0.632
  101HOH     H1  490   1.017   3.482   0.677
  101HOH     H2  491   0.868   3.470   0.701
  102HOH      O  492   3.333   0.791   1.897
  102HOH     H1  493   3.330   0.708   1.849
  102HOH     H2  494   3.426   0.807   1.912
  103HOH      O  495   2.860   3.546   0.621
  103HOH     H1  496   2.851   3.469   0.565
  103HOH     H2  497   2.952   3.570   0.614
  104HOH      O  498   2.559   0.708   3.881
  104HOH     H1  499   2.549   0.798   3.913
  104HOH     H2  500   2.635   0.712   3.823
  105HOH      O  501   0.767   2.176   1.459
  105HOH     H1  502   0.673   2.176   1.477
  105HOH     H2  503   0.805   2.125   1.530
  106HOH      O  504   1.595   2.333   2.664
  106HOH     H1  505   1.641   2.374   2.591
  106HOH     H2  506   1.607   2.393   2.737
  107HOH      O  507   3.708   2.594   1.698
  107HOH     H1  508   3.634   2.590   1.639
  107HOH     H2  509   3.669   2.589   1.786
  108HOH      O  510   2.475   1.759   3.626
  108HOH     H1  511   2.398   1.732   3.677
  108HOH     H2  512   2.445   1.756   3.535
  109HOH      O  513   0.150   2.629   1.171
  109HOH     H1  514   0.120   2.692   1.105
  109HOH     H2  515   0.212   2.678   1.224
  110HOH      O  516   0.076   2.656   1.586
  110HOH     H1  517   0.115   2.630   1.503
  110HOH     H2  518  -0.010   2.690   1.563
  111HOH      O  519   3.852   3.273   1.032
  111HOH     H1  520   3.777   3.330   1.012
  111HOH     H2  521   3.904   3.324   1.094
  112HOH      O  522   3.078   0.650   0.116
  112HOH     H1  523   3.037   0.564   0.127
  112HOH     H2  524   3.152   0.649   0.176
  113HOH      O  525   0.998   3.301   1.043
  113HOH     H1  526   1.037   3.227   0.996
  113HOH     H2  527   1.072   3.343   1.085
  114HOH      O  528   0.531   1.624   1.788
  114HOH     H1  529   0.473   1.610   1.863
  114HOH     H2  530   0.619   1.605   1.821
  115HOH      O  531   1.994   0.185   0.223
  115HOH     H1  532   2.029   0.234   0.296
  115HOH     H2  533   2.025   0.095   0.237
  116HOH      O  534   1.706   1.812   2.965
  116HOH     H1  535   1.612   1.832   2.968
  116HOH     H2  536   1.743   1.860   3.040
  117HOH      O  537   1.884  -0.025   0.995
  117HOH     H1  538   1.809   0.006   0.945
  117HOH     H2  539   1.933   0.054   1.018
  118HOH      O  540   2.674   1.243   3.648
  118HOH     H1  541   2.739   1.274   3.585
  118HOH     H2  542   2.601   1.214   3.594
  119HOH      O  543   2.100   0.078   3.675
  119HOH     H1  544   2.016   0.031   3.675
  119HOH     H2  545   2.087   0.151   3.614
  120HOH      O  546   1.963   2.387   3.111
  120HOH     H1  547   1.942   2.465   3.061
  120HOH     H2  548   2.053   2.364   3.085
  121HOH      O  549   2.657   2.719   1.919
  121HOH     H1  550   2.617   2.786   1.863
  121HOH     H2  551   2.590   2.699   1.984
  122HOH      O  552   0.344   1.484   1.991
  122HOH     H1  553   0.385   1.453   2.072
  122HOH     H2  554   0.250   1.478   2.008
  123HOH      O  555   2.825   3.358   0.451
  123HOH     H1  556   2.893   3.300   0.417
  123HOH     H2  557   2.745   3.305   0.450
  124HOH      O  558   2.134   3.751   3.697
  124HOH     H1  559   2.180   3.674   3.663
  124HOH     H2  560   2.157   3.821   3.637
  125HOH      O  561   1.140   2.635   1.878
  125HOH     H1  562   1.089   2.606   1.802
  125HOH     H2  563   1.208   2.691   1.841
  126HOH      O  564   2.015   0.262   0.844
  126HOH     H1  565   1.971   0.251   0.760
  126HOH     H2  566   2.075   0.335   0.830
  127HOH      O  567   1.677   1.672   1.542
  127HOH     H1  568   1.646   1.737   1.479
  127HOH     H2  569   1.684   1.591   1.492
  128HOH      O  570   0.904   0.192   1.012
  128HOH     H1  571   0.844   0.234   0.951
  128HOH     H2  572   0.916   0.256   1.082
  129HOH      O  573   2.270   3.327   1.725
  129HOH     H1  574   2.325   3.397   1.690
  129HOH     H2  575   2.180   3.357   1.709
  130HOH      O  576   2.226   2.933   0.325
  130HOH     H1  577   2.190   2.868   0.265
  130HOH     H2  578   2.240   3.010   0.271
  131HOH      O  579   3.388   1.422   0.464
  131HOH     H1  580   3.442   1.462   0.532
  131HOH     H2  581   3.450   1.377   0.407
  132HOH      O  582   0.877   0.509   2.489
  132HOH     H1  583   0.871   0.571   2.562
  132HOH     H2  584   0.965   0.472   2.497
  133HOH      O  585   0.448   1.604   1.378
  133HOH     H1  586   0.355   1.622   1.366
  133HOH     H2  587   0.451   1.530   1.439
  134HOH      O  588   0.075   1.183   1.064
  134HOH     H1  589   0.072   1.278   1.063
  134HOH     H2  590  -0.013   1.155   1.039
  135HOH      O  591   0.056   3.862   2.173
  135HOH     H1  592   0.089   3.794   2.115
  135HOH     H2  593   0.020   3.815   2.247
  136HOH      O  594   3.086   2.848   1.206
  136HOH     H1  595   3.149   2.824   1.275
  136HOH     H2  596   3.008   2.876   1.254
  137HOH      O  597   0.295   1.957   3.423
  137HOH     H1  598   0.245   1.980   3.345
  137HOH     H2  599   0.258   2.013   3.492
  138HOH      O  600   1.096   0.494   0.824
  138HOH     H1  601   1.092   0.399   0.815
  138HOH     H2  602   1.010   0.518   0.860
  139HOH      O  603   1.322   0.378   2.350
  139HOH     H1  604   1.282   0.325   2.282
  139HOH     H2  605   1.378   0.317   2.398
  140HOH      O  606   0.554   0.216   0.583
  140HOH     H1  607   0.614   0.270   0.635
  140HOH     H2  608   0.468   0.256   0.596
  141HOH      O  609   1.389   3.978   3.042
  141HOH     H1  610   1.328   4.052   3.032
  141HOH     H2  611   1.466   4.016   3.084
  142HOH      O  612   1.414   0.279   3.726
  142HOH     H1  613   1.362   0.280   3.645
  142HOH     H2  614   1.487   0.220   3.706
  143HOH      O  615   2.560   3.724   2.824
  143HOH     H1  616   2.631   3.663   2.846
  143HOH     H2  617   2.546   3.712   2.730
  144HOH      O  618   2.395   1.600   0.021
  144HOH     H1  619   2.381   1.549   0.101
  144HOH     H2  620   2.310   1.599  -0.023
  145HOH      O  621   2.427   1.668   1.680
  145HOH     H1  622   2.463   1.753   1.652
  145HOH     H2  623   2.471   1.605   1.624
  146HOH      O  624   0.299   3.125   3.849
  146HOH     H1  625   0.269   3.200   3.797
  146HOH     H2  626   0.225   3.105   3.907
  147HOH      O  627   0.578   3.663   2.490
  147HOH     H1  628   0.506   3.702   2.441
  147HOH     H2  629   0.643   3.641   2.423
  148HOH      O  630  -0.003   1.726   4.050
  148HOH     H1  631   0.077   1.739   3.999
  148HOH     H2  632  -0.070   1.704   3.984
  149HOH      O  633   1.377   1.661   2.792
  149HOH     H1  634   1.345   1.730   2.733
  149HOH     H2  635   1.467   1.645   2.764
  150HOH      O  636   3.667   2.084   0.226
  150HOH     H1  637   3.664   2.083   0.130
  150HOH     H2  638   3.587   2.131   0.252
  151HOH      O  639   3.884   1.283   0.339
  151HOH     H1  640   3.887   1.289   0.244
  151HOH     H2  641   3.933   1.359   0.370
  152HOH      O  642   1.288   2.035   1.483
  152HOH     H1  643   1.382   2.041   1.494
  152HOH     H2  644   1.276   1.981   1.404
  153HOH      O  645   0.907   2.329   3.191
  153HOH     H1  646   0.925   2.245   3.150
  153HOH     H2  647   0.811   2.334   3.195
  154HOH      O  648   3.914   0.782   1.060
  154HOH     H1  649   3.906   0.825   1.145
  154HOH     H2  650   3.984   0.831   1.015
  155HOH      O  651   2.909   1.458   0.085
  155HOH     H1  652   2.974   1.389   0.077
  155HOH     H2  653   2.941   1.529   0.030
  156HOH      O  654   0.146   1.899   1.109
  156HOH     H1  655   0.060   1.864   1.084
  156HOH     H2  656   0.205   1.825   1.103
  157HOH      O  657   1.789   3.448   0.189
  157HOH     H1  658   1.860   3.496   0.147
  157HOH     H2  659   1.813   3.446   0.282
  158HOH      O  660   1.555   1.917   1.705
  158HOH     H1  661   1.643   1.879   1.705
  158HOH     H2  662   1.514   1.882   1.626
  159HOH      O  663   0.842   2.794   1.469
  159HOH     H1  664   0.906   2.863   1.484
  159HOH     H2  665   0.814   2.806   1.379
  160HOH      O  666   1.911   0.822   1.431
  160HOH     H1  667   2.005   0.839   1.428
  160HOH     H2  668   1.903   0.728   1.413
  161HOH      O  669   0.512   3.184   1.220
  161HOH     H1  670   0.592   3.139   1.195
  161HOH     H2  671   0.455   3.179   1.143
  162HOH      O  672   2.589   2.935   1.728
  162HOH     H1  673   2.645   2.890   1.664
  162HOH     H2  674   2.542   3.001   1.676
  163HOH      O  675   2.936   1.786   0.679
  163HOH     H1  676   2.959   1.697   0.652
  163HOH     H2  677   3.016   1.820   0.719
  164HOH      O  678   2.489   0.428   3.818
  164HOH     H1  679   2.476   0.466   3.905
  164HOH     H2  680   2.449   0.341   3.824
  165HOH      O  681   1.886   1.309   0.873
  165HOH     H1  682   1.927   1.268   0.949
  165HOH     H2  683   1.910   1.253   0.799
  166HOH      O  684   3.477   1.264   1.997
  166HOH     H1  685   3.459   1.294   2.086
  166HOH     H2  686   3.543   1.195   2.008
  167HOH      O  687   1.546   2.650   1.161
  167HOH     H1  688   1.482   2.590   1.123
  167HOH     H2  689   1.614   2.593   1.197
  168HOH      O  690   3.915   3.423   1.589
  168HOH     H1  691   3.860   3.360   1.542
  168HOH     H2  692   3.973   3.460   1.523
  169HOH      O  693   1.029   3.160   3.301
  169HOH     H1  694   0.973   3.096   3.257
  169HOH     H2  695   1.031   3.235   3.241
  170HOH      O  696   3.312   0.341   0.877
  170HOH     H1  697   3.305   0.414   0.815
  170HOH     H2  698   3.245   0.280   0.848
  171HOH      O  699   0.320   0.442   0.396
  171HOH     H1  700   0.271   0.511   0.442
  171HOH     H2  701   0.328   0.372   0.460
  172HOH      O  702   2.514   2.271   0.753
  172HOH     H1  703   2.588   2.318   0.790
  172HOH     H2  704   2.530   2.179   0.775
  173HOH      O  705   3.843   0.501   1.280
  173HOH     H1  706   3.828   0.447   1.202
  173HOH     H2  707   3.780   0.572   1.273
  174HOH      O  708   2.975   3.418   1.739
  174HOH     H1  709   2.898   3.365   1.761
  174HOH     H2  710   2.958   3.503   1.778
  175HOH      O  711   1.555   0.676   3.952
  175HOH     H1  712   1.588   0.681   3.862
  175HOH     H2  713   1.571   0.585   3.978
  176HOH      O  714   3.913   1.944   2.609
  176HOH     H1  715   3.916   2.037   2.630
  176HOH     H2  716   3.828   1.915   2.641
  177HOH      O  717   0.894   2.674   2.632
  177HOH     H1  718   0.829   2.645   2.567
  177HOH     H2  719   0.850   2.744   2.680
  178HOH      O  720   1.406   3.226   3.046
  178HOH     H1  721   1.459   3.238   2.966
  178HOH     H2  722   1.471   3.207   3.114
  179HOH      O  723   2.164   1.413   1.114
  179HOH     H1  724   2.098   1.481   1.102
  179HOH     H2  725   2.184   1.383   1.025
  180HOH      O  726   0.330   0.595   3.296
  180HOH     H1  727   0.271   0.522   3.275
  180HOH     H2  728   0.346   0.586   3.390
  181HOH      O  729   2.673   2.347   3.950
  181HOH     H1  730   2.663   2.265   3.903
  181HOH     H2  731   2.649   2.414   3.886
  182HOH      O  732   0.802   2.806   0.451
  182HOH     H1  733   0.768   2.730   0.498
  182HOH     H2  734   0.825   2.868   0.520
  183HOH      O  735   3.319   1.184   1.763
  183HOH     H1  736   3.407   1.212   1.785
  183HOH     H2  737   3.295   1.236   1.686
  184HOH      O  738   0.846   1.647   2.963
  184HOH     H1  739   0.820   1.714   2.900
  184HOH     H2  740   0.906   1.591   2.914
  185HOH      O  741   1.094   3.801   1.393
  185HOH     H1  742   1.114   3.809   1.300
  185HOH     H2  743   1.003   3.771   1.395
  186HOH      O  744   3.608   2.546   1.435
  186HOH     H1  745   3.691   2.538   1.388
  186HOH     H2  746   3.542   2.555   1.366
  187HOH      O  747   1.425   3.981   2.656
  187HOH     H1  748   1.468   3.921   2.716
  187HOH     H2  749   1.416   3.932   2.574
  188HOH      O  750   0.140   1.058   1.631
  188HOH     H1  751   0.086   0.982   1.651
  188HOH     H2  752   0.110   1.087   1.544
  189HOH      O  753   2.964   1.993   3.258
  189HOH     H1  754   2.871   1.975   3.270
  189HOH     H2  755   2.987   2.053   3.329
  190HOH      O  756   1.580   1.623   0.402
  190HOH     H1  757   1.565   1.707   0.445
  190HOH     H2  758   1.575   1.558   0.472
  191HOH      O  759   0.855   2.113   0.524
  191HOH     H1  760   0.811   2.198   0.534
  191HOH     H2  761   0.915   2.110   0.598
  192HOH      O  762   1.430   3.013   3.587
  192HOH     H1  763   1.448   2.960   3.665
  192HOH     H2  764   1.513   3.013   3.538
  193HOH      O  765   2.040   2.640   2.940
  193HOH     H1  766   2.089   2.715   2.974
  193HOH     H2  767   1.989   2.676   2.867
  194HOH      O  768   1.681   3.779   0.749
  194HOH     H1  769   1.733   3.716   0.797
  194HOH     H2  770   1.633   3.828   0.816
  195HOH      O  771   3.149   0.739   3.302
  195HOH     H1  772   3.102   0.809   3.347
  195HOH     H2  773   3.085   0.668   3.295
  196HOH      O  774   2.193   2.024   2.591
  196HOH     H1  775   2.107   2.053   2.620
  196HOH     H2  776   2.246   2.103   2.591
  197HOH      O  777   2.744   0.204   0.275
  197HOH     H1  778   2.773   0.113   0.270
  197HOH     H2  779   2.716   0.216   0.365
  198HOH      O  780   1.657   1.964   0.354
  198HOH     H1  781   1.645   1.897   0.421
  198HOH     H2  782   1.581   1.955   0.297
  199HOH      O  783   1.960   1.252   3.974
  199HOH     H1  784   1.941   1.170   3.930
  199HOH     H2  785   1.874   1.293   3.987
  200HOH      O  786   1.959   3.747   1.504
  200HOH     H1  787   1.990   3.695   1.578
  200HOH     H2  788   1.956   3.685   1.431
  201HOH      O  789   2.822   0.018   0.814
  201HOH     H1  790   2.806   0.110   0.792
  201HOH     H2  791   2.854   0.021   0.904
  202HOH      O  792   1.511   3.798   2.836
  202HOH     H1  793   1.477   3.872   2.886
  202HOH     H2  794   1.567   3.751   2.899
  203HOH      O  795   0.633   4.014   0.809
  203HOH     H1  796   0.590   4.099   0.795
  203HOH     H2  797   0.561   3.953   0.825
  204HOH      O  798   2.749   4.017   3.099
  204HOH     H1  799   2.778   3.942   3.150
  204HOH     H2  800   2.829   4.052   3.059
  205HOH      O  801   3.740   3.297   2.698
  205HOH     H1  802   3.804   3.285   2.628
  205HOH     H2  803   3.782   3.259   2.776
  206HOH      O  804   2.166   1.256   0.588
  206HOH     H1  805   2.107   1.319   0.548
  206HOH     H2  806   2.144   1.173   0.546
  207HOH      O  807   2.542   0.863   2.581
  207HOH     H1  808   2.515   0.863   2.489
  207HOH     H2  809   2.478   0.919   2.625
  208HOH      O  810   2.415   0.720   1.995
  208HOH     H1  811   2.464   0.802   1.990
  208HOH     H2  812   2.444   0.680   2.077
  209HOH      O  813   0.937   0.783   1.023
  209HOH     H1  814   1.028   0.812   1.022
  209HOH     H2  815   0.887   0.865   1.018
  210HOH      O  816   2.194   2.443   2.845
  210HOH     H1  817   2.153   2.516   2.892
  210HOH     H2  818   2.260   2.409   2.906
  211HOH      O  819   0.638   2.583   0.481
  211HOH     H1  820   0.611   2.515   0.420
  211HOH     H2  821   0.557   2.631   0.500
  212HOH      O  822   3.000   3.197   1.361
  212HOH     H1  823   3.055   3.215   1.437
  212HOH     H2  824   2.927   3.146   1.396
  213HOH      O  825   1.333   2.959   3.162
  213HOH     H1  826   1.337   2.925   3.073
  213HOH     H2  827   1.357   3.051   3.155
  214HOH      O  828   2.159   2.166   2.898
  214HOH     H1  829   2.136   2.239   2.840
  214HOH     H2  830   2.226   2.202   2.956
  215HOH      O  831   3.175   0.032   2.607
  215HOH     H1  832   3.146   0.025   2.698
  215HOH     H2  833   3.263   0.070   2.613
  216HOH      O  834   2.506   1.640   2.147
  216HOH     H1  835   2.489   1.572   2.081
  216HOH     H2  836   2.580   1.689   2.112
  217HOH      O  837   0.066   2.107   3.553
  217HOH     H1  838   0.011   2.181   3.530
  217HOH     H2  839   0.050   2.093   3.646
  218HOH      O  840   2.582   0.262   3.586
  218HOH     H1  841   2.582   0.181   3.637
  218HOH     H2  842   2.499   0.305   3.610
  219HOH      O  843   1.154   2.784   2.509
  219HOH     H1  844   1.094   2.714   2.535
  219HOH     H2  845   1.107   2.864   2.531
  220HOH      O  846   3.125   4.013   3.888
  220HOH     H1  847   3.060   3.985   3.824
  220HOH     H2  848   3.088   3.988   3.972
  221HOH      O  849   0.018   2.334   3.118
  221HOH     H1  850  -0.013   2.417   3.152
  221HOH     H2  851   0.110   2.329   3.144
  222HOH      O  852   2.456   3.923   0.913
  222HOH     H1  853   2.410   3.913   0.996
  222HOH     H2  854   2.467   4.017   0.902
  223HOH      O  855   2.358   3.336   2.246
  223HOH     H1  856   2.325   3.269   2.186
  223HOH     H2  857   2.279   3.375   2.284
  224HOH      O  858   3.904   0.914   0.107
  224HOH     H1  859   3.928   0.882   0.020
  224HOH     H2  860   3.810   0.928   0.103
  225HOH      O  861   1.970   2.899   3.842
  225HOH     H1  862   1.977   2.994   3.834
  225HOH     H2  863   2.001   2.866   3.758
  226HOH      O  864   1.282   0.501   2.789
  226HOH     H1  865   1.289   0.569   2.722
  226HOH     H2  866   1.366   0.503   2.834
  227HOH      O  867   0.549   0.197   2.367
  227HOH     H1  868   0.534   0.280   2.412
  227HOH     H2  869   0.645   0.193   2.357
  228HOH      O  870   3.770   3.969   2.283
  228HOH     H1  871   3.741   3.996   2.196
  228HOH     H2  872   3.774   3.873   2.278
  229HOH      O  873   0.551   1.099   2.305
  229HOH     H1  874   0.525   1.007   2.300
  229HOH     H2  875   0.496   1.143   2.240
  230HOH      O  876   1.738   1.191   1.270
  230HOH     H1  877   1.671   1.253   1.242
  230HOH     H2  878   1.689   1.117   1.305
  231HOH      O  879   2.969   0.856   0.581
  231HOH     H1  880   3.064   0.843   0.575
  231HOH     H2  881   2.931   0.773   0.553
  232HOH      O  882   1.931   3.316   1.749
  232HOH     H1  883   1.942   3.371   1.826
  232HOH     H2  884   1.865   3.360   1.696
  233HOH      O  885   3.489   3.167   2.635
  233HOH     H1  886   3.494   3.078   2.600
  233HOH     H2  887   3.579   3.189   2.657
  234HOH      O  888   1.888   2.663   1.498
  234HOH     H1  889   1.794   2.681   1.497
  234HOH     H2  890   1.899   2.594   1.563
  235HOH      O  891   3.977   2.619   0.768
  235HOH     H1  892   4.014   2.653   0.850
  235HOH     H2  893   3.917   2.687   0.739
  236HOH      O  894   2.321   2.973   1.393
  236HOH     H1  895   2.354   2.925   1.317
  236HOH     H2  896   2.238   2.930   1.414
  237HOH      O  897   2.095   0.549   0.718
  237HOH     H1  898   2.105   0.617   0.652
  237HOH     H2  899   2.148   0.476   0.685
  238HOH      O  900   4.023   3.090   3.578
  238HOH     H1  901   3.955   3.091   3.645
  238HOH     H2  902   3.992   3.149   3.510
  239HOH      O  903   1.145   3.845   1.662
  239HOH     H1  904   1.220   3.788   1.676
  239HOH     H2  905   1.101   3.809   1.585
  240HOH      O  906   1.044   0.718   0.221
  240HOH     H1  907   0.972   0.676   0.174
  240HOH     H2  908   1.117   0.658   0.214
  241HOH      O  909   2.507   0.014   2.539
  241HOH     H1  910   2.596   0.048   2.530
  241HOH     H2  911   2.467   0.027   2.454
  242HOH      O  912   3.152   3.591   1.341
  242HOH     H1  913   3.098   3.668   1.354
  242HOH     H2  914   3.239   3.617   1.370
  243HOH      O  915   3.625   2.934   1.421
  243HOH     H1  916   3.595   2.986   1.347
  243HOH     H2  917   3.551   2.933   1.481
  244HOH      O  918   2.406   1.270   3.996
  244HOH     H1  919   2.501   1.284   3.999
  244HOH     H2  920   2.396   1.175   3.996
  245HOH      O  921   3.028   1.424   3.748
  245HOH     H1  922   3.000   1.379   3.669
  245HOH     H2  923   3.118   1.451   3.731
  246HOH      O  924   2.547   2.176   3.780
  246HOH     H1  925   2.521   2.106   3.840
  246HOH     H2  926   2.465   2.203   3.738
  247HOH      O  927   3.032   1.993   3.882
  247HOH     H1  928   3.077   2.045   3.815
  247HOH     H2  929   3.013   2.055   3.952
  248HOH      O  930   4.005   0.987   2.130
  248HOH     H1  931   3.925   0.956   2.172
  248HOH     H2  932   4.060   1.019   2.202
  249HOH      O  933   3.772   0.893   2.304
  249HOH     H1  934   3.839   0.879   2.371
  249HOH     H2  935   3.744   0.806   2.278
  250HOH      O  936   2.290   0.539   1.463
  250HOH     H1  937   2.234   0.495   1.527
  250HOH     H2  938   2.277   0.632   1.480
  251HOH      O  939   2.636   3.471   0.777
  251HOH     H1  940   2.693   3.518   0.716
  251HOH     H2  941   2.651   3.379   0.758
  252HOH      O  942   2.366   1.013   3.943
  252HOH     H1  943   2.274   0.990   3.936
  252HOH     H2  944   2.408   0.967   3.871
  253HOH      O  945   1.289   1.174   0.595
  253HOH     H1  946   1.194   1.159   0.586
  253HOH     H2  947   1.327   1.086   0.594
  254HOH      O  948   3.724   0.153   0.126
  254HOH     H1  949   3.718   0.156   0.222
  254HOH     H2  950   3.657   0.215   0.096
  255HOH      O  951   2.180   0.838   1.484
  255HOH     H1  952   2.240   0.821   1.557
  255HOH     H2  953   2.153   0.929   1.496
  256HOH      O  954   1.224   0.044   2.791
  256HOH     H1  955   1.146  -0.010   2.779
  256HOH     H2  956   1.284   0.015   2.723
  257HOH      O  957   2.091   3.078   1.185
  257HOH     H1  958   2.182   3.105   1.174
  257HOH     H2  959   2.092   2.984   1.169
  258HOH      O  960   0.460   1.338   1.100
  258HOH     H1  961   0.544   1.335   1.148
  258HOH     H2  962   0.434   1.430   1.103
  259HOH      O  963   3.492   0.360   1.188
  259HOH     H1  964   3.512   0.415   1.264
  259HOH     H2  965   3.572   0.360   1.136
  260HOH      O  966   2.760   0.085   2.442
  260HOH     H1  967   2.825   0.138   2.489
  260HOH     H2  968   2.807   0.049   2.368
  261HOH      O  969   2.019   0.571   3.004
  261HOH     H1  970   2.110   0.546   2.987
  261HOH     H2  971   2.002   0.540   3.093
  262HOH      O  972   1.964   0.173   0.591
  262HOH     H1  973   1.873   0.148   0.607
  262HOH     H2  974   2.003   0.094   0.555
  263HOH      O  975   2.483   0.600   0.716
  263HOH     H1  976   2.457   0.621   0.627
  263HOH     H2  977   2.400   0.587   0.763
  264HOH      O  978   1.484   3.064   0.634
  264HOH     H1  979   1.491   3.017   0.717
  264HOH     H2  980   1.428   3.008   0.580
  265HOH      O  981   0.790   2.975   3.309
  265HOH     H1  982   0.801   3.013   3.396
  265HOH     H2  983   0.712   3.019   3.274
  266HOH      O  984   3.549   3.431   2.389
  266HOH     H1  985   3.633   3.389   2.372
  266HOH     H2  986   3.484   3.364   2.369
  267HOH      O  987   3.790   0.400   2.984
  267HOH     H1  988   3.795   0.484   3.030
  267HOH     H2  989   3.745   0.341   3.045
  268HOH      O  990   0.439   3.818   3.883
  268HOH     H1  991   0.448   3.829   3.977
  268HOH     H2  992   0.511   3.869   3.846
  269HOH      O  993   3.455   0.755   1.545
  269HOH     H1  994   3.477   0.788   1.632
  269HOH     H2  995   3.361   0.734   1.550
  270HOH      O  996   1.826   3.098   1.298
  270HOH     H1  997   1.796   3.009   1.320
  270HOH     H2  998   1.916   3.087   1.270
  271HOH      O  999   3.470   1.347   3.340
  271HOH     H1 1000   3.375   1.349   3.341
  271HOH     H2 1001   3.494   1.390   3.258
  272HOH      O 1002   1.021   2.979   0.068
  272HOH     H1 1003   0.990   3.006   0.155
  272HOH     H2 1004   0.961   2.909   0.042
  273HOH      O 1005   0.066   1.287   0.731
  273HOH     H1 1006   0.128   1.230   0.776
  273HOH     H2 1007   0.119   1.358   0.695
  274HOH      O 1008   2.690   2.074   0.218
  274HOH     H1 1009   2.733   2.047   0.299
  274HOH     H2 1010   2.601   2.038   0.225
  275HOH      O 1011   3.606   1.929   0.954
  275HOH     H1 1012   3.544   2.001   0.970
  275HOH     H2 1013   3.659   1.958   0.881
  276HOH      O 1014   3.396   2.517   1.235
  276HOH     H1 1015   3.305   2.535   1.256
  276HOH     H2 1016   3.399   2.523   1.139
  277HOH      O 1017   1.323   2.331   1.753
  277HOH     H1 1018   1.384   2.262   1.729
  277HOH     H2 1019   1.237   2.290   1.751
  278HOH      O 1020   0.287   2.501   2.397
  278HOH     H1 1021   0.372   2.474   2.430
  278HOH     H2 1022   0.257   2.427   2.345
  279HOH      O 1023   3.652   1.433   3.765
  279HOH     H1 1024   3.665   1.489   3.688
  279HOH     H2 1025   3.654   1.344   3.730
  280HOH      O 1026   2.259   3.728   1.581
  280HOH     H1 1027   2.299   3.643   1.564
  280HOH     H2 1028   2.307   3.789   1.524
  281HOH      O 1029   3.089   0.338   3.464
  281HOH     H1 1030   3.030   0.265   3.483
  281HOH     H2 1031   3.060   0.408   3.523
  282HOH      O 1032   3.196   1.400   2.755
  282HOH     H1 1033   3.255   1.340   2.709
  282HOH     H2 1034   3.253   1.445   2.818
  283HOH      O 1035   0.893   1.079   4.043
  283HOH     H1 1036   0.828   1.094   3.974
  283HOH     H2 1037   0.973   1.054   3.996
  284HOH      O 1038   2.648   1.918   2.591
  284HOH     H1 1039   2.636   1.903   2.497
  284HOH     H2 1040   2.613   1.839   2.632
  285HOH      O 1041   3.002   2.149   3.487
  285HOH     H1 1042   2.917   2.156   3.530
  285HOH     H2 1043   3.066   2.173   3.554
  286HOH      O 1044   2.672   2.976   2.058
  286HOH     H1 1045   2.667   2.958   1.964
  286HOH     H2 1046   2.727   2.906   2.093
  287HOH      O 1047   3.846   2.965   0.506
  287HOH     H1 1048   3.813   3.046   0.544
  287HOH     H2 1049   3.771   2.929   0.458
  288HOH      O 1050   0.148   3.955   0.900
  288HOH     H1 1051   0.106   3.933   0.984
  288HOH     H2 1052   0.223   3.896   0.895
  289HOH      O 1053   1.428   1.123   3.987
  289HOH     H1 1054   1.360   1.189   4.001
  289HOH     H2 1055   1.466   1.110   4.074
  290HOH      O 1056   3.286   1.040   1.193
  290HOH     H1 1057   3.295   1.088   1.111
  290HOH     H2 1058   3.199   1.000   1.188
  291HOH      O 1059   3.664   1.981   2.143
  291HOH     H1 1060   3.629   2.037   2.074
  291HOH     H2 1061   3.590   1.967   2.202
  292HOH      O 1062   3.254   0.578   0.722
  292HOH     H1 1063   3.293   0.658   0.688
  292HOH     H2 1064   3.202   0.544   0.650
  293HOH      O 1065   3.066   0.297   1.772
  293HOH     H1 1066   3.135   0.292   1.839
  293HOH     H2 1067   3.059   0.208   1.738
  294HOH      O 1068   3.389   0.370   3.075
  294HOH     H1 1069   3.435   0.429   3.134
  294HOH     H2 1070   3.335   0.316   3.133
  295HOH      O 1071   0.398   2.277   0.496
  295HOH     H1 1072   0.324   2.338   0.494
  295HOH     H2 1073   0.366   2.200   0.450
  296HOH      O 1074   2.635   2.427   2.569
  296HOH     H1 1075   2.579   2.474   2.507
  296HOH     H2 1076   2.693   2.495   2.605
  297HOH      O 1077   0.114   0.142   0.594
  297HOH     H1 1078   0.089   0.167   0.505
  297HOH     H2 1079   0.032   0.113   0.634
  298HOH      O 1080   0.439   3.555   3.824
  298HOH     H1 1081   0.480   3.499   3.890
  298HOH     H2 1082   0.455   3.644   3.855
  299HOH      O 1083   1.237   0.515   0.150
  299HOH     H1 1084   1.303   0.467   0.200
  299HOH     H2 1085   1.254   0.493   0.059
  300HOH      O 1086   0.271   2.810   2.676
  300HOH     H1 1087   0.342   2.871   2.697
  300HOH     H2 1088   0.215   2.811   2.753
  301HOH      O 1089   3.692   0.243   3.692
  301HOH     H1 1090   3.768   0.217   3.744
  301HOH     H2 1091   3.665   0.327   3.729
  302HOH      O 1092   2.535   0.076   1.903
  302HOH     H1 1093   2.443   0.097   1.887
  302HOH     H2 1094   2.537   0.041   1.992
  303HOH      O 1095   3.408   3.032   0.032
  303HOH     H1 1096   3.463   3.098   0.074
  303HOH     H2 1097   3.444   3.024  -0.057
  304HOH      O 1098   1.582   0.738   0.561
  304HOH     H1 1099   1.532   0.669   0.518
  304HOH     H2 1100   1.590   0.710   0.652
  305HOH      O 1101   3.828   3.292   3.986
  305HOH     H1 1102   3.768   3.251   3.923
  305HOH     H2 1103   3.915   3.277   3.950
  306HOH      O 1104   0.044   3.665   0.153
  306HOH     H1 1105   0.102   3.663   0.077
  306HOH     H2 1106  -0.044   3.671   0.116
  307HOH      O 1107   3.247   0.715   2.919
  307HOH     H1 1108   3.228   0.780   2.852
  307HOH     H2 1109   3.258   0.765   3.000
  308HOH      O 1110   1.271   3.663   2.822
  308HOH     H1 1111   1.351   3.710   2.844
  308HOH     H2 1112   1.287   3.574   2.853
  309HOH      O 1113   0.567   2.403   0.312
  309HOH     H1 1114   0.641   2.342   0.300
  309HOH     H2 1115   0.509   2.358   0.374
  310HOH      O 1116   0.016   1.082   1.357
  310HOH     H1 1117  -0.051   1.013   1.361
  310HOH     H2 1118   0.073   1.055   1.285
  311HOH      O 1119   0.721   2.751   3.639
  311HOH     H1 1120   0.780   2.800   3.696
  311HOH     H2 1121   0.647   2.728   3.696
  312HOH      O 1122   1.352   2.953   0.397
  312HOH     H1 1123   1.326   2.871   0.438
  312HOH     H2 1124   1.401   2.927   0.320
  313HOH      O 1125   0.125   0.971   3.728
  313HOH     H1 1126   0.100   0.981   3.636
  313HOH     H2 1127   0.184   0.897   3.729
  314HOH      O 1128   1.130   2.327   0.498
  314HOH     H1 1129   1.040   2.352   0.521
  314HOH     H2 1130   1.132   2.328   0.403
  315HOH      O 1131   2.853   2.509   0.417
  315HOH     H1 1132   2.762   2.498   0.390
  315HOH     H2 1133   2.893   2.423   0.403
  316HOH      O 1134   1.390   2.684   2.987
  316HOH     H1 1135   1.381   2.776   2.959
  316HOH     H2 1136   1.300   2.653   2.995
  317HOH      O 1137   1.131   2.431   2.725
  317HOH     H1 1138   1.139   2.507   2.781
  317HOH     H2 1139   1.041   2.434   2.692
  318HOH      O 1140   1.612   0.721   0.836
  318HOH     H1 1141   1.686   0.677   0.878
  318HOH     H2 1142   1.609   0.807   0.877
  319HOH      O 1143   0.185   3.624   3.304
  319HOH     H1 1144   0.149   3.557   3.246
  319HOH     H2 1145   0.117   3.692   3.307
  320HOH      O 1146   2.855   2.197   1.072
  320HOH     H1 1147   2.910   2.271   1.049
  320HOH     H2 1148   2.821   2.165   0.989
  321HOH      O 1149   3.792   1.615   2.045
  321HOH     H1 1150   3.833   1.701   2.052
  321HOH     H2 1151   3.816   1.584   1.958
  322HOH      O 1152   1.111   1.637   0.299
  322HOH     H1 1153   1.167   1.559   0.297
  322HOH     H2 1154   1.102   1.662   0.207
  323HOH      O 1155   2.380   3.811   2.603
  323HOH     H1 1156   2.357   3.773   2.519
  323HOH     H2 1157   2.440   3.883   2.582
  324HOH      O 1158   1.347   1.834   3.742
  324HOH     H1 1159   1.367   1.924   3.715
  324HOH     H2 1160   1.252   1.830   3.741
  325HOH      O 1161   0.150   0.401   3.686
  325HOH     H1 1162   0.143   0.420   3.780
  325HOH     H2 1163   0.148   0.306   3.680
  326HOH      O 1164   1.370   1.275   1.361
  326HOH     H1 1165   1.408   1.308   1.443
  326HOH     H2 1166   1.423   1.314   1.292
  327HOH      O 1167   3.774   0.798   1.591
  327HOH     H1 1168   3.769   0.723   1.651
  327HOH     H2 1169   3.684   0.809   1.559
  328HOH      O 1170   2.171   1.192   2.574
  328HOH     H1 1171   2.143   1.266   2.520
  328HOH     H2 1172   2.099   1.129   2.568
  329HOH      O 1173   0.038   3.681   2.383
  329HOH     H1 1174   0.083   3.761   2.410
  329HOH     H2 1175   0.032   3.629   2.463
  330HOH      O 1176   0.026   3.218   0.541
  330HOH     H1 1177  -0.069   3.226   0.532
  330HOH     H2 1178   0.046   3.269   0.620
  331HOH      O 1179   0.065   0.506   1.915
  331HOH     H1 1180   0.112   0.587   1.936
  331HOH     H2 1181   0.058   0.507   1.820
  332HOH      O 1182   2.002   3.369   1.151
  332HOH     H1 1183   1.989   3.342   1.060
  332HOH     H2 1184   2.044   3.294   1.193
  333HOH      O 1185   0.479   1.206   0.054
  333HOH     H1 1186   0.402   1.165   0.094
  333HOH     H2 1187   0.544   1.135   0.050
  334HOH      O 1188   0.585   1.863   1.243
  334HOH     H1 1189   0.526   1.804   1.288
  334HOH     H2 1190   0.540   1.886   1.162
  335HOH      O 1191   0.886   0.385   2.805
  335HOH     H1 1192   0.929   0.456   2.852
  335HOH     H2 1193   0.919   0.305   2.847
  336HOH      O 1194   1.485   3.941   0.871
  336HOH     H1 1195   1.404   3.912   0.828
  336HOH     H2 1196   1.473   3.917   0.963
  337HOH      O 1197   1.271   1.372   2.813
  337HOH     H1 1198   1.256   1.355   2.906
  337HOH     H2 1199   1.331   1.447   2.812
  338HOH      O 1200   0.138   1.668   2.333
  338HOH     H1 1201   0.139   1.573   2.324
  338HOH     H2 1202   0.203   1.699   2.270
  339HOH      O 1203   0.053   0.852   0.483
  339HOH     H1 1204   0.005   0.926   0.521
  339HOH     H2 1205   0.011   0.775   0.520
  340HOH      O 1206   1.721   2.950   2.829
  340HOH     H1 1207   1.635   2.980   2.857
  340HOH     H2 1208   1.772   2.942   2.910
  341HOH      O 1209   1.087   2.157   0.127
  341HOH     H1 1210   1.168   2.203   0.153
  341HOH     H2 1211   1.095   2.070   0.166
  342HOH      O 1212   0.142   3.158   2.132
  342HOH     H1 1213   0.060   3.116   2.155
  342HOH     H2 1214   0.205   3.086   2.124
  343HOH      O 1215   2.821   3.476   2.185
  343HOH     H1 1216   2.857   3.540   2.247
  343HOH     H2 1217   2.762   3.423   2.238
  344HOH      O 1218   0.899   0.903   2.856
  344HOH     H1 1219   0.812   0.879   2.824
  344HOH     H2 1220   0.883   0.932   2.946
  345HOH      O 1221   2.371   1.386   3.743
  345HOH     H1 1222   2.356   1.339   3.825
  345HOH     H2 1223   2.456   1.427   3.754
  346HOH      O 1224   3.431   0.084   2.832
  346HOH     H1 1225   3.492   0.097   2.904
  346HOH     H2 1226   3.388   0.001   2.853
  347HOH      O 1227   2.719   0.655   2.953
  347HOH     H1 1228   2.725   0.588   3.021
  347HOH     H2 1229   2.654   0.621   2.892
  348HOH      O 1230   1.978   0.986   2.501
  348HOH     H1 1231   1.935   1.024   2.424
  348HOH     H2 1232   1.909   0.937   2.545
  349HOH      O 1233   1.599   3.537   1.000
  349HOH     H1 1234   1.570   3.591   1.074
  349HOH     H2 1235   1.592   3.447   1.032
  350HOH      O 1236   2.669   3.842   0.741
  350HOH     H1 1237   2.601   3.860   0.807
  350HOH     H2 1238   2.738   3.906   0.759
  351HOH      O 1239   0.882   2.428   0.510
  351HOH     H1 1240   0.836   2.450   0.430
  351HOH     H2 1241   0.813   2.405   0.572
  352HOH      O 1242   1.447   0.973   2.926
  352HOH     H1 1243   1.394   0.982   2.847
  352HOH     H2 1244   1.521   1.032   2.912
  353HOH      O 1245   3.660   1.856   2.735
  353HOH     H1 1246   3.668   1.874   2.828
  353HOH     H2 1247   3.578   1.807   2.727
  354HOH      O 1248   3.983   1.347   1.370
  354HOH     H1 1249   4.038   1.377   1.443
  354HOH     H2 1250   3.998   1.253   1.366
  355HOH      O 1251   0.784   1.361   2.251
  355HOH     H1 1252   0.705   1.307   2.254
  355HOH     H2 1253   0.753   1.446   2.219
  356HOH      O 1254   2.068   3.864   2.173
  356HOH     H1 1255   2.043   3.772   2.164
  356HOH     H2 1256   2.033   3.891   2.258
  357HOH      O 1257   1.895   1.478   1.657
  357HOH     H1 1258   1.962   1.410   1.646
  357HOH     H2 1259   1.854   1.485   1.571
  358HOH      O 1260   0.384   1.512   3.331
  358HOH     H1 1261   0.379   1.557   3.415
  358HOH     H2 1262   0.322   1.559   3.275
  359HOH      O 1263   2.899   1.125   3.216
  359HOH     H1 1264   2.931   1.183   3.147
  359HOH     H2 1265   2.852   1.056   3.169
  360HOH      O 1266   1.283   3.533   0.619
  360HOH     H1 1267   1.261   3.440   0.617
  360HOH     H2 1268   1.268   3.559   0.710
  361HOH      O 1269   2.424   2.017   3.330
  361HOH     H1 1270   2.395   1.986   3.244
  361HOH     H2 1271   2.347   2.061   3.366
  362HOH      O 1272   0.311   0.126   2.824
  362HOH     H1 1273   0.275   0.176   2.751
  362HOH     H2 1274   0.238   0.115   2.884
  363HOH      O 1275   0.293   2.757   0.784
  363HOH     H1 1276   0.205   2.780   0.814
  363HOH     H2 1277   0.315   2.678   0.833
  364HOH      O 1278   1.476   3.821   1.153
  364HOH     H1 1279   1.438   3.739   1.185
  364HOH     H2 1280   1.467   3.881   1.227
  365HOH      O 1281   2.550   0.026   3.320
  365HOH     H1 1282   2.559  -0.004   3.229
  365HOH     H2 1283   2.625   0.085   3.333
  366HOH      O 1284   3.782   2.629   0.486
  366HOH     H1 1285   3.747   2.707   0.443
  366HOH     H2 1286   3.712   2.564   0.480
  367HOH      O 1287   1.527   3.902   0.214
  367HOH     H1 1288   1.524   3.896   0.310
  367HOH     H2 1289   1.538   3.812   0.184
  368HOH      O 1290   2.178   2.519   1.415
  368HOH     H1 1291   2.221   2.528   1.329
  368HOH     H2 1292   2.102   2.464   1.398
  369HOH      O 1293   3.549   0.953   1.863
  369HOH     H1 1294   3.625   0.983   1.814
  369HOH     H2 1295   3.566   0.978   1.953
  370HOH      O 1296   2.838   3.001   0.671
  370HOH     H1 1297   2.851   2.907   0.667
  370HOH     H2 1298   2.841   3.030   0.580
  371HOH      O 1299   0.175   3.038   1.061
  371HOH     H1 1300   0.208   3.002   1.144
  371HOH     H2 1301   0.221   3.121   1.051
  372HOH      O 1302   3.487   0.784   0.991
  372HOH     H1 1303   3.524   0.871   0.981
  372HOH     H2 1304   3.524   0.732   0.919
  373HOH      O 1305   0.271   3.233   2.596
  373HOH     H1 1306   0.266   3.308   2.536
  373HOH     H2 1307   0.196   3.244   2.655
  374HOH      O 1308   3.417   0.909   3.612
  374HOH     H1 1309   3.321   0.908   3.610
  374HOH     H2 1310   3.442   0.916   3.520
  375HOH      O 1311   0.988   2.237   1.910
  375HOH     H1 1312   0.908   2.188   1.894
  375HOH     H2 1313   1.042   2.222   1.832
  376HOH      O 1314   2.931   0.120   3.509
  376HOH     H1 1315   2.886   0.105   3.592
  376HOH     H2 1316   2.956   0.033   3.480
  377HOH      O 1317   2.351   3.955   1.486
  377HOH     H1 1318   2.434   4.003   1.488
  377HOH     H2 1319   2.327   3.954   1.393
  378HOH      O 1320   2.683   3.139   0.411
  378HOH     H1 1321   2.599   3.185   0.420
  378HOH     H2 1322   2.681   3.102   0.323
  379HOH      O 1323   0.357   3.003   2.093
  379HOH     H1 1324   0.348   2.932   2.157
  379HOH     H2 1325   0.441   2.986   2.050
  380HOH      O 1326   3.257   0.550   1.688
  380HOH     H1 1327   3.180   0.511   1.730
  380HOH     H2 1328   3.273   0.495   1.611
  381HOH      O 1329   0.603   3.339   3.070
  381HOH     H1 1330   0.603   3.376   3.158
  381HOH     H2 1331   0.653   3.402   3.018
  382HOH      O 1332   4.037   0.515   1.634
  382HOH     H1 1333   3.942   0.503   1.632
  382HOH     H2 1334   4.064   0.504   1.543
  383HOH      O 1335   2.171   1.087   1.371
  383HOH     H1 1336   2.165   1.058   1.280
  383HOH     H2 1337   2.257   1.057   1.400
  384HOH      O 1338   3.329   1.949   1.404
  384HOH     H1 1339   3.414   1.947   1.360
  384HOH     H2 1340   3.311   1.858   1.425
  385HOH      O 1341   1.984   3.629   0.100
  385HOH     H1 1342   1.978   3.685   0.177
  385HOH     H2 1343   1.991   3.689   0.026
  386HOH      O 1344   0.724   1.279   3.595
  386HOH     H1 1345   0.715   1.364   3.552
  386HOH     H2 1346   0.744   1.301   3.687
  387HOH      O 1347   1.659   1.020   0.623
  387HOH     H1 1348   1.660   0.932   0.584
  387HOH     H2 1349   1.645   1.079   0.549
  388HOH      O 1350   3.967   3.492   2.184
  388HOH     H1 1351   3.973   3.520   2.093
  388HOH     H2 1352   4.015   3.558   2.233
  389HOH      O 1353   0.717   3.089   0.017
  389HOH     H1 1354   0.740   3.000  -0.011
  389HOH     H2 1355   0.750   3.094   0.107
  390HOH      O 1356   0.130   3.093   0.316
  390HOH     H1 1357   0.117   3.121   0.406
  390HOH     H2 1358   0.075   3.014   0.307
  391HOH      O 1359   1.560   3.061   2.423
  391HOH     H1 1360   1.472   3.093   2.444
  391HOH     H2 1361   1.549   2.967   2.410
  392HOH      O 1362   1.551   1.590   1.812
  392HOH     H1 1363   1.613   1.521   1.839
  392HOH     H2 1364   1.519   1.626   1.894
  393HOH      O 1365   3.161   1.051   1.948
  393HOH     H1 1366   3.191   1.110   1.880
  393HOH     H2 1367   3.237   0.995   1.967
  394HOH      O 1368   1.460   3.306   3.587
  394HOH     H1 1369   1.536   3.251   3.605
  394HOH     H2 1370   1.388   3.245   3.577
  395HOH      O 1371   2.459   0.791   1.081
  395HOH     H1 1372   2.548   0.767   1.052
  395HOH     H2 1373   2.402   0.731   1.033
  396HOH      O 1374   1.757   0.349   0.874
  396HOH     H1 1375   1.671   0.376   0.905
  396HOH     H2 1376   1.752   0.254   0.870
  397HOH      O 1377   0.129   2.773   1.826
  397HOH     H1 1378   0.098   2.862   1.812
  397HOH     H2 1379   0.119   2.731   1.741
  398HOH      O 1380   2.505   0.663   2.232
  398HOH     H1 1381   2.451   0.653   2.311
  398HOH     H2 1382   2.583   0.710   2.262
  399HOH      O 1383   1.176   0.231   0.710
  399HOH     H1 1384   1.162   0.231   0.615
  399HOH     H2 1385   1.123   0.158   0.742
  400HOH      O 1386   1.379   0.914   0.602
  400HOH     H1 1387   1.469   0.882   0.598
  400HOH     H2 1388   1.326   0.835   0.605
  401HOH      O 1389   1.173   3.144   2.265
  401HOH     H1 1390   1.244   3.151   2.201
  401HOH     H2 1391   1.117   3.074   2.231
  402HOH      O 1392  -0.009   0.182   1.494
  402HOH     H1 1393   0.007   0.124   1.419
  402HOH     H2 1394   0.078   0.197   1.531
  403HOH      O 1395   2.841   3.779   1.592
  403HOH     H1 1396   2.834   3.874   1.583
  403HOH     H2 1397   2.819   3.744   1.506
  404HOH      O 1398   3.692   3.703   2.220
  404HOH     H1 1399   3.735   3.704   2.134
  404HOH     H2 1400   3.627   3.632   2.213
  405HOH      O 1401   3.048   0.530   3.844
  405HOH     H1 1402   3.030   0.604   3.785
  405HOH     H2 1403   2.961   0.494   3.864
  406HOH      O 1404   0.349   0.552   3.559
  406HOH     H1 1405   0.424   0.499   3.585
  406HOH     H2 1406   0.273   0.501   3.584
  407HOH      O 1407   1.187   2.888   1.688
  407HOH     H1 1408   1.266   2.921   1.732
  407HOH     H2 1409   1.158   2.962   1.634
  408HOH      O 1410   2.769   1.452   2.191
  408HOH     H1 1411   2.760   1.522   2.126
  408HOH     H2 1412   2.683   1.411   2.193
  409HOH      O 1413   1.512   2.046   0.815
  409HOH     H1 1414   1.565   2.126   0.805
  409HOH     H2 1415   1.515   2.027   0.908
  410HOH      O 1416   0.766   2.054   1.226
  410HOH     H1 1417   0.695   2.002   1.263
  410HOH     H2 1418   0.791   2.114   1.295
  411HOH      O 1419   1.672   0.220   0.587
  411HOH     H1 1420   1.649   0.182   0.502
  411HOH     H2 1421   1.588   0.251   0.623
  412HOH      O 1422   2.352   1.660   0.984
  412HOH     H1 1423   2.437   1.622   0.962
  412HOH     H2 1424   2.369   1.714   1.061
  413HOH      O 1425   1.927   1.632   3.694
  413HOH     H1 1426   1.890   1.718   3.677
  413HOH     H2 1427   1.892   1.607   3.780
  414HOH      O 1428   1.778   2.173   0.162
  414HOH     H1 1429   1.752   2.262   0.185
  414HOH     H2 1430   1.748   2.120   0.236
  415HOH      O 1431   1.062   2.132   3.736
  415HOH     H1 1432   1.072   2.055   3.791
  415HOH     H2 1433   1.015   2.101   3.659
  416HOH      O 1434   2.066   1.852   1.991
  416HOH     H1 1435   2.139   1.914   1.983
  416HOH     H2 1436   2.085   1.785   1.926
  417HOH      O 1437   2.418   2.827   0.042
  417HOH     H1 1438   2.365   2.822  -0.038
  417HOH     H2 1439   2.372   2.771   0.104
  418HOH      O 1440   3.377   1.034   0.785
  418HOH     H1 1441   3.345   1.104   0.843
  418HOH     H2 1442   3.341   0.954   0.823
  419HOH      O 1443   2.578   0.313   0.087
  419HOH     H1 1444   2.585   0.406   0.106
  419HOH     H2 1445   2.643   0.271   0.144
  420HOH      O 1446   1.623   3.047   2.062
  420HOH     H1 1447   1.701   3.036   2.009
  420HOH     H2 1448   1.572   2.967   2.048
  421HOH      O 1449   1.733   1.777   4.002
  421HOH     H1 1450   1.708   1.698   3.953
  421HOH     H2 1451   1.661   1.790   4.064
  422HOH      O 1452   3.015   1.827   2.057
  422HOH     H1 1453   2.994   1.909   2.101
  422HOH     H2 1454   3.032   1.852   1.966
  423HOH      O 1455   3.957   2.246   2.538
  423HOH     H1 1456   3.945   2.219   2.447
  423HOH     H2 1457   3.877   2.295   2.558
  424HOH      O 1458   3.447   0.048   1.815
  424HOH     H1 1459   3.531   0.013   1.784
  424HOH     H2 1460   3.382   0.014   1.753
  425HOH      O 1461   2.240   3.834   2.863
  425HOH     H1 1462   2.273   3.823   2.774
  425HOH     H2 1463   2.317   3.860   2.914
  426HOH      O 1464   1.347   2.910   1.958
  426HOH     H1 1465   1.353   2.860   2.040
  426HOH     H2 1466   1.426   2.887   1.910
  427HOH      O 1467   3.730   1.978   2.966
  427HOH     H1 1468   3.710   1.999   3.057
  427HOH     H2 1469   3.777   2.054   2.933
  428HOH      O 1470   2.798   1.560   3.833
  428HOH     H1 1471   2.874   1.516   3.795
  428HOH     H2 1472   2.763   1.612   3.761
  429HOH      O 1473   1.143   2.558   0.699
  429HOH     H1 1474   1.117   2.487   0.640
  429HOH     H2 1475   1.237   2.544   0.713
  430HOH      O 1476   1.454   0.530   3.445
  430HOH     H1 1477   1.530   0.471   3.448
  430HOH     H2 1478   1.402   0.497   3.372
  431HOH      O 1479   0.438   3.611   0.366
  431HOH     H1 1480   0.502   3.544   0.343
  431HOH     H2 1481   0.490   3.683   0.401
  432HOH      O 1482   0.366   3.294   3.630
  432HOH     H1 1483   0.454   3.274   3.664
  432HOH     H2 1484   0.368   3.388   3.613
  433HOH      O 1485   3.143   3.370   1.540
  433HOH     H1 1486   3.096   3.380   1.623
  433HOH     H2 1487   3.103   3.436   1.482
  434HOH      O 1488   0.680   0.364   0.820
  434HOH     H1 1489   0.604   0.330   0.867
  434HOH     H2 1490   0.705   0.443   0.868
  435HOH      O 1491   2.338   1.463   0.273
  435HOH     H1 1492   2.343   1.374   0.307
  435HOH     H2 1493   2.314   1.516   0.349
  436HOH      O 1494   2.199   2.060   0.321
  436HOH     H1 1495   2.270   2.121   0.300
  436HOH     H2 1496   2.233   2.008   0.394
  437HOH      O 1497   1.453   2.244   3.442
  437HOH     H1 1498   1.513   2.316   3.457
  437HOH     H2 1499   1.413   2.263   3.357
  438HOH      O 1500   3.432   1.918   0.316
  438HOH     H1 1501   3.372   1.949   0.247
  438HOH     H2 1502   3.389   1.944   0.398
  439HOH      O 1503   2.461   1.218   1.142
  439HOH     H1 1504   2.398   1.146   1.147
  439HOH     H2 1505   2.487   1.221   1.050
  440HOH      O 1506   2.836   0.056   3.764
  440HOH     H1 1507   2.826  -0.038   3.780
  440HOH     H2 1508   2.768   0.097   3.817
  441HOH      O 1509   3.432   2.743   2.323
  441HOH     H1 1510   3.362   2.699   2.275
  441HOH     H2 1511   3.445   2.691   2.402
  442HOH      O 1512   1.059   3.341   3.063
  442HOH     H1 1513   1.123   3.286   3.019
  442HOH     H2 1514   1.012   3.385   2.992
  443HOH      O 1515   0.375   3.014   3.259
  443HOH     H1 1516   0.401   2.922   3.264
  443HOH     H2 1517   0.331   3.031   3.343
  444HOH      O 1518   2.468   0.734   3.440
  444HOH     H1 1519   2.426   0.679   3.506
  444HOH     H2 1520   2.406   0.805   3.425
  445HOH      O 1521   1.670   3.652   3.316
  445HOH     H1 1522   1.741   3.658   3.379
  445HOH     H2 1523   1.595   3.621   3.367
  446HOH      O 1524   1.424   2.346   1.004
  446HOH     H1 1525   1.334   2.342   1.034
  446HOH     H2 1526   1.419   2.325   0.910
  447HOH      O 1527   0.797   1.023   3.112
  447HOH     H1 1528   0.782   0.946   3.167
  447HOH     H2 1529   0.829   1.090   3.171
  448HOH      O 1530   1.712   1.481   0.218
  448HOH     H1 1531   1.804   1.485   0.246
  448HOH     H2 1532   1.667   1.541   0.277
  449HOH      O 1533   2.561   1.937   1.513
  449HOH     H1 1534   2.612   2.016   1.493
  449HOH     H2 1535   2.472   1.959   1.486
  450HOH      O 1536   1.231   0.372   3.947
  450HOH     H1 1537   1.295   0.358   3.877
  450HOH     H2 1538   1.189   0.287   3.959
  451HOH      O 1539   2.856   3.146   0.107
  451HOH     H1 1540   2.784   3.198   0.073
  451HOH     H2 1541   2.934   3.182   0.065
  452HOH      O 1542   0.966   0.152   2.545
  452HOH     H1 1543   0.909   0.198   2.484
  452HOH     H2 1544   1.036   0.214   2.565
  453HOH      O 1545   3.786   1.999   0.740
  453HOH     H1 1546   3.858   1.936   0.747
  453HOH     H2 1547   3.778   2.015   0.646
  454HOH      O 1548   1.698   2.663   3.895
  454HOH     H1 1549   1.644   2.612   3.955
  454HOH     H2 1550   1.766   2.702   3.950
  455HOH      O 1551   3.387   0.200   0.385
  455HOH     H1 1552   3.426   0.261   0.448
  455HOH     H2 1553   3.299   0.185   0.419
  456HOH      O 1554   3.945   3.603   0.388
  456HOH     H1 1555   4.006   3.606   0.314
  456HOH     H2 1556   3.998   3.625   0.464
  457HOH      O 1557   1.259   2.176   2.096
  457HOH     H1 1558   1.278   2.144   2.185
  457HOH     H2 1559   1.209   2.105   2.056
  458HOH      O 1560   1.994   0.356   1.340
  458HOH     H1 1561   2.038   0.332   1.421
  458HOH     H2 1562   2.004   0.451   1.335
  459HOH      O 1563   3.440   3.458   0.148
  459HOH     H1 1564   3.416   3.537   0.197
  459HOH     H2 1565   3.384   3.460   0.070
  460HOH      O 1566   1.095   2.562   2.969
  460HOH     H1 1567   1.016   2.557   3.024
  460HOH     H2 1568   1.128   2.472   2.967
  461HOH      O 1569   2.146   3.273   3.327
  461HOH     H1 1570   2.152   3.337   3.257
  461HOH     H2 1571   2.228   3.225   3.323
  462HOH      O 1572   2.735   2.169   2.365
  462HOH     H1 1573   2.718   2.113   2.441
  462HOH     H2 1574   2.650   2.210   2.347
  463HOH      O 1575   3.056   2.291   3.026
  463HOH     H1 1576   3.002   2.217   2.998
  463HOH     H2 1577   3.094   2.263   3.109
  464HOH      O 1578   0.867   1.585   0.002
  464HOH     H1 1579   0.799   1.577   0.069
  464HOH     H2 1580   0.873   1.679  -0.016
  465HOH      O 1581   1.931   2.145   2.355
  465HOH     H1 1582   1.842   2.180   2.343
  465HOH     H2 1583   1.949   2.160   2.448
  466HOH      O 1584   3.170   3.877   2.395
  466HOH     H1 1585   3.258   3.840   2.400
  466HOH     H2 1586   3.157   3.921   2.479
  467HOH      O 1587   0.604   1.526   0.127
  467HOH     H1 1588   0.606   1.486   0.040
  467HOH     H2 1589   0.532   1.483   0.173
  468HOH      O 1590   3.100   3.473   0.939
  468HOH     H1 1591   3.035   3.541   0.923
  468HOH     H2 1592   3.076   3.436   1.024
  469HOH      O 1593   3.282   0.363   1.475
  469HOH     H1 1594   3.334   0.283   1.465
  469HOH     H2 1595   3.217   0.358   1.405
  470HOH      O 1596   0.268   0.115   1.486
  470HOH     H1 1597   0.274   0.040   1.428
  470HOH     H2 1598   0.296   0.082   1.571
  471HOH      O 1599   0.661   0.521   1.718
  471HOH     H1 1600   0.585   0.488   1.670
  471HOH     H2 1601   0.684   0.450   1.778
  472HOH      O 1602   2.958   1.492   0.360
  472HOH     H1 1603   2.923   1.451   0.281
  472HOH     H2 1604   3.047   1.517   0.338
  473HOH      O 1605   0.886   1.256   3.245
  473HOH     H1 1606   0.950   1.233   3.314
  473HOH     H2 1607   0.884   1.351   3.245
  474HOH      O 1608   0.289   3.464   0.653
  474HOH     H1 1609   0.226   3.496   0.718
  474HOH     H2 1610   0.283   3.525   0.580
  475HOH      O 1611   1.098   1.723   3.484
  475HOH     H1 1612   1.149   1.679   3.417
  475HOH     H2 1613   1.142   1.807   3.497
  476HOH      O 1614   2.237   0.343   2.713
  476HOH     H1 1615   2.330   0.336   2.690
  476HOH     H2 1616   2.199   0.262   2.681
  477HOH      O 1617   3.477   3.048   0.405
  477HOH     H1 1618   3.474   3.102   0.483
  477HOH     H2 1619   3.467   3.110   0.332
  478HOH      O 1620   1.908   3.889   1.912
  478HOH     H1 1621   1.995   3.857   1.887
  478HOH     H2 1622   1.924   3.940   1.992
  479HOH      O 1623   3.795   1.588   3.267
  479HOH     H1 1624   3.797   1.682   3.287
  479HOH     H2 1625   3.742   1.582   3.188
  480HOH      O 1626   2.653   1.189   0.209
  480HOH     H1 1627   2.741   1.155   0.228
  480HOH     H2 1628   2.648   1.272   0.256
  481HOH      O 1629   3.294   0.637   0.288
  481HOH     H1 1630   3.308   0.731   0.272
  481HOH     H2 1631   3.314   0.626   0.381
  482HOH      O 1632   2.876   2.575   1.959
  482HOH     H1 1633   2.789   2.613   1.948
  482HOH     H2 1634   2.913   2.623   2.033
  483HOH      O 1635   1.301   1.510   1.061
  483HOH     H1 1636   1.265   1.457   0.990
  483HOH     H2 1637   1.225   1.539   1.110
  484HOH      O 1638   0.499   1.012   1.342
  484HOH     H1 1639   0.432   1.078   1.324
  484HOH     H2 1640   0.462   0.959   1.412
  485HOH      O 1641   3.628   3.413   1.188
  485HOH     H1 1642   3.589   3.327   1.176
  485HOH     H2 1643   3.635   3.423   1.283
  486HOH      O 1644   0.323   2.183   3.163
  486HOH     H1 1645   0.247   2.139   3.201
  486HOH     H2 1646   0.350   2.125   3.091
  487HOH      O 1647   2.475   1.468   1.921
  487HOH     H1 1648   2.440   1.529   1.856
  487HOH     H2 1649   2.437   1.383   1.898
  488HOH      O 1650   1.535   2.194   1.696
  488HOH     H1 1651   1.553   2.100   1.702
  488HOH     H2 1652   1.564   2.218   1.608
  489HOH      O 1653   1.156   2.366   1.100
  489HOH     H1 1654   1.155   2.296   1.166
  489HOH     H2 1655   1.079   2.349   1.046
  490HOH      O 1656   2.287   1.003   1.096
  490HOH     H1 1657   2.234   1.001   1.016
  490HOH     H2 1658   2.340   0.924   1.092
  491HOH      O 1659   1.007   3.032   1.501
  491HOH     H1 1660   0.961   3.039   1.417
  491HOH     H2 1661   1.070   3.104   1.500
  492HOH      O 1662   2.939   0.352   2.298
  492HOH     H1 1663   3.030   0.323   2.296
  492HOH     H2 1664   2.932   0.406   2.377
  493HOH      O 1665   0.651   0.405   2.916
  493HOH     H1 1666   0.603   0.339   2.867
  493HOH     H2 1667   0.738   0.405   2.876
  494HOH      O 1668   2.507   1.230   0.840
  494HOH     H1 1669   2.554   1.161   0.794
  494HOH     H2 1670   2.471   1.285   0.770
  495HOH      O 1671   1.343   1.918   2.655
  495HOH     H1 1672   1.277   1.868   2.606
  495HOH     H2 1673   1.398   1.957   2.587
  496HOH      O 1674   1.862   0.748   3.488
  496HOH     H1 1675   1.807   0.694   3.432
  496HOH     H2 1676   1.921   0.792   3.428
  497HOH      O 1677   0.257   0.680   0.035
  497HOH     H1 1678   0.299   0.612   0.086
  497HOH     H2 1679   0.215   0.737   0.100
  498HOH      O 1680   1.415   2.113   3.685
  498HOH     H1 1681   1.427   2.191   3.740
  498HOH     H2 1682   1.403   2.149   3.597
  499HOH      O 1683   1.451   3.100   1.278
  499HOH     H1 1684   1.491   3.019   1.244
  499HOH     H2 1685   1.394   3.070   1.349
  500HOH      O 1686   1.156   0.513   2.125
  500HOH     H1 1687   1.187   0.423   2.123
  500HOH     H2 1688   1.222   0.563   2.077
  501HOH      O 1689   3.867   2.044   1.194
  501HOH     H1 1690   3.807   2.119   1.193
  501HOH     H2 1691   3.882   2.025   1.101
  502HOH      O 1692   1.852   1.838   3.344
  502HOH     H1 1693   1.867   1.931   3.363
  502HOH     H2 1694   1.933   1.808   3.303
  503HOH      O 1695   3.074   0.572   1.161
  503HOH     H1 1696   3.049   0.604   1.074
  503HOH     H2 1697   3.167   0.592   1.168
  504HOH      O 1698   2.062   1.624   1.826
  504HOH     H1 1699   2.133   1.572   1.788
  504HOH     H2 1700   1.982   1.584   1.793
  505HOH      O 1701   0.126   1.792   2.622
  505HOH     H1 1702   0.043   1.839   2.619
  505HOH     H2 1703   0.143   1.767   2.532
  506HOH      O 1704   0.812   0.285   2.361
  506HOH     H1 1705   0.818   0.369   2.407
  506HOH     H2 1706   0.804   0.309   2.268
  507HOH      O 1707   1.423   0.344   1.638
  507HOH     H1 1708   1.515   0.326   1.618
  507HOH     H2 1709   1.374   0.296   1.571
  508HOH      O 1710   1.129   2.138   2.689
  508HOH     H1 1711   1.213   2.107   2.657
  508HOH     H2 1712   1.133   2.233   2.680
  509HOH      O 1713   2.907   2.294   1.888
  509HOH     H1 1714   2.994   2.291   1.928
  509HOH     H2 1715   2.874   2.381   1.912
  510HOH      O 1716   3.105   3.731   1.728
  510HOH     H1 1717   3.100   3.763   1.818
  510HOH     H2 1718   3.015   3.740   1.694
  511HOH      O 1719   2.464   0.117   0.679
  511HOH     H1 1720   2.467   0.159   0.765
  511HOH     H2 1721   2.516   0.174   0.623
  512HOH      O 1722   2.244   2.365   0.728
  512HOH     H1 1723   2.204   2.301   0.670
  512HOH     H2 1724   2.334   2.336   0.738
  513HOH      O 1725   1.203   1.592   3.265
  513HOH     H1 1726   1.282   1.558   3.308
  513HOH     H2 1727   1.225   1.591   3.172
  514HOH      O 1728   1.030   0.427   1.628
  514HOH     H1 1729   1.119   0.425   1.664
  514HOH     H2 1730   1.032   0.498   1.564
  515HOH      O 1731   2.082   0.911   3.992
  515HOH     H1 1732   2.098   0.821   3.964
  515HOH     H2 1733   2.010   0.940   3.937
  516HOH      O 1734   2.438   3.924   3.971
  516HOH     H1 1735   2.465   3.846   4.021
  516HOH     H2 1736   2.372   3.891   3.910
  517HOH      O 1737   0.262   3.832   1.833
  517HOH     H1 1738   0.331   3.859   1.771
  517HOH     H2 1739   0.186   3.884   1.806
  518HOH      O 1740   1.264   3.448   1.502
  518HOH     H1 1741   1.209   3.384   1.547
  518HOH     H2 1742   1.269   3.522   1.563
  519HOH      O 1743   1.748   3.044   1.019
  519HOH     H1 1744   1.677   2.980   1.019
  519HOH     H2 1745   1.786   3.036   1.107
  520HOH      O 1746   0.776   1.169   1.658
  520HOH     H1 1747   0.780   1.107   1.586
  520HOH     H2 1748   0.815   1.249   1.622
  521HOH      O 1749   1.529   1.978   2.475
  521HOH     H1 1750   1.603   1.934   2.518
  521HOH     H2 1751   1.570   2.032   2.408
  522HOH      O 1752   4.024   1.874   2.971
  522HOH     H1 1753   4.018   1.789   2.927
  522HOH     H2 1754   3.934   1.899   2.989
  523HOH      O 1755   2.807   0.705   3.738
  523HOH     H1 1756   2.805   0.784   3.683
  523HOH     H2 1757   2.795   0.633   3.677
  524HOH      O 1758   2.122   0.011   3.962
  524HOH     H1 1759   2.105   0.085   4.022
  524HOH     H2 1760   2.108   0.048   3.875
  525HOH      O 1761   1.695   1.290   0.022
  525HOH     H1 1762   1.662   1.311  -0.066
  525HOH     H2 1763   1.704   1.375   0.065
  526HOH      O 1764   2.342   2.542   2.665
  526HOH     H1 1765   2.359   2.635   2.680
  526HOH     H2 1766   2.285   2.516   2.736
  527HOH      O 1767   1.523   2.573   0.476
  527HOH     H1 1768   1.607   2.585   0.433
  527HOH     H2 1769   1.534   2.615   0.562
  528HOH      O 1770   1.597   0.403   3.943
  528HOH     H1 1771   1.506   0.382   3.965
  528HOH     H2 1772   1.648   0.333   3.984
  529HOH      O 1773   2.601   1.167   3.088
  529HOH     H1 1774   2.562   1.237   3.035
  529HOH     H2 1775   2.691   1.161   3.058
  530HOH      O 1776   0.681   3.398   0.152
  530HOH     H1 1777   0.626   3.441   0.087
  530HOH     H2 1778   0.694   3.310   0.117
  531HOH      O 1779   3.373   3.228   2.358
  531HOH     H1 1780   3.279   3.244   2.364
  531HOH     H2 1781   3.396   3.185   2.440
  532HOH      O 1782   1.470   1.899   0.208
  532HOH     H1 1783   1.467   1.834   0.138
  532HOH     H2 1784   1.380   1.904   0.240
  533HOH      O 1785   3.157   2.483   0.781
  533HOH     H1 1786   3.162   2.410   0.720
  533HOH     H2 1787   3.111   2.552   0.732
  534HOH      O 1788   3.136   2.246   3.267
  534HOH     H1 1789   3.095   2.208   3.345
  534HOH     H2 1790   3.224   2.271   3.295
  535HOH      O 1791   1.034   3.112   0.828
  535HOH     H1 1792   0.991   3.137   0.746
  535HOH     H2 1793   0.975   3.049   0.868
  536HOH      O 1794   0.693   0.410   1.130
  536HOH     H1 1795   0.693   0.442   1.220
  536HOH     H2 1796   0.611   0.361   1.122
  537HOH      O 1797   2.954   2.763   3.259
  537HOH     H1 1798   2.868   2.737   3.293
  537HOH     H2 1799   2.972   2.701   3.188
  538HOH      O 1800   3.917   1.698   0.324
  538HOH     H1 1801   3.950   1.613   0.295
  538HOH     H2 1802   3.831   1.706   0.283
  539HOH      O 1803   1.955   3.087   1.593
  539HOH     H1 1804   1.961   3.160   1.655
  539HOH     H2 1805   1.927   3.128   1.511
  540HOH      O 1806   0.593   2.837   2.914
  540HOH     H1 1807   0.612   2.921   2.955
  540HOH     H2 1808   0.507   2.813   2.948
  541HOH      O 1809   3.398   2.484   1.603
  541HOH     H1 1810   3.460   2.512   1.536
  541HOH     H2 1811   3.337   2.428   1.556
  542HOH      O 1812   2.689   1.303   1.709
  542HOH     H1 1813   2.785   1.303   1.709
  542HOH     H2 1814   2.665   1.214   1.735
  543HOH      O 1815   3.490   3.948   3.403
  543HOH     H1 1816   3.407   3.931   3.358
  543HOH     H2 1817   3.477   3.914   3.491
  544HOH      O 1818   2.981   1.277   1.028
  544HOH     H1 1819   2.909   1.334   1.055
  544HOH     H2 1820   3.046   1.337   0.992
  545HOH      O 1821   1.200   1.375   3.676
  545HOH     H1 1822   1.148   1.331   3.743
  545HOH     H2 1823   1.290   1.372   3.711
  546HOH      O 1824   3.315   3.675   0.792
  546HOH     H1 1825   3.260   3.753   0.797
  546HOH     H2 1826   3.295   3.627   0.873
  547HOH      O 1827   3.206   0.276   3.891
  547HOH     H1 1828   3.234   0.320   3.971
  547HOH     H2 1829   3.114   0.253   3.907
  548HOH      O 1830   2.033   2.440   3.391
  548HOH     H1 1831   2.077   2.522   3.416
  548HOH     H2 1832   1.984   2.463   3.312
  549HOH      O 1833   0.606   0.080   1.500
  549HOH     H1 1834   0.676   0.103   1.560
  549HOH     H2 1835   0.650   0.044   1.424
  550HOH      O 1836   3.929   1.283   2.759
  550HOH     H1 1837   3.849   1.293   2.811
  550HOH     H2 1838   3.957   1.193   2.775
  551HOH      O 1839   1.838   3.474   0.463
  551HOH     H1 1840   1.909   3.527   0.499
  551HOH     H2 1841   1.763   3.493   0.519
  552HOH      O 1842   2.930   1.698   0.974
  552HOH     H1 1843   2.883   1.651   1.042
  552HOH     H2 1844   3.006   1.643   0.954
  553HOH      O 1845   1.320   0.749   2.635
  553HOH     H1 1846   1.332   0.718   2.545
  553HOH     H2 1847   1.309   0.844   2.626
  554HOH      O 1848   2.441   2.828   1.207
  554HOH     H1 1849   2.520   2.776   1.215
  554HOH     H2 1850   2.392   2.786   1.136
  555HOH      O 1851   3.476   1.678   1.718
  555HOH     H1 1852   3.445   1.690   1.808
  555HOH     H2 1853   3.565   1.713   1.719
  556HOH      O 1854   3.918   2.170   1.527
  556HOH     H1 1855   3.979   2.232   1.485
  556HOH     H2 1856   3.960   2.150   1.611
  557HOH      O 1857   1.705   3.745   2.413
  557HOH     H1 1858   1.610   3.760   2.411
  557HOH     H2 1859   1.722   3.710   2.501
  558HOH      O 1860   2.362   0.722   0.214
  558HOH     H1 1861   2.380   0.795   0.154
  558HOH     H2 1862   2.399   0.750   0.298
  559HOH      O 1863   0.574   3.096   3.776
  559HOH     H1 1864   0.481   3.093   3.800
  559HOH     H2 1865   0.620   3.116   3.858
  560HOH      O 1866   3.221   3.971   1.648
  560HOH     H1 1867   3.218   3.956   1.553
  560HOH     H2 1868   3.183   3.892   1.686
  561HOH      O 1869   0.853   3.397   3.862
  561HOH     H1 1870   0.880   3.314   3.902
  561HOH     H2 1871   0.826   3.373   3.773
  562HOH      O 1872   0.752   2.527   3.502
  562HOH     H1 1873   0.751   2.622   3.516
  562HOH     H2 1874   0.717   2.490   3.583
  563HOH      O 1875   3.610   1.402   4.032
  563HOH     H1 1876   3.610   1.394   3.937
  563HOH     H2 1877   3.517   1.408   4.056
  564HOH      O 1878   3.771   3.239   0.578
  564HOH     H1 1879   3.752   3.327   0.612
  564HOH     H2 1880   3.689   3.192   0.589
  565HOH      O 1881   2.315   2.005   2.030
  565HOH     H1 1882   2.299   1.991   2.124
  565HOH     H2 1883   2.386   2.070   2.028
  566HOH      O 1884   0.729   3.328   2.183
  566HOH     H1 1885   0.642   3.290   2.193
  566HOH     H2 1886   0.714   3.422   2.177
  567HOH      O 1887   1.924   2.786   2.743
  567HOH     H1 1888   1.929   2.750   2.654
  567HOH     H2 1889   1.842   2.835   2.743
  568HOH      O 1890   2.832   0.876   1.278
  568HOH     H1 1891   2.889   0.922   1.216
  568HOH     H2 1892   2.889   0.858   1.353
  569HOH      O 1893   1.517   3.763   3.694
  569HOH     H1 1894   1.589   3.719   3.739
  569HOH     H2 1895   1.443   3.757   3.755
  570HOH      O 1896   1.829   0.585   1.954
  570HOH     H1 1897   1.870   0.637   1.885
  570HOH     H2 1898   1.806   0.502   1.911
  571HOH      O 1899   2.312   0.499   1.892
  571HOH     H1 1900   2.377   0.450   1.842
  571HOH     H2 1901   2.342   0.589   1.889
  572HOH      O 1902   3.755   3.763   0.606
  572HOH     H1 1903   3.826   3.810   0.648
  572HOH     H2 1904   3.769   3.776   0.512
  573HOH      O 1905   3.445   2.241   3.699
  573HOH     H1 1906   3.516   2.182   3.675
  573HOH     H2 1907   3.476   2.327   3.671
  574HOH      O 1908   3.180   0.614   3.584
  574HOH     H1 1909   3.209   0.561   3.658
  574HOH     H2 1910   3.244   0.596   3.515
  575HOH      O 1911   0.090   0.010   1.741
  575HOH     H1 1912   0.004   0.035   1.708
  575HOH     H2 1913   0.110   0.075   1.808
  576HOH      O 1914   0.387   3.802   0.853
  576HOH     H1 1915   0.411   3.794   0.760
  576HOH     H2 1916   0.440   3.735   0.897
  577HOH      O 1917   1.207   0.228   1.078
  577HOH     H1 1918   1.122   0.194   1.050
  577HOH     H2 1919   1.186   0.304   1.133
  578HOH      O 1920   0.564   2.421   3.707
  578HOH     H1 1921   0.572   2.352   3.773
  578HOH     H2 1922   0.551   2.501   3.758
  579HOH      O 1923   1.579   3.059   1.666
  579HOH     H1 1924   1.603   2.971   1.696
  579HOH     H2 1925   1.653   3.087   1.613
  580HOH      O 1926   1.966   3.627   3.409
  580HOH     H1 1927   2.011   3.712   3.410
  580HOH     H2 1928   2.036   3.563   3.405
  581HOH      O 1929   3.179   3.173   0.640
  581HOH     H1 1930   3.090   3.183   0.606
  581HOH     H2 1931   3.199   3.080   0.627
  582HOH      O 1932   1.355   1.962   0.584
  582HOH     H1 1933   1.390   2.046   0.613
  582HOH     H2 1934   1.333   1.915   0.664
  583HOH      O 1935   0.584   3.437   3.329
  583HOH     H1 1936   0.529   3.514   3.341
  583HOH     H2 1937   0.649   3.443   3.399
  584HOH      O 1938   3.564   2.177   1.983
  584HOH     H1 1939   3.638   2.207   1.929
  584HOH     H2 1940   3.487   2.194   1.928
  585HOH      O 1941   2.073   3.069   3.077
  585HOH     H1 1942   2.093   3.033   2.990
  585HOH     H2 1943   2.145   3.130   3.094
  586HOH      O 1944   3.153   2.897   3.391
  586HOH     H1 1945   3.092   2.833   3.354
  586HOH     H2 1946   3.108   2.981   3.382
  587HOH      O 1947   0.848   1.397   2.538
  587HOH     H1 1948   0.852   1.316   2.487
  587HOH     H2 1949   0.774   1.445   2.501
  588HOH      O 1950   2.829   1.279   0.758
  588HOH     H1 1951   2.800   1.286   0.849
  588HOH     H2 1952   2.756   1.236   0.713
  589HOH      O 1953   2.258   2.025   2.308
  589HOH     H1 1954   2.191   2.035   2.375
  589HOH     H2 1955   2.315   2.102   2.319
  590HOH      O 1956   1.862   1.056   2.979
  590HOH     H1 1957   1.950   1.028   2.954
  590HOH     H2 1958   1.819   0.976   3.010
  591HOH      O 1959   1.235   0.262   2.108
  591HOH     H1 1960   1.274   0.245   2.023
  591HOH     H2 1961   1.176   0.188   2.123
  592HOH      O 1962   2.290   3.288   3.636
  592HOH     H1 1963   2.240   3.271   3.556
  592HOH     H2 1964   2.375   3.247   3.621
  593HOH      O 1965   2.306   1.577   2.733
  593HOH     H1 1966   2.315   1.547   2.643
  593HOH     H2 1967   2.283   1.670   2.726
  594HOH      O 1968   0.264   3.656   2.045
  594HOH     H1 1969   0.316   3.585   2.008
  594HOH     H2 1970   0.277   3.729   1.984
  595HOH      O 1971   0.964   3.310   3.573
  595HOH     H1 1972   1.034   3.259   3.531
  595HOH     H2 1973   0.884   3.267   3.544
  596HOH      O 1974   2.151   2.734   0.130
  596HOH     H1 1975   2.067   2.729   0.083
  596HOH     H2 1976   2.150   2.658   0.188
  597HOH      O 1977   2.698   1.842   3.801
  597HOH     H1 1978   2.643   1.905   3.847
  597HOH     H2 1979   2.654   1.827   3.718
  598HOH      O 1980   0.234   0.691   1.445
  598HOH     H1 1981   0.284   0.643   1.511
  598HOH     H2 1982   0.174   0.627   1.409
  599HOH      O 1983   0.891   2.930   3.780
  599HOH     H1 1984   0.855   2.890   3.860
  599HOH     H2 1985   0.943   3.003   3.811
  600HOH      O 1986   2.271   2.576   1.673
  600HOH     H1 1987   2.356   2.606   1.642
  600HOH     H2 1988   2.215   2.579   1.595
  601HOH      O 1989   0.239   2.188   2.633
  601HOH     H1 1990   0.152   2.199   2.596
  601HOH     H2 1991   0.226   2.131   2.709
  602HOH      O 1992   0.025   0.238   0.330
  602HOH     H1 1993   0.058   0.194   0.251
  602HOH     H2 1994  -0.069   0.244   0.316
  603HOH      O 1995   1.429   2.408   3.808
  603HOH     H1 1996   1.406   2.451   3.891
  603HOH     H2 1997   1.344   2.388   3.768
  604HOH      O 1998   2.044   0.844   0.228
  604HOH     H1 1999   2.011   0.755   0.212
  604HOH     H2 2000   2.071   0.875   0.141
  605HOH      O 2001   3.415   0.190   2.591
  605HOH     H1 2002   3.436   0.149   2.675
  605HOH     H2 2003   3.494   0.178   2.539
  606HOH      O 2004   0.475   1.704   3.528
  606HOH     H1 2005   0.488   1.798   3.517
  606HOH     H2 2006   0.556   1.664   3.497
  607HOH      O 2007   3.853   2.996   3.904
  607HOH     H1 2008   3.790   2.949   3.959
  607HOH     H2 2009   3.799   3.050   3.846
  608HOH      O 2010   2.962   0.267   1.004
  608HOH     H1 2011   2.952   0.210   1.080
  608HOH     H2 2012   2.875   0.302   0.988
  609HOH      O 2013   2.134   2.482   1.124
  609HOH     H1 2014   2.093   2.400   1.153
  609HOH     H2 2015   2.228   2.466   1.132
  610HOH      O 2016   3.128   3.316   1.993
  610HOH     H1 2017   3.054   3.305   2.052
  610HOH     H2 2018   3.088   3.342   1.909
  611HOH      O 2019   0.562   1.956   3.410
  611HOH     H1 2020   0.470   1.981   3.406
  611HOH     H2 2021   0.596   1.976   3.323
  612HOH      O 2022   3.915   3.912   1.414
  612HOH     H1 2023   3.827   3.877   1.402
  612HOH     H2 2024   3.941   3.884   1.502
  613HOH      O 2025   0.796   1.771   1.759
  613HOH     H1 2026   0.784   1.822   1.839
  613HOH     H2 2027   0.891   1.759   1.752
  614HOH      O 2028   1.620   2.670   2.556
  614HOH     H1 2029   1.670   2.598   2.518
  614HOH     H2 2030   1.633   2.660   2.650
  615HOH      O 2031   3.539   1.572   3.465
  615HOH     H1 2032   3.530   1.483   3.430
  615HOH     H2 2033   3.457   1.615   3.439
  616HOH      O 2034   3.923   3.267   3.376
  616HOH     H1 2035   4.004   3.308   3.406
  616HOH     H2 2036   3.944   3.231   3.290
  617HOH      O 2037   3.784   2.203   3.955
  617HOH     H1 2038   3.874   2.191   3.984
  617HOH     H2 2039   3.750   2.272   4.012
  618HOH      O 2040   4.015   2.848   0.230
  618HOH     H1 2041   3.998   2.796   0.308
  618HOH     H2 2042   3.932   2.847   0.182
  619HOH      O 2043   3.227   0.838   0.931
  619HOH     H1 2044   3.308   0.802   0.966
  619HOH     H2 2045   3.165   0.765   0.934
  620HOH      O 2046   2.373   2.227   2.612
  620HOH     H1 2047   2.438   2.211   2.681
  620HOH     H2 2048   2.361   2.322   2.611
  621HOH      O 2049   0.847   3.774   0.166
  621HOH     H1 2050   0.893   3.712   0.109
  621HOH     H2 2051   0.890   3.764   0.251
  622HOH      O 2052   1.125   0.121   3.483
  622HOH     H1 2053   1.070   0.071   3.423
  622HOH     H2 2054   1.131   0.208   3.442
  623HOH      O 2055   0.230   1.937   2.840
  623HOH     H1 2056   0.157   1.944   2.901
  623HOH     H2 2057   0.189   1.912   2.757
  624HOH      O 2058   1.334   2.342   0.707
  624HOH     H1 2059   1.291   2.315   0.626
  624HOH     H2 2060   1.427   2.333   0.690
  625HOH      O 2061   1.012   2.641   1.637
  625HOH     H1 2062   0.940   2.698   1.611
  625HOH     H2 2063   1.087   2.699   1.649
  626HOH      O 2064   1.664   3.196   0.355
  626HOH     H1 2065   1.669   3.265   0.289
  626HOH     H2 2066   1.590   3.221   0.409
  627HOH      O 2067   2.799   0.292   0.718
  627HOH     H1 2068   2.784   0.383   0.742
  627HOH     H2 2069   2.884   0.271   0.759
  628HOH      O 2070   1.076   0.020   3.771
  628HOH     H1 2071   1.079   0.067   3.688
  628HOH     H2 2072   0.987  -0.014   3.777
  629HOH      O 2073   0.787   1.782   3.459
  629HOH     H1 2074   0.731   1.859   3.449
  629HOH     H2 2075   0.873   1.811   3.430
  630HOH      O 2076   0.153   3.782   3.849
  630HOH     H1 2077   0.147   3.773   3.753
  630HOH     H2 2078   0.247   3.782   3.866
  631HOH      O 2079   2.896   1.019   1.869
  631HOH     H1 2080   2.973   0.985   1.916
  631HOH     H2 2081   2.925   1.103   1.834
  632HOH      O 2082   2.544   1.422   3.010
  632HOH     H1 2083   2.608   1.448   2.944
  632HOH     H2 2084   2.460   1.422   2.964
  633HOH      O 2085   2.885   3.665   1.221
  633HOH     H1 2086   2.898   3.574   1.247
  633HOH     H2 2087   2.859   3.660   1.129
  634HOH      O 2088   2.567   1.997  -0.031
  634HOH     H1 2089   2.532   1.946   0.042
  634HOH     H2 2090   2.654   2.024  -0.003
  635HOH      O 2091   3.079   0.720   2.024
  635HOH     H1 2092   3.157   0.765   1.993
  635HOH     H2 2093   3.062   0.652   1.959
  636HOH      O 2094   3.774   2.455   2.929
  636HOH     H1 2095   3.778   2.428   2.837
  636HOH     H2 2096   3.689   2.498   2.938
  637HOH      O 2097   3.796   1.024   3.143
  637HOH     H1 2098   3.755   1.100   3.102
  637HOH     H2 2099   3.764   1.025   3.233
  638HOH      O 2100   0.416   0.106   3.515
  638HOH     H1 2101   0.476   0.175   3.542
  638HOH     H2 2102   0.398   0.056   3.595
  639HOH      O 2103   2.974   1.010   1.104
  639HOH     H1 2104   2.975   1.104   1.089
  639HOH     H2 2105   2.957   0.972   1.018
  640HOH      O 2106   3.282   0.196   1.122
  640HOH     H1 2107   3.216   0.261   1.096
  640HOH     H2 2108   3.359   0.248   1.145
  641HOH      O 2109   0.151   2.277   2.241
  641HOH     H1 2110   0.061   2.292   2.210
  641HOH     H2 2111   0.187   2.216   2.177
  642HOH      O 2112   0.788   1.048   3.709
  642HOH     H1 2113   0.697   1.031   3.734
  642HOH     H2 2114   0.782   1.117   3.644
  643HOH      O 2115   2.568   1.297   2.641
  643HOH     H1 2116   2.564   1.261   2.553
  643HOH     H2 2117   2.570   1.392   2.628
  644HOH      O 2118   1.763   2.366   3.941
  644HOH     H1 2119   1.797   2.399   4.024
  644HOH     H2 2120   1.686   2.315   3.964
  645HOH      O 2121   0.474   0.311   1.640
  645HOH     H1 2122   0.483   0.237   1.579
  645HOH     H2 2123   0.446   0.271   1.722
  646HOH      O 2124   3.728   3.136   3.658
  646HOH     H1 2125   3.739   3.231   3.658
  646HOH     H2 2126   3.667   3.120   3.587
  647HOH      O 2127   1.294   1.361   1.934
  647HOH     H1 2128   1.321   1.403   2.015
  647HOH     H2 2129   1.199   1.347   1.945
  648HOH      O 2130   0.839   0.549   0.938
  648HOH     H1 2131   0.889   0.626   0.965
  648HOH     H2 2132   0.806   0.512   1.020
  649HOH      O 2133   0.480   2.348   3.420
  649HOH     H1 2134   0.529   2.425   3.392
  649HOH     H2 2135   0.466   2.361   3.514
  650HOH      O 2136   1.740   0.353   2.597
  650HOH     H1 2137   1.780   0.419   2.653
  650HOH     H2 2138   1.786   0.362   2.513
  651HOH      O 2139   0.877   1.670   0.434
  651HOH     H1 2140   0.830   1.587   0.444
  651HOH     H2 2141   0.966   1.643   0.411
  652HOH      O 2142   1.251   2.901   0.901
  652HOH     H1 2143   1.195   2.928   0.828
  652HOH     H2 2144   1.194   2.908   0.978
  653HOH      O 2145   0.343   2.179   0.980
  653HOH     H1 2146   0.254   2.181   1.014
  653HOH     H2 2147   0.340   2.117   0.907
  654HOH      O 2148   1.189   1.261   3.070
  654HOH     H1 2149   1.155   1.283   3.157
  654HOH     H2 2150   1.111   1.234   3.021
  655HOH      O 2151   2.760   2.850   1.534
  655HOH     H1 2152   2.832   2.873   1.475
  655HOH     H2 2153   2.803   2.816   1.613
  656HOH      O 2154   1.302   0.995   1.381
  656HOH     H1 2155   1.347   0.958   1.456
  656HOH     H2 2156   1.315   1.089   1.388
  657HOH      O 2157   1.822   2.056   3.944
  657HOH     H1 2158   1.805   1.962   3.953
  657HOH     H2 2159   1.791   2.095   4.025
  658HOH      O 2160   2.580   2.122   2.782
  658HOH     H1 2161   2.610   2.114   2.872
  658HOH     H2 2162   2.623   2.051   2.735
  659HOH      O 2163   2.571   0.634   2.711
  659HOH     H1 2164   2.596   0.697   2.643
  659HOH     H2 2165   2.490   0.669   2.748
  660HOH      O 2166   3.671   1.180   1.221
  660HOH     H1 2167   3.697   1.272   1.220
  660HOH     H2 2168   3.607   1.174   1.292
  661HOH      O 2169   1.090   1.923   0.811
  661HOH     H1 2170   1.116   1.831   0.816
  661HOH     H2 2171   1.093   1.953   0.902
  662HOH      O 2172   3.076   1.909   1.789
  662HOH     H1 2173   2.981   1.905   1.782
  662HOH     H2 2174   3.100   1.993   1.749
  663HOH      O 2175   1.444   0.357   1.307
  663HOH     H1 2176   1.422   0.274   1.349
  663HOH     H2 2177   1.537   0.348   1.283
  664HOH      O 2178   1.439   1.123   3.247
  664HOH     H1 2179   1.345   1.140   3.244
  664HOH     H2 2180   1.474   1.169   3.171
  665HOH      O 2181   1.131   3.887   1.928
  665HOH     H1 2182   1.173   3.809   1.965
  665HOH     H2 2183   1.113   3.864   1.837
  666HOH      O 2184   3.828   3.601   3.949
  666HOH     H1 2185   3.787   3.515   3.946
  666HOH     H2 2186   3.876   3.608   3.866
  667HOH      O 2187   0.104   3.466   3.083
  667HOH     H1 2188   0.022   3.501   3.049
  667HOH     H2 2189   0.087   3.373   3.097
  668HOH      O 2190   2.439   1.049   1.533
  668HOH     H1 2191   2.415   0.999   1.611
  668HOH     H2 2192   2.480   0.984   1.475
  669HOH      O 2193   2.216   0.319   0.649
  669HOH     H1 2194   2.134   0.283   0.613
  669HOH     H2 2195   2.284   0.286   0.590
  670HOH      O 2196   2.357   0.734   2.834
  670HOH     H1 2197   2.291   0.787   2.788
  670HOH     H2 2198   2.418   0.799   2.870
  671HOH      O 2199   0.215   3.214   1.589
  671HOH     H1 2200   0.210   3.143   1.653
  671HOH     H2 2201   0.296   3.195   1.540
  672HOH      O 2202   0.690   0.006   0.491
  672HOH     H1 2203   0.625   0.066   0.528
  672HOH     H2 2204   0.773   0.051   0.503
  673HOH      O 2205   3.274   3.120   1.246
  673HOH     H1 2206   3.190   3.125   1.292
  673HOH     H2 2207   3.251   3.088   1.159
  674HOH      O 2208   2.183   0.035   0.814
  674HOH     H1 2209   2.277   0.041   0.801
  674HOH     H2 2210   2.164   0.098   0.884
  675HOH      O 2211   2.143   3.817   3.370
  675HOH     H1 2212   2.209   3.872   3.412
  675HOH     H2 2213   2.192   3.767   3.304
  676HOH      O 2214   0.103   0.613   1.019
  676HOH     H1 2215   0.012   0.641   1.024
  676HOH     H2 2216   0.152   0.680   1.067
  677HOH      O 2217   1.007   3.237   0.346
  677HOH     H1 2218   0.995   3.329   0.320
  677HOH     H2 2219   1.101   3.221   0.331
  678HOH      O 2220   0.609   1.793   2.045
  678HOH     H1 2221   0.638   1.705   2.069
  678HOH     H2 2222   0.691   1.839   2.025
  679HOH      O 2223   3.906   1.821   0.990
  679HOH     H1 2224   3.818   1.786   0.977
  679HOH     H2 2225   3.964   1.756   0.950
  680HOH      O 2226   2.297   1.852   2.803
  680HOH     H1 2227   2.316   1.922   2.866
  680HOH     H2 2228   2.255   1.896   2.729
  681HOH      O 2229   1.487   0.249   2.526
  681HOH     H1 2230   1.571   0.285   2.555
  681HOH     H2 2231   1.465   0.183   2.591
  682HOH      O 2232   3.691   2.317   3.493
  682HOH     H1 2233   3.757   2.362   3.545
  682HOH     H2 2234   3.679   2.232   3.536
  683HOH      O 2235   1.055   0.859   1.618
  683HOH     H1 2236   0.965   0.838   1.645
  683HOH     H2 2237   1.049   0.866   1.523
  684HOH      O 2238   0.616   0.684   0.190
  684HOH     H1 2239   0.608   0.701   0.283
  684HOH     H2 2240   0.560   0.608   0.174
  685HOH      O 2241   1.858   3.654   3.107
  685HOH     H1 2242   1.781   3.651   3.051
  685HOH     H2 2243   1.823   3.659   3.196
  686HOH      O 2244   0.805   1.291   1.085
  686HOH     H1 2245   0.778   1.322   1.171
  686HOH     H2 2246   0.886   1.242   1.102
  687HOH      O 2247   0.012   3.627   1.924
  687HOH     H1 2248   0.091   3.579   1.946
  687HOH     H2 2249   0.016   3.639   1.829
  688HOH      O 2250   1.823   0.558   1.485
  688HOH     H1 2251   1.758   0.557   1.555
  688HOH     H2 2252   1.827   0.467   1.455
  689HOH      O 2253   3.599   1.488   2.785
  689HOH     H1 2254   3.515   1.474   2.829
  689HOH     H2 2255   3.585   1.459   2.695
  690HOH      O 2256   2.129   0.931   3.638
  690HOH     H1 2257   2.133   0.848   3.589
  690HOH     H2 2258   2.040   0.963   3.623
  691HOH      O 2259   2.182   0.529   1.209
  691HOH     H1 2260   2.092   0.560   1.216
  691HOH     H2 2261   2.218   0.540   1.297
  692HOH      O 2262   0.452   3.848   3.516
  692HOH     H1 2263   0.504   3.922   3.484
  692HOH     H2 2264   0.490   3.827   3.601
  693HOH      O 2265   3.909   1.830   1.861
  693HOH     H1 2266   3.901   1.753   1.804
  693HOH     H2 2267   3.847   1.893   1.824
  694HOH      O 2268   1.395   3.484   0.212
  694HOH     H1 2269   1.404   3.450   0.301
  694HOH     H2 2270   1.357   3.411   0.163
  695HOH      O 2271   1.985   2.370   3.653
  695HOH     H1 2272   2.011   2.388   3.563
  695HOH     H2 2273   2.063   2.332   3.694
  696HOH      O 2274   3.236   2.612   1.916
  696HOH     H1 2275   3.149   2.573   1.908
  696HOH     H2 2276   3.255   2.608   2.010
  697HOH      O 2277   3.324   2.337   2.667
  697HOH     H1 2278   3.328   2.341   2.763
  697HOH     H2 2279   3.302   2.245   2.648
  698HOH      O 2280   1.888   0.819   0.764
  698HOH     H1 2281   1.880   0.725   0.782
  698HOH     H2 2282   1.890   0.824   0.668
  699HOH      O 2283   3.072   1.607   3.947
  699HOH     H1 2284   3.063   1.526   3.896
  699HOH     H2 2285   3.163   1.632   3.936
  700HOH      O 2286   2.583   2.061   0.504
  700HOH     H1 2287   2.672   2.029   0.493
  700HOH     H2 2288   2.574   2.074   0.599
  701HOH      O 2289   1.671   3.828   2.053
  701HOH     H1 2290   1.604   3.897   2.046
  701HOH     H2 2291   1.712   3.826   1.966
  702HOH      O 2292   3.651   0.128   1.323
  702HOH     H1 2293   3.560   0.154   1.309
  702HOH     H2 2294   3.658   0.113   1.417
  703HOH      O 2295   2.839   0.448   3.588
  703HOH     H1 2296   2.766   0.456   3.526
  703HOH     H2 2297   2.811   0.380   3.650
  704HOH      O 2298   2.322   2.517   3.994
  704HOH     H1 2299   2.313   2.422   3.996
  704HOH     H2 2300   2.349   2.541   4.083
  705HOH      O 2301   3.526   1.665   2.118
  705HOH     H1 2302   3.520   1.758   2.096
  705HOH     H2 2303   3.620   1.647   2.122
  706HOH      O 2304   0.716   2.623   0.765
  706HOH     H1 2305   0.727   2.573   0.684
  706HOH     H2 2306   0.805   2.634   0.798
  707HOH      O 2307   0.843   3.815   2.077
  707HOH     H1 2308   0.843   3.869   2.156
  707HOH     H2 2309   0.931   3.779   2.072
  708HOH      O 2310   0.521   1.283   3.797
  708HOH     H1 2311   0.547   1.211   3.738
  708HOH     H2 2312   0.480   1.239   3.871
  709HOH      O 2313   2.006   1.403   3.068
  709HOH     H1 2314   1.930   1.355   3.100
  709HOH     H2 2315   1.970   1.465   3.004
  710HOH      O 2316   0.702   1.525   2.017
  710HOH     H1 2317   0.797   1.519   2.017
  710HOH     H2 2318   0.672   1.435   2.001
  711HOH      O 2319   2.468   3.859   3.041
  711HOH     H1 2320   2.519   3.813   2.974
  711HOH     H2 2321   2.447   3.792   3.106
  712HOH      O 2322   0.896   1.861   0.023
  712HOH     H1 2323   0.900   1.893   0.113
  712HOH     H2 2324   0.808   1.886  -0.007
  713HOH      O 2325   1.644   0.737   3.681
  713HOH     H1 2326   1.562   0.785   3.672
  713HOH     H2 2327   1.698   0.767   3.608
  714HOH      O 2328   3.231   0.223   3.270
  714HOH     H1 2329   3.185   0.259   3.346
  714HOH     H2 2330   3.260   0.136   3.299
  715HOH      O 2331   0.996   2.856   2.010
  715HOH     H1 2332   1.082   2.828   1.981
  715HOH     H2 2333   0.947   2.871   1.929
  716HOH      O 2334   2.675   2.908   0.232
  716HOH     H1 2335   2.623   2.836   0.268
  716HOH     H2 2336   2.762   2.896   0.270
  717HOH      O 2337   2.184   0.705   2.234
  717HOH     H1 2338   2.245   0.701   2.161
  717HOH     H2 2339   2.224   0.652   2.303
  718HOH      O 2340   0.598   2.558   3.276
  718HOH     H1 2341   0.649   2.585   3.199
  718HOH     H2 2342   0.663   2.543   3.344
  719HOH      O 2343   1.216   1.987   2.923
  719HOH     H1 2344   1.223   1.988   2.827
  719HOH     H2 2345   1.291   1.935   2.952
  720HOH      O 2346   2.394   2.761   3.772
  720HOH     H1 2347   2.481   2.726   3.789
  720HOH     H2 2348   2.338   2.683   3.763
  721HOH      O 2349   1.071   2.831   2.966
  721HOH     H1 2350   1.065   2.819   3.061
  721HOH     H2 2351   1.081   2.743   2.931
  722HOH      O 2352   1.159   3.978   1.160
  722HOH     H1 2353   1.189   4.066   1.140
  722HOH     H2 2354   1.097   3.957   1.090
  723HOH      O 2355   2.247   1.502   2.154
  723HOH     H1 2356   2.319   1.562   2.134
  723HOH     H2 2357   2.287   1.416   2.154
  724HOH      O 2358   1.205   1.746   2.519
  724HOH     H1 2359   1.124   1.796   2.514
  724HOH     H2 2360   1.178   1.655   2.509
  725HOH      O 2361   1.883   0.536   3.945
  725HOH     H1 2362   1.813   0.569   3.888
  725HOH     H2 2363   1.914   0.457   3.900
  726HOH      O 2364   0.851   0.416   3.554
  726HOH     H1 2365   0.866   0.483   3.487
  726HOH     H2 2366   0.914   0.438   3.623
  727HOH      O 2367   3.157   3.518   0.349
  727HOH     H1 2368   3.190   3.608   0.350
  727HOH     H2 2369   3.138   3.498   0.441
  728HOH      O 2370   3.892   1.594   3.562
  728HOH     H1 2371   3.984   1.604   3.585
  728HOH     H2 2372   3.890   1.601   3.467
  729HOH      O 2373   2.868   0.915   0.859
  729HOH     H1 2374   2.951   0.908   0.813
  729HOH     H2 2375   2.826   0.993   0.823
  730HOH      O 2376   0.226   0.289   2.295
  730HOH     H1 2377   0.201   0.198   2.275
  730HOH     H2 2378   0.211   0.297   2.389
  731HOH      O 2379   1.868   2.693   3.605
  731HOH     H1 2380   1.789   2.719   3.558
  731HOH     H2 2381   1.934   2.759   3.582
  732HOH      O 2382   3.932   3.224   1.791
  732HOH     H1 2383   3.863   3.255   1.849
  732HOH     H2 2384   3.948   3.296   1.730
  733HOH      O 2385   2.636   3.320   2.331
  733HOH     H1 2386   2.658   3.246   2.388
  733HOH     H2 2387   2.550   3.299   2.296
  734HOH      O 2388   0.992   2.567   3.625
  734HOH     H1 2389   1.037   2.637   3.578
  734HOH     H2 2390   0.904   2.564   3.586
  735HOH      O 2391   2.940   2.264   0.370
  735HOH     H1 2392   2.962   2.211   0.447
  735HOH     H2 2393   2.908   2.201   0.305
  736HOH      O 2394   2.078   1.727   3.236
  736HOH     H1 2395   2.103   1.806   3.188
  736HOH     H2 2396   2.065   1.661   3.169
  737HOH      O 2397   3.721   0.653   2.208
  737HOH     H1 2398   3.641   0.653   2.155
  737HOH     H2 2399   3.732   0.562   2.233
  738HOH      O 2400   2.576   4.009   2.179
  738HOH     H1 2401   2.660   4.007   2.225
  738HOH     H2 2402   2.544   3.919   2.185
  739HOH      O 2403   0.048   1.480   1.155
  739HOH     H1 2404   0.078   1.558   1.203
  739HOH     H2 2405   0.001   1.429   1.221
  740HOH      O 2406   1.936   0.210   1.099
  740HOH     H1 2407   1.958   0.280   1.160
  740HOH     H2 2408   1.974   0.238   1.015
  741HOH      O 2409   2.486   2.262   2.042
  741HOH     H1 2410   2.493   2.275   2.136
  741HOH     H2 2411   2.431   2.335   2.012
  742HOH      O 2412   3.497   3.425   2.826
  742HOH     H1 2413   3.573   3.409   2.769
  742HOH     H2 2414   3.475   3.339   2.861
  743HOH      O 2415   1.263   1.304   0.045
  743HOH     H1 2416   1.280   1.391   0.081
  743HOH     H2 2417   1.183   1.275   0.089
  744HOH      O 2418   3.029   2.604   2.369
  744HOH     H1 2419   2.984   2.617   2.452
  744HOH     H2 2420   3.056   2.692   2.342
  745HOH      O 2421   2.304   0.254   2.131
  745HOH     H1 2422   2.277   0.170   2.096
  745HOH     H2 2423   2.243   0.317   2.092
  746HOH      O 2424   3.670   0.044   1.587
  746HOH     H1 2425   3.748   0.053   1.640
  746HOH     H2 2426   3.645  -0.048   1.596
  747HOH      O 2427   3.012   0.808   1.470
  747HOH     H1 2428   3.033   0.717   1.447
  747HOH     H2 2429   3.069   0.828   1.544
  748HOH      O 2430   1.997   1.007   0.468
  748HOH     H1 2431   1.967   0.919   0.445
  748HOH     H2 2432   1.993   1.055   0.385
  749HOH      O 2433   0.464   3.380  -0.006
  749HOH     H1 2434   0.415   3.354   0.073
  749HOH     H2 2435   0.469   3.300  -0.058
  750HOH      O 2436   2.571   1.506   1.529
  750HOH     H1 2437   2.525   1.449   1.469
  750HOH     H2 2438   2.610   1.447   1.594
  751HOH      O 2439   0.712   0.634   1.370
  751HOH     H1 2440   0.793   0.585   1.359
  751HOH     H2 2441   0.717   0.670   1.458
  752HOH      O 2442   2.642   1.512   3.240
  752HOH     H1 2443   2.738   1.514   3.244
  752HOH     H2 2444   2.622   1.496   3.147
  753HOH      O 2445   0.770   2.255   0.205
  753HOH     H1 2446   0.775   2.162   0.183
  753HOH     H2 2447   0.862   2.285   0.206
  754HOH      O 2448   2.267   0.502   2.944
  754HOH     H1 2449   2.257   0.431   2.881
  754HOH     H2 2450   2.292   0.578   2.891
  755HOH      O 2451   0.618   1.987   3.110
  755HOH     H1 2452   0.585   1.898   3.102
  755HOH     H2 2453   0.599   2.028   3.026
  756HOH      O 2454   2.258   1.120   0.335
  756HOH     H1 2455   2.326   1.087   0.276
  756HOH     H2 2456   2.177   1.109   0.285
  757HOH      O 2457   0.063   0.912   0.888
  757HOH     H1 2458   0.036   0.996   0.926
  757HOH     H2 2459   0.156   0.924   0.869
  758HOH      O 2460   3.642   1.334   0.843
  758HOH     H1 2461   3.738   1.333   0.839
  758HOH     H2 2462   3.615   1.315   0.753
  759HOH      O 2463   1.646   0.699   0.202
  759HOH     H1 2464   1.617   0.736   0.118
  759HOH     H2 2465   1.593   0.746   0.267
  760HOH      O 2466   1.248   2.067   3.198
  760HOH     H1 2467   1.246   1.989   3.253
  760HOH     H2 2468   1.217   2.037   3.112
  761HOH      O 2469   2.120   1.654   2.938
  761HOH     H1 2470   2.149   1.741   2.912
  761HOH     H2 2471   2.169   1.594   2.882
  762HOH      O 2472   1.763   1.952   1.981
  762HOH     H1 2473   1.761   1.901   1.900
  762HOH     H2 2474   1.730   1.890   2.048
  763HOH      O 2475   1.060   3.919   2.490
  763HOH     H1 2476   1.024   4.007   2.482
  763HOH     H2 2477   0.984   3.863   2.505
  764HOH      O 2478   0.024   1.375   1.634
  764HOH     H1 2479  -0.065   1.343   1.650
  764HOH     H2 2480   0.074   1.346   1.711
  765HOH      O 2481   1.427   2.756   0.740
  765HOH     H1 2482   1.491   2.722   0.802
  765HOH     H2 2483   1.373   2.816   0.792
  766HOH      O 2484   1.243   3.882   0.788
  766HOH     H1 2485   1.199   3.799   0.803
  766HOH     H2 2486   1.172   3.947   0.790
  767HOH      O 2487   3.630   3.791   3.227
  767HOH     H1 2488   3.705   3.758   3.276
  767HOH     H2 2489   3.578   3.838   3.292
  768HOH      O 2490   3.767   3.707   1.961
  768HOH     H1 2491   3.858   3.685   1.978
  768HOH     H2 2492   3.758   3.703   1.866
  769HOH      O 2493   1.574   2.414   3.132
  769HOH     H1 2494   1.480   2.433   3.130
  769HOH     H2 2495   1.581   2.322   3.109
  770HOH      O 2496   2.161   2.235   1.586
  770HOH     H1 2497   2.099   2.216   1.657
  770HOH     H2 2498   2.236   2.274   1.630
  771HOH      O 2499   3.489   1.445   1.069
  771HOH     H1 2500   3.555   1.420   1.004
  771HOH     H2 2501   3.498   1.540   1.077
  772HOH      O 2502   1.341   3.999   3.539
  772HOH     H1 2503   1.260   4.041   3.569
  772HOH     H2 2504   1.367   3.942   3.612
  773HOH      O 2505   3.549   0.243   2.122
  773HOH     H1 2506   3.489   0.191   2.175
  773HOH     H2 2507   3.587   0.305   2.183
  774HOH      O 2508   3.896   3.960   0.129
  774HOH     H1 2509   3.872   3.935   0.218
  774HOH     H2 2510   3.860   4.048   0.118
  775HOH      O 2511   0.287   3.905   1.347
  775HOH     H1 2512   0.204   3.858   1.344
  775HOH     H2 2513   0.333   3.868   1.423
  776HOH      O 2514   3.325   3.157   2.082
  776HOH     H1 2515   3.279   3.238   2.059
  776HOH     H2 2516   3.379   3.181   2.157
  777HOH      O 2517   2.107   2.292   0.481
  777HOH     H1 2518   2.108   2.202   0.449
  777HOH     H2 2519   2.096   2.345   0.402
  778HOH      O 2520   3.807   0.692   3.091
  778HOH     H1 2521   3.878   0.716   3.151
  778HOH     H2 2522   3.759   0.773   3.077
  779HOH      O 2523   2.583   3.086   1.267
  779HOH     H1 2524   2.547   3.029   1.199
  779HOH     H2 2525   2.515   3.092   1.333
  780HOH      O 2526   1.421   1.461   0.620
  780HOH     H1 2527   1.506   1.419   0.612
  780HOH     H2 2528   1.363   1.411   0.562
  781HOH      O 2529   4.057   2.706   2.376
  781HOH     H1 2530   4.010   2.705   2.460
  781HOH     H2 2531   4.011   2.641   2.323
  782HOH      O 2532   0.569   0.208   3.815
  782HOH     H1 2533   0.563   0.223   3.909
  782HOH     H2 2534   0.486   0.168   3.791
  783HOH      O 2535   2.727   1.240   0.492
  783HOH     H1 2536   2.706   1.321   0.446
  783HOH     H2 2537   2.642   1.207   0.522
  784HOH      O 2538   1.375   3.260   4.061
  784HOH     H1 2539   1.330   3.189   4.016
  784HOH     H2 2540   1.422   3.306   3.991
  785HOH      O 2541   3.028   0.141   3.070
  785HOH     H1 2542   3.094   0.201   3.106
  785HOH     H2 2543   3.057   0.054   3.097
  786HOH      O 2544   0.644   3.436   3.616
  786HOH     H1 2545   0.726   3.480   3.596
  786HOH     H2 2546   0.597   3.497   3.674
  787HOH      O 2547   1.989   2.933   0.751
  787HOH     H1 2548   2.067   2.955   0.802
  787HOH     H2 2549   2.016   2.943   0.660
  788HOH      O 2550   2.073   1.262   1.557
  788HOH     H1 2551   2.105   1.350   1.535
  788HOH     H2 2552   2.102   1.207   1.484
  789HOH      O 2553   3.547   0.644   0.046
  789HOH     H1 2554   3.455   0.659   0.023
  789HOH     H2 2555   3.581   0.731   0.067
  790HOH      O 2556   3.261   2.657   3.087
  790HOH     H1 2557   3.303   2.676   3.171
  790HOH     H2 2558   3.307   2.712   3.024
  791HOH      O 2559   2.883   2.774   2.154
  791HOH     H1 2560   2.966   2.798   2.195
  791HOH     H2 2561   2.834   2.731   2.224
  792HOH      O 2562   1.815   1.447   1.390
  792HOH     H1 2563   1.789   1.358   1.366
  792HOH     H2 2564   1.839   1.488   1.307
  793HOH      O 2565   2.671   3.173   0.825
  793HOH     H1 2566   2.692   3.182   0.918
  793HOH     H2 2567   2.727   3.102   0.794
  794HOH      O 2568   2.801   1.924   1.144
  794HOH     H1 2569   2.830   2.015   1.144
  794HOH     H2 2570   2.767   1.909   1.232
  795HOH      O 2571   2.207   1.651   3.806
  795HOH     H1 2572   2.140   1.637   3.873
  795HOH     H2 2573   2.201   1.574   3.749
  796HOH      O 2574   1.048   0.898   1.334
  796HOH     H1 2575   0.989   0.953   1.282
  796HOH     H2 2576   1.127   0.950   1.344
  797HOH      O 2577   0.812   2.109   2.192
  797HOH     H1 2578   0.748   2.156   2.245
  797HOH     H2 2579   0.887   2.168   2.187
  798HOH      O 2580   0.465   0.333   0.975
  798HOH     H1 2581   0.397   0.400   0.983
  798HOH     H2 2582   0.416   0.250   0.973
  799HOH      O 2583   3.678   2.064   1.500
  799HOH     H1 2584   3.656   2.023   1.584
  799HOH     H2 2585   3.764   2.101   1.513
  800HOH      O 2586   2.759   1.199   2.852
  800HOH     H1 2587   2.739   1.245   2.771
  800HOH     H2 2588   2.850   1.172   2.842
  801HOH      O 2589   2.739   0.727   1.051
  801HOH     H1 2590   2.808   0.781   1.013
  801HOH     H2 2591   2.751   0.737   1.146
  802HOH      O 2592   0.525   0.012   1.138
  802HOH     H1 2593   0.454   0.056   1.092
  802HOH     H2 2594   0.481  -0.040   1.205
  803HOH      O 2595   1.763   1.508   3.425
  803HOH     H1 2596   1.757   1.592   3.380
  803HOH     H2 2597   1.773   1.532   3.517
  804HOH      O 2598   3.958   1.371   3.135
  804HOH     H1 2599   3.953   1.406   3.224
  804HOH     H2 2600   3.898   1.425   3.084
  805HOH      O 2601   1.309   3.493   1.041
  805HOH     H1 2602   1.396   3.475   1.006
  805HOH     H2 2603   1.308   3.451   1.127
  806HOH      O 2604   1.285   3.010   3.954
  806HOH     H1 2605   1.357   2.949   3.937
  806HOH     H2 2606   1.230   2.966   4.018
  807HOH      O 2607   1.720   4.017   1.737
  807HOH     H1 2608   1.793   3.988   1.791
  807HOH     H2 2609   1.762   4.067   1.666
  808HOH      O 2610   0.921   3.590   2.796
  808HOH     H1 2611   0.871   3.570   2.876
  808HOH     H2 2612   1.003   3.629   2.829
  809HOH      O 2613   3.825   1.872   3.286
  809HOH     H1 2614   3.798   1.872   3.378
  809HOH     H2 2615   3.865   1.958   3.274
  810HOH      O 2616   0.863   1.100   0.289
  810HOH     H1 2617   0.796   1.167   0.294
  810HOH     H2 2618   0.858   1.067   0.199
  811HOH      O 2619   1.671   3.512   0.703
  811HOH     H1 2620   1.617   3.591   0.714
  811HOH     H2 2621   1.681   3.477   0.791
  812HOH      O 2622   0.470   3.241   2.195
  812HOH     H1 2623   0.440   3.156   2.164
  812HOH     H2 2624   0.397   3.276   2.246
  813HOH      O 2625   0.327   0.057   3.774
  813HOH     H1 2626   0.326   0.039   3.868
  813HOH     H2 2627   0.235   0.070   3.751
  814HOH      O 2628   3.363   3.535   2.046
  814HOH     H1 2629   3.423   3.479   1.996
  814HOH     H2 2630   3.279   3.527   2.000
  815HOH      O 2631   1.254   0.584   3.665
  815HOH     H1 2632   1.321   0.560   3.602
  815HOH     H2 2633   1.260   0.680   3.671
  816HOH      O 2634   1.077   0.102   1.704
  816HOH     H1 2635   1.077   0.100   1.608
  816HOH     H2 2636   1.093   0.011   1.730
  817HOH      O 2637   0.663   2.985   1.138
  817HOH     H1 2638   0.716   2.909   1.161
  817HOH     H2 2639   0.613   2.958   1.061
  818HOH      O 2640   0.287   0.556   0.819
  818HOH     H1 2641   0.365   0.600   0.852
  818HOH     H2 2642   0.217   0.584   0.878
  819HOH      O 2643   2.408   3.168   0.732
  819HOH     H1 2644   2.365   3.243   0.773
  819HOH     H2 2645   2.500   3.177   0.757
  820HOH      O 2646   2.059   3.639   0.499
  820HOH     H1 2647   2.138   3.591   0.473
  820HOH     H2 2648   2.091   3.708   0.557
  821HOH      O 2649   0.510   3.192   0.422
  821HOH     H1 2650   0.585   3.251   0.420
  821HOH     H2 2651   0.488   3.178   0.329
  822HOH      O 2652   0.638   1.680   2.699
  822HOH     H1 2653   0.571   1.671   2.767
  822HOH     H2 2654   0.692   1.602   2.707
  823HOH      O 2655   0.803   3.045   0.283
  823HOH     H1 2656   0.812   2.970   0.343
  823HOH     H2 2657   0.844   3.117   0.330
  824HOH      O 2658   3.096   2.130   1.393
  824HOH     H1 2659   3.019   2.074   1.404
  824HOH     H2 2660   3.170   2.073   1.411
  825HOH      O 2661   2.433   1.469   0.670
  825HOH     H1 2662   2.379   1.549   0.672
  825HOH     H2 2663   2.519   1.498   0.640
  826HOH      O 2664   1.850   2.359   1.927
  826HOH     H1 2665   1.760   2.345   1.956
  826HOH     H2 2666   1.903   2.304   1.985
  827HOH      O 2667   0.116   3.372   3.457
  827HOH     H1 2668   0.191   3.333   3.413
  827HOH     H2 2669   0.155   3.423   3.529
  828HOH      O 2670   0.978   3.881   3.064
  828HOH     H1 2671   0.961   3.889   2.970
  828HOH     H2 2672   0.989   3.787   3.078
  829HOH      O 2673   3.404   3.885   1.411
  829HOH     H1 2674   3.391   3.814   1.473
  829HOH     H2 2675   3.498   3.887   1.394
  830HOH      O 2676   1.256   1.585   1.786
  830HOH     H1 2677   1.254   1.495   1.818
  830HOH     H2 2678   1.349   1.606   1.781
  831HOH      O 2679   0.157   3.905   2.496
  831HOH     H1 2680   0.244   3.944   2.507
  831HOH     H2 2681   0.103   3.978   2.463
  832HOH      O 2682   1.268   0.945   2.475
  832HOH     H1 2683   1.237   0.885   2.407
  832HOH     H2 2684   1.347   0.984   2.439
  833HOH      O 2685   0.045   0.679   2.229
  833HOH     H1 2686   0.009   0.741   2.292
  833HOH     H2 2687  -0.031   0.638   2.189
  834HOH      O 2688   1.636   1.996   3.495
  834HOH     H1 2689   1.598   2.048   3.424
  834HOH     H2 2690   1.658   2.060   3.563
  835HOH      O 2691   1.429   2.969   2.893
  835HOH     H1 2692   1.437   3.055   2.853
  835HOH     H2 2693   1.435   2.907   2.820
  836HOH      O 2694   2.702   3.753   3.354
  836HOH     H1 2695   2.617   3.745   3.312
  836HOH     H2 2696   2.764   3.764   3.282
  837HOH      O 2697   2.548   0.839   3.140
  837HOH     H1 2698   2.548   0.868   3.049
  837HOH     H2 2699   2.505   0.754   3.139
  838HOH      O 2700   4.003   2.423   2.024
  838HOH     H1 2701   3.927   2.452   1.973
  838HOH     H2 2702   4.054   2.371   1.962
  839HOH      O 2703   0.073   0.105   3.694
  839HOH     H1 2704   0.001   0.132   3.751
  839HOH     H2 2705   0.032   0.043   3.633
  840HOH      O 2706   3.148   1.219   0.811
  840HOH     H1 2707   3.064   1.222   0.857
  840HOH     H2 2708   3.126   1.191   0.722
  841HOH      O 2709   0.669   0.782   0.658
  841HOH     H1 2710   0.691   0.753   0.746
  841HOH     H2 2711   0.615   0.712   0.622
  842HOH      O 2712   2.994   0.534   1.857
  842HOH     H1 2713   2.910   0.517   1.899
  842HOH     H2 2714   3.041   0.451   1.861
  843HOH      O 2715   3.106   2.856   2.276
  843HOH     H1 2716   3.088   2.946   2.301
  843HOH     H2 2717   3.183   2.862   2.220
  844HOH      O 2718   2.458   1.013   0.178
  844HOH     H1 2719   2.521   1.079   0.206
  844HOH     H2 2720   2.455   1.021   0.083
  845HOH      O 2721   3.417   1.747   2.663
  845HOH     H1 2722   3.324   1.726   2.651
  845HOH     H2 2723   3.459   1.718   2.583
  846HOH      O 2724   0.365   1.445   0.201
  846HOH     H1 2725   0.301   1.401   0.258
  846HOH     H2 2726   0.329   1.436   0.113
  847HOH      O 2727   0.093   3.570   2.661
  847HOH     H1 2728   0.074   3.493   2.715
  847HOH     H2 2729   0.029   3.636   2.691
  848HOH      O 2730   2.302   3.980   2.353
  848HOH     H1 2731   2.305   4.008   2.261
  848HOH     H2 2732   2.298   3.885   2.349
  849HOH      O 2733   0.782   3.557   3.033
  849HOH     H1 2734   0.715   3.615   3.069
  849HOH     H2 2735   0.860   3.578   3.084
  850HOH      O 2736   3.006   3.732   3.654
  850HOH     H1 2737   2.984   3.713   3.745
  850HOH     H2 2738   3.092   3.774   3.658
  851HOH      O 2739   0.372   1.294   3.040
  851HOH     H1 2740   0.364   1.234   2.966
  851HOH     H2 2741   0.452   1.344   3.022
  852HOH      O 2742   0.635   1.077   2.886
  852HOH     H1 2743   0.678   1.030   2.957
  852HOH     H2 2744   0.619   1.010   2.819
  853HOH      O 2745   0.656   1.325   2.769
  853HOH     H1 2746   0.656   1.238   2.808
  853HOH     H2 2747   0.742   1.333   2.729
  854HOH      O 2748   1.744   0.593   3.308
  854HOH     H1 2749   1.707   0.508   3.328
  854HOH     H2 2750   1.703   0.619   3.225
  855HOH      O 2751   2.191   1.300   0.868
  855HOH     H1 2752   2.188   1.281   0.775
  855HOH     H2 2753   2.283   1.292   0.892
  856HOH      O 2754   1.357   1.493   2.195
  856HOH     H1 2755   1.447   1.469   2.217
  856HOH     H2 2756   1.303   1.440   2.254
  857HOH      O 2757   2.352   0.098   3.617
  857HOH     H1 2758   2.385   0.014   3.584
  857HOH     H2 2759   2.265   0.077   3.652
  858HOH      O 2760   2.017   3.256   2.436
  858HOH     H1 2761   2.094   3.300   2.470
  858HOH     H2 2762   1.943   3.302   2.478
  859HOH      O 2763   1.634   0.946   3.329
  859HOH     H1 2764   1.721   0.978   3.307
  859HOH     H2 2765   1.575   1.019   3.307
  860HOH      O 2766   3.070   1.937   1.003
  860HOH     H1 2767   3.131   1.877   1.045
  860HOH     H2 2768   2.985   1.893   1.008
  861HOH      O 2769   2.929   3.059   1.724
  861HOH     H1 2770   3.024   3.065   1.714
  861HOH     H2 2771   2.911   2.965   1.722
  862HOH      O 2772   3.049   0.534   2.996
  862HOH     H1 2773   3.121   0.598   2.994
  862HOH     H2 2774   3.034   0.518   3.089
  863HOH      O 2775   2.012   1.172   1.082
  863HOH     H1 2776   2.069   1.249   1.085
  863HOH     H2 2777   1.945   1.190   1.147
  864HOH      O 2778   2.070   3.543   2.615
  864HOH     H1 2779   2.164   3.531   2.623
  864HOH     H2 2780   2.043   3.585   2.697
  865HOH      O 2781   3.559   0.623   3.553
  865HOH     H1 2782   3.500   0.572   3.497
  865HOH     H2 2783   3.503   0.692   3.588
  866HOH      O 2784   1.284   2.057   2.355
  866HOH     H1 2785   1.311   1.972   2.390
  866HOH     H2 2786   1.320   2.121   2.417
  867HOH      O 2787   2.723   0.824   1.756
  867HOH     H1 2788   2.803   0.874   1.737
  867HOH     H2 2789   2.677   0.878   1.821
  868HOH      O 2790   0.475   3.137   2.779
  868HOH     H1 2791   0.463   3.159   2.871
  868HOH     H2 2792   0.390   3.157   2.739
  869HOH      O 2793   1.751   2.681   2.170
  869HOH     H1 2794   1.815   2.612   2.187
  869HOH     H2 2795   1.804   2.757   2.147
  870HOH      O 2796   2.404   2.211   0.348
  870HOH     H1 2797   2.474   2.159   0.387
  870HOH     H2 2798   2.427   2.302   0.369
  871HOH      O 2799   2.376   2.522   2.391
  871HOH     H1 2800   2.356   2.614   2.372
  871HOH     H2 2801   2.342   2.508   2.479
  872HOH      O 2802   1.401   3.229   2.079
  872HOH     H1 2803   1.459   3.153   2.088
  872HOH     H2 2804   1.454   3.303   2.108
  873HOH      O 2805   3.575   3.454   1.895
  873HOH     H1 2806   3.619   3.539   1.898
  873HOH     H2 2807   3.645   3.390   1.907
  874HOH      O 2808   1.498   2.884   1.085
  874HOH     H1 2809   1.510   2.795   1.117
  874HOH     H2 2810   1.427   2.878   1.021
  875HOH      O 2811   2.940   2.769   0.426
  875HOH     H1 2812   2.995   2.775   0.348
  875HOH     H2 2813   2.916   2.677   0.431
  876HOH      O 2814   1.628   1.820   0.601
  876HOH     H1 2815   1.662   1.737   0.636
  876HOH     H2 2816   1.595   1.865   0.678
  877HOH      O 2817   2.436   3.287   0.424
  877HOH     H1 2818   2.433   3.382   0.435
  877HOH     H2 2819   2.376   3.254   0.492
  878HOH      O 2820   3.003   3.131   0.378
  878HOH     H1 2821   2.933   3.141   0.314
  878HOH     H2 2822   3.043   3.047   0.357
  879HOH      O 2823   2.051   1.396   3.585
  879HOH     H1 2824   1.983   1.335   3.558
  879HOH     H2 2825   2.003   1.473   3.616
  880HOH      O 2826   1.773   1.906   2.568
  880HOH     H1 2827   1.833   1.833   2.580
  880HOH     H2 2828   1.789   1.963   2.642
  881HOH      O 2829   0.882   2.120   3.523
  881HOH     H1 2830   0.928   2.194   3.483
  881HOH     H2 2831   0.870   2.059   3.451
  882HOH      O 2832   1.703   2.849   0.682
  882HOH     H1 2833   1.660   2.797   0.750
  882HOH     H2 2834   1.789   2.869   0.719
  883HOH      O 2835   2.096   2.612   3.850
  883HOH     H1 2836   2.145   2.614   3.769
  883HOH     H2 2837   2.161   2.593   3.918
  884HOH      O 2838   1.507   2.143   3.091
  884HOH     H1 2839   1.502   2.099   3.006
  884HOH     H2 2840   1.425   2.119   3.135
  885HOH      O 2841   3.565   0.234   0.858
  885HOH     H1 2842   3.552   0.143   0.883
  885HOH     H2 2843   3.488   0.280   0.892
  886HOH      O 2844   1.631   2.468   3.413
  886HOH     H1 2845   1.667   2.557   3.410
  886HOH     H2 2846   1.630   2.439   3.322
  887HOH      O 2847   1.872   3.162   0.107
  887HOH     H1 2848   1.827   3.132   0.186
  887HOH     H2 2849   1.819   3.236   0.076
  888HOH      O 2850   3.178   2.879   1.895
  888HOH     H1 2851   3.215   2.898   1.981
  888HOH     H2 2852   3.182   2.784   1.888
  889HOH      O 2853   3.392   1.873   1.957
  889HOH     H1 2854   3.392   1.918   1.872
  889HOH     H2 2855   3.312   1.903   2.000
  890HOH      O 2856   1.317   3.609   1.743
  890HOH     H1 2857   1.241   3.576   1.790
  890HOH     H2 2858   1.390   3.599   1.804
  891HOH      O 2859   3.806   0.389   2.724
  891HOH     H1 2860   3.720   0.425   2.702
  891HOH     H2 2861   3.800   0.372   2.818
  892HOH      O 2862   0.641   2.719   2.144
  892HOH     H1 2863   0.672   2.810   2.142
  892HOH     H2 2864   0.689   2.676   2.073
  893HOH      O 2865   3.215   3.855   0.150
  893HOH     H1 2866   3.156   3.921   0.115
  893HOH     H2 2867   3.189   3.774   0.105
  894HOH      O 2868   2.236   3.782   1.244
  894HOH     H1 2869   2.174   3.806   1.175
  894HOH     H2 2870   2.183   3.735   1.309
  895HOH      O 2871   0.081   0.293   1.055
  895HOH     H1 2872   0.146   0.309   1.123
  895HOH     H2 2873   0.052   0.380   1.028
  896HOH      O 2874   0.008   2.774   3.920
  896HOH     H1 2875   0.094   2.794   3.883
  896HOH     H2 2876  -0.043   2.853   3.906
  897HOH      O 2877   3.321   1.116   3.914
  897HOH     H1 2878   3.237   1.103   3.870
  897HOH     H2 2879   3.305   1.190   3.973
  898HOH      O 2880   0.052   0.364   2.815
  898HOH     H1 2881   0.019   0.429   2.878
  898HOH     H2 2882  -0.024   0.342   2.762
  899HOH      O 2883   2.875   2.045   2.150
  899HOH     H1 2884   2.842   2.082   2.232
  899HOH     H2 2885   2.885   2.121   2.092
  900HOH      O 2886   3.852   2.180   2.251
  900HOH     H1 2887   3.905   2.151   2.177
  900HOH     H2 2888   3.775   2.123   2.250
  901HOH      O 2889   0.870   2.326   2.665
  901HOH     H1 2890   0.924   2.248   2.679
  901HOH     H2 2891   0.873   2.341   2.571
  902HOH      O 2892   0.739   2.200   0.993
  902HOH     H1 2893   0.695   2.133   0.941
  902HOH     H2 2894   0.751   2.159   1.079
  903HOH      O 2895   1.663   0.222   1.899
  903HOH     H1 2896   1.622   0.188   1.819
  903HOH     H2 2897   1.733   0.160   1.917
  904HOH      O 2898   3.889   0.157   3.877
  904HOH     H1 2899   3.874   0.069   3.910
  904HOH     H2 2900   3.909   0.209   3.954
  905HOH      O 2901   2.300   1.501   2.472
  905HOH     H1 2902   2.308   1.551   2.391
  905HOH     H2 2903   2.219   1.450   2.460
  906HOH      O 2904   4.050   0.818   1.651
  906HOH     H1 2905   4.065   0.724   1.662
  906HOH     H2 2906   3.966   0.824   1.606
  907HOH      O 2907   3.696   1.797   3.537
  907HOH     H1 2908   3.624   1.734   3.527
  907HOH     H2 2909   3.768   1.745   3.571
  908HOH      O 2910   3.570   0.647   0.509
  908HOH     H1 2911   3.650   0.655   0.458
  908HOH     H2 2912   3.512   0.715   0.473
  909HOH      O 2913   2.986   3.986   0.412
  909HOH     H1 2914   3.042   3.952   0.341
  909HOH     H2 2915   2.990   3.918   0.479
  910HOH      O 2916   3.031   1.289   3.015
  910HOH     H1 2917   3.002   1.218   2.957
  910HOH     H2 2918   2.982   1.366   2.985
  911HOH      O 2919   1.890   1.039   3.244
  911HOH     H1 2920   1.876   1.060   3.152
  911HOH     H2 2921   1.982   1.013   3.249
  912HOH      O 2922   3.568   1.293   0.280
  912HOH     H1 2923   3.591   1.326   0.194
  912HOH     H2 2924   3.651   1.266   0.319
  913HOH      O 2925   2.699   0.655   1.477
  913HOH     H1 2926   2.637   0.717   1.517
  913HOH     H2 2927   2.780   0.705   1.468
  914HOH      O 2928   2.676   0.967   2.221
  914HOH     H1 2929   2.743   0.908   2.188
  914HOH     H2 2930   2.726   1.043   2.252
  915HOH      O 2931   1.853   1.601   2.938
  915HOH     H1 2932   1.940   1.623   2.906
  915HOH     H2 2933   1.809   1.685   2.948
  916HOH      O 2934   0.463   1.484   2.240
  916HOH     H1 2935   0.386   1.495   2.297
  916HOH     H2 2936   0.532   1.534   2.283
  917HOH      O 2937   3.773   3.867   3.919
  917HOH     H1 2938   3.820   3.898   3.996
  917HOH     H2 2939   3.800   3.775   3.910
  918HOH      O 2940   0.112   2.803   2.893
  918HOH     H1 2941   0.055   2.731   2.918
  918HOH     H2 2942   0.189   2.794   2.950
  919HOH      O 2943   1.858   0.963   3.806
  919HOH     H1 2944   1.807   1.031   3.762
  919HOH     H2 2945   1.800   0.886   3.807
  920HOH      O 2946   3.265   3.434   3.972
  920HOH     H1 2947   3.349   3.413   3.931
  920HOH     H2 2948   3.255   3.528   3.960
  921HOH      O 2949   1.216   1.004   3.612
  921HOH     H1 2950   1.200   0.973   3.701
  921HOH     H2 2951   1.286   0.948   3.579
  922HOH      O 2952   1.525   1.255   0.242
  922HOH     H1 2953   1.584   1.269   0.168
  922HOH     H2 2954   1.463   1.328   0.237
  923HOH      O 2955   1.485   2.463   2.291
  923HOH     H1 2956   1.439   2.433   2.212
  923HOH     H2 2957   1.421   2.517   2.337
  924HOH      O 2958   1.450   0.815   3.481
  924HOH     H1 2959   1.442   0.738   3.424
  924HOH     H2 2960   1.512   0.872   3.435
  925HOH      O 2961   1.063   1.102   2.612
  925HOH     H1 2962   1.117   1.037   2.567
  925HOH     H2 2963   0.997   1.128   2.548
  926HOH      O 2964   2.064   0.531   2.622
  926HOH     H1 2965   2.041   0.494   2.537
  926HOH     H2 2966   2.136   0.476   2.653
  927HOH      O 2967   1.604   2.118   1.421
  927HOH     H1 2968   1.599   2.153   1.331
  927HOH     H2 2969   1.654   2.037   1.413
  928HOH      O 2970   0.546   1.693   3.127
  928HOH     H1 2971   0.564   1.661   3.215
  928HOH     H2 2972   0.569   1.619   3.070
  929HOH      O 2973   1.798   2.031   0.958
  929HOH     H1 2974   1.820   2.113   1.002
  929HOH     H2 2975   1.814   2.049   0.866
  930HOH      O 2976   3.799   0.587   3.680
  930HOH     H1 2977   3.845   0.559   3.602
  930HOH     H2 2978   3.709   0.601   3.651
  931HOH      O 2979   2.442   2.240   2.346
  931HOH     H1 2980   2.413   2.220   2.435
  931HOH     H2 2981   2.417   2.332   2.334
  932HOH      O 2982   1.091   0.948   3.284
  932HOH     H1 2983   1.090   1.043   3.293
  932HOH     H2 2984   1.067   0.915   3.371
  933HOH      O 2985   0.480   0.126   0.330
  933HOH     H1 2986   0.565   0.085   0.313
  933HOH     H2 2987   0.491   0.168   0.415
  934HOH      O 2988   2.823   1.736   0.362
  934HOH     H1 2989   2.875   1.657   0.374
  934HOH     H2 2990   2.804   1.739   0.269
  935HOH      O 2991   1.682   3.233   2.263
  935HOH     H1 2992   1.630   3.169   2.312
  935HOH     H2 2993   1.699   3.191   2.179
  936HOH      O 2994   0.781   0.737   0.413
  936HOH     H1 2995   0.765   0.768   0.502
  936HOH     H2 2996   0.855   0.789   0.382
  937HOH      O 2997   3.374   2.753   3.308
  937HOH     H1 2998   3.301   2.799   3.349
  937HOH     H2 2999   3.452   2.792   3.347
  938HOH      O 3000   2.697   2.651   2.340
  938HOH     H1 3001   2.683   2.737   2.378
  938HOH     H2 3002   2.619   2.636   2.286
  939HOH      O 3003   2.511   3.049   2.256
  939HOH     H1 3004   2.586   3.062   2.313
  939HOH     H2 3005   2.549   3.036   2.169
  940HOH      O 3006   1.904   2.109   3.180
  940HOH     H1 3007   1.941   2.107   3.268
  940HOH     H2 3008   1.862   2.195   3.173
  941HOH      O 3009   0.512   0.231   0.060
  941HOH     H1 3010   0.591   0.229   0.113
  941HOH     H2 3011   0.464   0.152   0.086
  942HOH      O 3012   0.736   1.922   2.570
  942HOH     H1 3013   0.695   1.840   2.600
  942HOH     H2 3014   0.690   1.943   2.489
  943HOH      O 3015   3.262   2.556   0.471
  943HOH     H1 3016   3.294   2.592   0.388
  943HOH     H2 3017   3.205   2.624   0.507
  944HOH      O 3018   1.540   1.018   0.875
  944HOH     H1 3019   1.567   1.015   0.784
  944HOH     H2 3020   1.464   1.076   0.876
  945HOH      O 3021   0.122   3.037   1.820
  945HOH     H1 3022   0.056   3.096   1.784
  945HOH     H2 3023   0.118   3.052   1.914
  946HOH      O 3024   1.007   3.606   3.158
  946HOH     H1 3025   1.062   3.528   3.151
  946HOH     H2 3026   1.027   3.641   3.245
  947HOH      O 3027   2.426   3.021   3.684
  947HOH     H1 3028   2.413   2.935   3.723
  947HOH     H2 3029   2.482   3.067   3.746
  948HOH      O 3030   2.792   0.737   2.073
  948HOH     H1 3031   2.756   0.650   2.056
  948HOH     H2 3032   2.866   0.744   2.013
  949HOH      O 3033   2.394   0.071   2.782
  949HOH     H1 3034   2.455   0.051   2.711
  949HOH     H2 3035   2.309   0.078   2.739
  950HOH      O 3036   1.823   3.048   1.844
  950HOH     H1 3037   1.859   2.998   1.771
  950HOH     H2 3038   1.858   3.136   1.833
  951HOH      O 3039   2.125   3.526   2.222
  951HOH     H1 3040   2.104   3.481   2.140
  951HOH     H2 3041   2.046   3.517   2.275
  952HOH      O 3042   2.559   1.745   2.880
  952HOH     H1 3043   2.469   1.775   2.869
  952HOH     H2 3044   2.577   1.692   2.802
  953HOH      O 3045   3.910   3.612   0.946
  953HOH     H1 3046   3.903   3.542   0.881
  953HOH     H2 3047   3.994   3.654   0.927
  954HOH      O 3048   1.986   1.524   2.104
  954HOH     H1 3049   1.985   1.594   2.039
  954HOH     H2 3050   2.079   1.515   2.128
  955HOH      O 3051   0.438   3.486   1.206
  955HOH     H1 3052   0.464   3.401   1.241
  955HOH     H2 3053   0.469   3.549   1.272
  956HOH      O 3054   1.604   2.490   2.001
  956HOH     H1 3055   1.513   2.488   2.027
  956HOH     H2 3056   1.646   2.553   2.060
  957HOH      O 3057   3.443   2.289   3.317
  957HOH     H1 3058   3.493   2.209   3.298
  957HOH     H2 3059   3.496   2.336   3.381
  958HOH      O 3060   0.807   0.173   3.447
  958HOH     H1 3061   0.841   0.250   3.492
  958HOH     H2 3062   0.883   0.134   3.403
  959HOH      O 3063   3.665   0.147   3.421
  959HOH     H1 3064   3.657   0.178   3.511
  959HOH     H2 3065   3.612   0.068   3.418
  960HOH      O 3066   3.099   3.706   2.137
  960HOH     H1 3067   3.132   3.743   2.219
  960HOH     H2 3068   3.061   3.622   2.164
  961HOH      O 3069   0.109   3.310   2.803
  961HOH     H1 3070   0.033   3.279   2.852
  961HOH     H2 3071   0.169   3.344   2.870
  962HOH      O 3072   0.085   1.656   3.677
  962HOH     H1 3073   0.167   1.625   3.715
  962HOH     H2 3074   0.110   1.697   3.594
  963HOH      O 3075   2.208   1.377   3.272
  963HOH     H1 3076   2.127   1.361   3.224
  963HOH     H2 3077   2.246   1.454   3.229
  964HOH      O 3078   1.523   3.475   2.360
  964HOH     H1 3079   1.589   3.406   2.352
  964HOH     H2 3080   1.510   3.505   2.270
  965HOH      O 3081   1.756   3.935   2.939
  965HOH     H1 3082   1.832   3.878   2.929
  965HOH     H2 3083   1.731   3.957   2.850
  966HOH      O 3084   3.036   0.623   0.886
  966HOH     H1 3085   3.111   0.607   0.829
  966HOH     H2 3086   2.962   0.583   0.839
  967HOH      O 3087  -0.016   2.536   3.291
  967HOH     H1 3088  -0.030   2.609   3.351
  967HOH     H2 3089   0.076   2.513   3.302
  968HOH      O 3090   3.035   0.033   1.901
  968HOH     H1 3091   3.007   0.117   1.938
  968HOH     H2 3092   2.965   0.008   1.842
  969HOH      O 3093   1.640   2.767   3.440
  969HOH     H1 3094   1.549   2.764   3.409
  969HOH     H2 3095   1.656   2.860   3.457
  970HOH      O 3096   0.628   0.950   0.054
  970HOH     H1 3097   0.724   0.952   0.053
  970HOH     H2 3098   0.607   0.868   0.100
  971HOH      O 3099   2.279   3.173   2.608
  971HOH     H1 3100   2.268   3.107   2.539
  971HOH     H2 3101   2.366   3.156   2.644
  972HOH      O 3102   3.706   0.194   0.429
  972HOH     H1 3103   3.656   0.261   0.474
  972HOH     H2 3104   3.680   0.112   0.472
  973HOH      O 3105   1.391   0.818   1.181
  973HOH     H1 3106   1.354   0.875   1.248
  973HOH     H2 3107   1.485   0.816   1.200
  974HOH      O 3108   1.159   1.595   3.957
  974HOH     H1 3109   1.123   1.630   3.876
  974HOH     H2 3110   1.090   1.538   3.991
  975HOH      O 3111   2.018   2.963   2.387
  975HOH     H1 3112   1.962   3.041   2.381
  975HOH     H2 3113   2.105   2.994   2.365
  976HOH      O 3114   3.009   2.059   2.745
  976HOH     H1 3115   2.968   2.124   2.688
  976HOH     H2 3116   2.949   2.051   2.820
  977HOH      O 3117   0.395   2.359   0.076
  977HOH     H1 3118   0.461   2.375   0.143
  977HOH     H2 3119   0.438   2.379  -0.007
  978HOH      O 3120   0.178   0.585   2.468
  978HOH     H1 3121   0.138   0.612   2.386
  978HOH     H2 3122   0.143   0.645   2.533
  979HOH      O 3123   2.290   3.566   3.965
  979HOH     H1 3124   2.245   3.483   3.955
  979HOH     H2 3125   2.323   3.586   3.877
  980HOH      O 3126   1.014   1.884   1.398
  980HOH     H1 3127   0.955   1.830   1.344
  980HOH     H2 3128   0.956   1.942   1.447
  981HOH      O 3129   2.062   3.373   0.755
  981HOH     H1 3130   2.050   3.361   0.661
  981HOH     H2 3131   2.023   3.295   0.794
  982HOH      O 3132   2.246   4.038   2.024
  982HOH     H1 3133   2.226   4.033   1.931
  982HOH     H2 3134   2.203   3.962   2.062
  983HOH      O 3135   0.694   3.931   2.503
  983HOH     H1 3136   0.688   3.972   2.589
  983HOH     H2 3137   0.604   3.908   2.480
  984HOH      O 3138   0.970   1.717   1.023
  984HOH     H1 3139   0.988   1.811   1.035
  984HOH     H2 3140   0.943   1.687   1.109
  985HOH      O 3141   3.665   1.258   1.546
  985HOH     H1 3142   3.688   1.327   1.484
  985HOH     H2 3143   3.583   1.221   1.511
  986HOH      O 3144   3.412   1.060   2.744
  986HOH     H1 3145   3.376   1.112   2.816
  986HOH     H2 3146   3.364   1.091   2.667
  987HOH      O 3147   3.364   3.686   0.295
  987HOH     H1 3148   3.315   3.755   0.249
  987HOH     H2 3149   3.399   3.730   0.373
  988HOH      O 3150   3.058   1.055   2.857
  988HOH     H1 3151   3.109   1.037   2.778
  988HOH     H2 3152   3.000   0.980   2.865
  989HOH      O 3153   2.590   0.974   1.946
  989HOH     H1 3154   2.646   0.982   2.023
  989HOH     H2 3155   2.516   1.032   1.965
  990HOH      O 3156   1.956   2.456   2.292
  990HOH     H1 3157   1.986   2.366   2.304
  990HOH     H2 3158   1.983   2.480   2.204
  991HOH      O 3159   1.781   0.047   2.617
  991HOH     H1 3160   1.774   0.142   2.624
  991HOH     H2 3161   1.782   0.030   2.523
  992HOH      O 3162   2.785   1.591   1.164
  992HOH     H1 3163   2.732   1.653   1.215
  992HOH     H2 3164   2.769   1.506   1.205
  993HOH      O 3165   2.392   0.943   3.668
  993HOH     H1 3166   2.298   0.928   3.659
  993HOH     H2 3167   2.428   0.856   3.687
  994HOH      O 3168   3.519   3.430   3.847
  994HOH     H1 3169   3.591   3.413   3.787
  994HOH     H2 3170   3.538   3.516   3.884
  995HOH      O 3171   1.212   3.272   1.250
  995HOH     H1 3172   1.216   3.307   1.338
  995HOH     H2 3173   1.293   3.223   1.239
  996HOH      O 3174   2.834   1.865   1.729
  996HOH     H1 3175   2.741   1.883   1.742
  996HOH     H2 3176   2.837   1.775   1.697
  997HOH      O 3177   0.993   3.170   3.896
  997HOH     H1 3178   1.009   3.112   3.970
  997HOH     H2 3179   1.059   3.145   3.831
  998HOH      O 3180   1.885   2.799   0.054
  998HOH     H1 3181   1.930   2.816  -0.029
  998HOH     H2 3182   1.843   2.882   0.076
  999HOH      O 3183   0.660   1.970   3.929
  999HOH     H1 3184   0.669   1.983   3.835
  999HOH     H2 3185   0.566   1.964   3.944
 1000HOH      O 3186   3.423   1.683   0.124
 1000HOH     H1 3187   3.408   1.777   0.131
 1000HOH     H2 3188   3.412   1.664   0.031
 1001HOH      O 3189   0.725   2.498   2.818
 1001HOH     H1 3190   0.795   2.462   2.763
 1001HOH     H2 3191   0.655   2.520   2.757
 1002HOH      O 3192   0.341   2.473   2.986
 1002HOH     H1 3193   0.302   2.451   2.901
 1002HOH     H2 3194   0.412   2.410   2.996
 1003HOH      O 3195   3.277   2.770   0.968
 1003HOH     H1 3196   3.318   2.685   0.952
 1003HOH     H2 3197   3.205   2.752   1.029
 1004HOH      O 3198   1.807   1.867   1.269
 1004HOH     H1 3199   1.871   1.882   1.339
 1004HOH     H2 3200   1.835   1.785   1.229
 1005HOH      O 3201   3.489   1.474   1.340
 1005HOH     H1 3202   3.493   1.452   1.247
 1005HOH     H2 3203   3.579   1.465   1.371
 1006HOH      O 3204   1.600   3.767   0.488
 1006HOH     H1 3205   1.657   3.743   0.415
 1006HOH     H2 3206   1.655   3.755   0.566
 1007HOH      O 3207   0.411   1.053   3.167
 1007HOH     H1 3208   0.484   1.083   3.221
 1007HOH     H2 3209   0.426   0.959   3.156
 1008HOH      O 3210   3.740   0.386   2.289
 1008HOH     H1 3211   3.819   0.380   2.237
 1008HOH     H2 3212   3.771   0.386   2.380
 1009HOH      O 3213   2.345   3.128   3.071
 1009HOH     H1 3214   2.412   3.175   3.023
 1009HOH     H2 3215   2.392   3.087   3.144
 1010HOH      O 3216   3.511   3.693   3.978
 1010HOH     H1 3217   3.453   3.765   4.003
 1010HOH     H2 3218   3.570   3.683   4.052
 1011HOH      O 3219   2.509   1.998   0.757
 1011HOH     H1 3220   2.436   1.984   0.817
 1011HOH     H2 3221   2.575   1.934   0.784
 1012HOH      O 3222   1.017   0.297   3.195
 1012HOH     H1 3223   0.979   0.376   3.156
 1012HOH     H2 3224   1.084   0.330   3.255
 1013HOH      O 3225   0.090   2.897   0.565
 1013HOH     H1 3226   0.109   2.962   0.633
 1013HOH     H2 3227  -0.003   2.911   0.545
 1014HOH      O 3228   0.342   3.281   3.340
 1014HOH     H1 3229   0.340   3.218   3.269
 1014HOH     H2 3230   0.424   3.329   3.327
 1015HOH      O 3231   3.789   3.650   1.701
 1015HOH     H1 3232   3.792   3.558   1.672
 1015HOH     H2 3233   3.857   3.693   1.649
 1016HOH      O 3234   0.397   0.005   3.231
 1016HOH     H1 3235   0.384   0.034   3.322
 1016HOH     H2 3236   0.487  -0.027   3.230
 1017HOH      O 3237   2.217   3.029   0.879
 1017HOH     H1 3238   2.218   3.080   0.960
 1017HOH     H2 3239   2.281   3.073   0.822
 1018HOH      O 3240   1.971   0.212   1.711
 1018HOH     H1 3241   1.973   0.133   1.656
 1018HOH     H2 3242   1.971   0.178   1.800
 1019HOH      O 3243   0.137   1.417   2.963
 1019HOH     H1 3244   0.058   1.394   3.012
 1019HOH     H2 3245   0.204   1.358   2.996
 1020HOH      O 3246   1.166   3.401   2.103
 1020HOH     H1 3247   1.195   3.446   2.182
 1020HOH     H2 3248   1.237   3.340   2.083
 1021HOH      O 3249   3.388   1.922   3.820
 1021HOH     H1 3250   3.480   1.947   3.833
 1021HOH     H2 3251   3.367   1.952   3.732
 1022HOH      O 3252   2.884   0.434   2.811
 1022HOH     H1 3253   2.941   0.492   2.861
 1022HOH     H2 3254   2.882   0.472   2.723
 1023HOH      O 3255   0.677   1.702   0.898
 1023HOH     H1 3256   0.729   1.734   0.825
 1023HOH     H2 3257   0.735   1.712   0.974
 1024HOH      O 3258   0.932   1.110   0.817
 1024HOH     H1 3259   0.956   1.111   0.724
 1024HOH     H2 3260   0.999   1.056   0.859
 1025HOH      O 3261   1.933   0.614   1.183
 1025HOH     H1 3262   1.931   0.701   1.144
 1025HOH     H2 3263   1.842   0.592   1.199
 1026HOH      O 3264   1.842   0.538   2.782
 1026HOH     H1 3265   1.913   0.510   2.839
 1026HOH     H2 3266   1.885   0.585   2.711
 1027HOH      O 3267   3.581   0.447   3.869
 1027HOH     H1 3268   3.602   0.524   3.921
 1027HOH     H2 3269   3.561   0.379   3.934
 1028HOH      O 3270   3.055   2.731   0.143
 1028HOH     H1 3271   3.078   2.809   0.092
 1028HOH     H2 3272   3.131   2.674   0.134
 1029HOH      O 3273   2.147   3.862   0.633
 1029HOH     H1 3274   2.138   3.909   0.716
 1029HOH     H2 3275   2.227   3.898   0.594
 1030HOH      O 3276   1.512   2.879   0.177
 1030HOH     H1 3277   1.529   2.958   0.126
 1030HOH     H2 3278   1.583   2.877   0.241
 1031HOH      O 3279   1.042   1.120   1.135
 1031HOH     H1 3280   1.080   1.176   1.203
 1031HOH     H2 3281   1.113   1.106   1.072
 1032HOH      O 3282   1.425   1.082   2.100
 1032HOH     H1 3283   1.453   1.038   2.180
 1032HOH     H2 3284   1.330   1.069   2.097
 1033HOH      O 3285   1.117   0.524   3.328
 1033HOH     H1 3286   1.048   0.575   3.371
 1033HOH     H2 3287   1.145   0.579   3.255
 1034HOH      O 3288   3.907   0.424   0.653
 1034HOH     H1 3289   3.828   0.383   0.619
 1034HOH     H2 3290   3.900   0.412   0.748
 1035HOH      O 3291   1.519   1.388   1.558
 1035HOH     H1 3292   1.536   1.466   1.611
 1035HOH     H2 3293   1.532   1.314   1.617
 1036HOH      O 3294   1.713   2.435   1.232
 1036HOH     H1 3295   1.797   2.411   1.271
 1036HOH     H2 3296   1.663   2.354   1.231
 1037HOH      O 3297   2.342   0.637   2.484
 1037HOH     H1 3298   2.342   0.546   2.514
 1037HOH     H2 3299   2.284   0.682   2.545
 1038HOH      O 3300   2.150   1.452   4.033
 1038HOH     H1 3301   2.227   1.394   4.033
 1038HOH     H2 3302   2.077   1.395   4.007
 1039HOH      O 3303   3.263   1.526   3.658
 1039HOH     H1 3304   3.310   1.443   3.663
 1039HOH     H2 3305   3.255   1.543   3.564
 1040HOH      O 3306   0.011   3.777   1.633
 1040HOH     H1 3307   0.067   3.744   1.562
 1040HOH     H2 3308   0.060   3.851   1.670
 1041HOH      O 3309   0.712   0.481   0.462
 1041HOH     H1 3310   0.619   0.500   0.468
 1041HOH     H2 3311   0.754   0.566   0.447
 1042HOH      O 3312   2.717   3.527   0.019
 1042HOH     H1 3313   2.784   3.528   0.088
 1042HOH     H2 3314   2.693   3.434   0.010
 1043HOH      O 3315   2.976   1.777   3.645
 1043HOH     H1 3316   3.051   1.804   3.591
 1043HOH     H2 3317   2.930   1.714   3.590
 1044HOH      O 3318   3.006   2.576   3.069
 1044HOH     H1 3319   3.098   2.587   3.091
 1044HOH     H2 3320   2.990   2.482   3.080
 1045HOH      O 3321   3.238   0.850   0.602
 1045HOH     H1 3322   3.271   0.916   0.663
 1045HOH     H2 3323   3.297   0.855   0.527
 1046HOH      O 3324   0.983   0.696   3.919
 1046HOH     H1 3325   1.001   0.616   3.870
 1046HOH     H2 3326   0.956   0.665   4.006
 1047HOH      O 3327   2.977   0.229   2.590
 1047HOH     H1 3328   3.018   0.313   2.571
 1047HOH     H2 3329   3.050   0.167   2.593
 1048HOH      O 3330   3.918   0.335   2.484
 1048HOH     H1 3331   3.872   0.329   2.568
 1048HOH     H2 3332   4.009   0.349   2.508
 1049HOH      O 3333   1.920   0.836   1.038
 1049HOH     H1 3334   1.983   0.899   1.003
 1049HOH     H2 3335   1.901   0.778   0.965
 1050HOH      O 3336   0.211   0.569   2.979
 1050HOH     H1 3337   0.269   0.629   3.026
 1050HOH     H2 3338   0.149   0.538   3.045
 1051HOH      O 3339   2.653   2.399   1.601
 1051HOH     H1 3340   2.730   2.455   1.595
 1051HOH     H2 3341   2.683   2.321   1.647
 1052HOH      O 3342   1.623   0.978   1.904
 1052HOH     H1 3343   1.589   0.889   1.895
 1052HOH     H2 3344   1.586   1.011   1.986
 1053HOH      O 3345   1.768   2.641   0.364
 1053HOH     H1 3346   1.854   2.623   0.399
 1053HOH     H2 3347   1.750   2.732   0.389
 1054HOH      O 3348   2.115   2.094   3.893
 1054HOH     H1 3349   2.033   2.066   3.932
 1054HOH     H2 3350   2.124   2.040   3.814
 1055HOH      O 3351   2.277   2.820   3.038
 1055HOH     H1 3352   2.262   2.914   3.035
 1055HOH     H2 3353   2.236   2.791   3.119
 1056HOH      O 3354   3.633   1.981   1.752
 1056HOH     H1 3355   3.659   2.073   1.742
 1056HOH     H2 3356   3.543   1.984   1.782
 1057HOH      O 3357   2.566   3.526   2.515
 1057HOH     H1 3358   2.476   3.510   2.542
 1057HOH     H2 3359   2.581   3.465   2.443
 1058HOH      O 3360   0.822   3.264   1.576
 1058HOH     H1 3361   0.736   3.225   1.564
 1058HOH     H2 3362   0.858   3.272   1.488
 1059HOH      O 3363   1.110   1.183   3.429
 1059HOH     H1 3364   1.135   1.122   3.498
 1059HOH     H2 3365   1.104   1.268   3.473
 1060HOH      O 3366   3.960   3.345   3.707
 1060HOH     H1 3367   4.028   3.359   3.773
 1060HOH     H2 3368   4.006   3.305   3.633
 1061HOH      O 3369   0.582   1.967   0.282
 1061HOH     H1 3370   0.678   1.967   0.293
 1061HOH     H2 3371   0.567   1.913   0.205
 1062HOH      O 3372   1.372   1.519   0.203
 1062HOH     H1 3373   1.408   1.578   0.137
 1062HOH     H2 3374   1.394   1.561   0.286
 1063HOH      O 3375   3.420   3.433   1.399
 1063HOH     H1 3376   3.389   3.367   1.337
 1063HOH     H2 3377   3.351   3.436   1.466
 1064HOH      O 3378   3.373   2.044   1.725
 1064HOH     H1 3379   3.385   2.139   1.730
 1064HOH     H2 3380   3.311   2.032   1.653
 1065HOH      O 3381   3.387   2.315   1.830
 1065HOH     H1 3382   3.414   2.405   1.846
 1065HOH     H2 3383   3.325   2.321   1.757
 1066HOH      O 3384   3.147   2.656   1.503
 1066HOH     H1 3385   3.148   2.574   1.452
 1066HOH     H2 3386   3.226   2.651   1.556
 1067HOH      O 3387   1.083   3.839   0.447
 1067HOH     H1 3388   1.123   3.758   0.416
 1067HOH     H2 3389   1.154   3.903   0.447
 1068HOH      O 3390   1.215   3.348   2.722
 1068HOH     H1 3391   1.134   3.337   2.672
 1068HOH     H2 3392   1.202   3.297   2.802
 1069HOH      O 3393   1.005   0.031   0.806
 1069HOH     H1 3394   0.927   0.033   0.752
 1069HOH     H2 3395   0.976   0.062   0.892
 1070HOH      O 3396   0.444   3.651   3.308
 1070HOH     H1 3397   0.442   3.734   3.356
 1070HOH     H2 3398   0.351   3.630   3.294
 1071HOH      O 3399   3.935   0.036   3.156
 1071HOH     H1 3400   3.860   0.050   3.099
 1071HOH     H2 3401   4.011   0.061   3.103
 1072HOH      O 3402   2.681   2.260   1.250
 1072HOH     H1 3403   2.752   2.228   1.194
 1072HOH     H2 3404   2.718   2.337   1.294
 1073HOH      O 3405   0.591   1.929   2.321
 1073HOH     H1 3406   0.582   1.941   2.226
 1073HOH     H2 3407   0.515   1.974   2.358
 1074HOH      O 3408   1.534   2.616   0.095
 1074HOH     H1 3409   1.459   2.608   0.035
 1074HOH     H2 3410   1.525   2.704   0.132
 1075HOH      O 3411   1.608   2.328   0.717
 1075HOH     H1 3412   1.626   2.334   0.623
 1075HOH     H2 3413   1.686   2.363   0.759
 1076HOH      O 3414   2.323   1.930   0.563
 1076HOH     H1 3415   2.411   1.963   0.579
 1076HOH     H2 3416   2.267   1.980   0.623
 1077HOH      O 3417   0.263   2.793   3.605
 1077HOH     H1 3418   0.264   2.816   3.698
 1077HOH     H2 3419   0.277   2.877   3.560
 1078HOH      O 3420   2.326   3.548   0.485
 1078HOH     H1 3421   2.333   3.628   0.434
 1078HOH     H2 3422   2.365   3.570   0.570
 1079HOH      O 3423   2.158   3.398   3.090
 1079HOH     H1 3424   2.205   3.464   3.039
 1079HOH     H2 3425   2.109   3.347   3.025
 1080HOH      O 3426   3.891   2.137   3.256
 1080HOH     H1 3427   3.841   2.188   3.320
 1080HOH     H2 3428   3.934   2.203   3.201
 1081HOH      O 3429   2.296   3.376   0.887
 1081HOH     H1 3430   2.206   3.377   0.853
 1081HOH     H2 3431   2.320   3.469   0.893
 1082HOH      O 3432   0.568   0.354   3.586
 1082HOH     H1 3433   0.586   0.324   3.675
 1082HOH     H2 3434   0.654   0.377   3.550
 1083HOH      O 3435   2.709   3.424   1.342
 1083HOH     H1 3436   2.671   3.377   1.268
 1083HOH     H2 3437   2.727   3.356   1.407
 1084HOH      O 3438   3.756   1.352   2.142
 1084HOH     H1 3439   3.780   1.357   2.235
 1084HOH     H2 3440   3.748   1.444   2.115
 1085HOH      O 3441   0.987   2.621   0.932
 1085HOH     H1 3442   0.967   2.527   0.926
 1085HOH     H2 3443   1.065   2.632   0.879
 1086HOH      O 3444   1.025   0.489   3.735
 1086HOH     H1 3445   1.061   0.441   3.810
 1086HOH     H2 3446   1.101   0.530   3.694
 1087HOH      O 3447   2.797   0.210   2.082
 1087HOH     H1 3448   2.708   0.212   2.116
 1087HOH     H2 3449   2.851   0.242   2.155
 1088HOH      O 3450   0.392   1.537   3.735
 1088HOH     H1 3451   0.444   1.460   3.760
 1088HOH     H2 3452   0.437   1.571   3.657
 1089HOH      O 3453   1.022   3.509   0.266
 1089HOH     H1 3454   1.098   3.557   0.301
 1089HOH     H2 3455   1.018   3.535   0.174
 1090HOH      O 3456   2.665   1.983   3.006
 1090HOH     H1 3457   2.623   2.004   3.089
 1090HOH     H2 3458   2.649   1.889   2.993
 1091HOH      O 3459   3.596   1.235   3.562
 1091HOH     H1 3460   3.561   1.269   3.480
 1091HOH     H2 3461   3.663   1.172   3.536
 1092HOH      O 3462   2.334   1.846   3.136
 1092HOH     H1 3463   2.358   1.763   3.176
 1092HOH     H2 3464   2.248   1.830   3.097
 1093HOH      O 3465   2.604   3.689   1.758
 1093HOH     H1 3466   2.654   3.721   1.683
 1093HOH     H2 3467   2.623   3.596   1.762
 1094HOH      O 3468   3.906   3.023   1.158
 1094HOH     H1 3469   3.830   2.968   1.137
 1094HOH     H2 3470   3.881   3.111   1.127
 1095HOH      O 3471   1.666   1.495   2.472
 1095HOH     H1 3472   1.711   1.552   2.409
 1095HOH     H2 3473   1.629   1.425   2.418
 1096HOH      O 3474   1.646   0.451   3.675
 1096HOH     H1 3475   1.633   0.544   3.655
 1096HOH     H2 3476   1.608   0.440   3.762
 1097HOH      O 3477   0.650   0.804   2.801
 1097HOH     H1 3478   0.573   0.751   2.822
 1097HOH     H2 3479   0.708   0.745   2.754
 1098HOH      O 3480   1.103   2.160   1.266
 1098HOH     H1 3481   1.052   2.129   1.341
 1098HOH     H2 3482   1.192   2.167   1.299
 1099HOH      O 3483   2.900   2.801   1.767
 1099HOH     H1 3484   2.875   2.719   1.809
 1099HOH     H2 3485   2.972   2.834   1.820
 1100HOH      O 3486   2.984   4.009   2.803
 1100HOH     H1 3487   2.926   3.957   2.747
 1100HOH     H2 3488   3.033   3.944   2.854
 1101HOH      O 3489   0.741   3.591   2.269
 1101HOH     H1 3490   0.777   3.658   2.210
 1101HOH     H2 3491   0.816   3.564   2.323
 1102HOH      O 3492   1.892   0.898   1.931
 1102HOH     H1 3493   1.836   0.944   1.868
 1102HOH     H2 3494   1.840   0.894   2.011
 1103HOH      O 3495   3.369   2.508   0.961
 1103HOH     H1 3496   3.306   2.495   0.890
 1103HOH     H2 3497   3.447   2.460   0.933
 1104HOH      O 3498   3.269   0.394   0.128
 1104HOH     H1 3499   3.302   0.469   0.176
 1104HOH     H2 3500   3.181   0.380   0.163
 1105HOH      O 3501   1.266   3.645   0.374
 1105HOH     H1 3502   1.292   3.625   0.464
 1105HOH     H2 3503   1.345   3.626   0.322
 1106HOH      O 3504   1.800   2.062   0.622
 1106HOH     H1 3505   1.740   2.116   0.571
 1106HOH     H2 3506   1.753   1.979   0.633
 1107HOH      O 3507   0.893   1.845   2.289
 1107HOH     H1 3508   0.845   1.912   2.240
 1107HOH     H2 3509   0.917   1.888   2.371
 1108HOH      O 3510   3.975   0.382   2.129
 1108HOH     H1 3511   4.007   0.428   2.051
 1108HOH     H2 3512   4.052   0.377   2.187
 1109HOH      O 3513   0.532   2.641   3.861
 1109HOH     H1 3514   0.569   2.640   3.949
 1109HOH     H2 3515   0.454   2.695   3.868
 1110HOH      O 3516   0.482   0.619   2.901
 1110HOH     H1 3517   0.556   0.562   2.880
 1110HOH     H2 3518   0.404   0.568   2.876
 1111HOH      O 3519   2.015   1.435   0.482
 1111HOH     H1 3520   2.086   1.491   0.451
 1111HOH     H2 3521   1.965   1.491   0.541
 1112HOH      O 3522   3.891   3.659   2.801
 1112HOH     H1 3523   3.802   3.693   2.804
 1112HOH     H2 3524   3.897   3.599   2.876
 1113HOH      O 3525   3.974   0.068   2.400
 1113HOH     H1 3526   3.926  -0.001   2.355
 1113HOH     H2 3527   3.914   0.142   2.400
 1114HOH      O 3528   3.773   3.443   0.194
 1114HOH     H1 3529   3.819   3.398   0.122
 1114HOH     H2 3530   3.844   3.476   0.250
 1115HOH      O 3531   3.363   1.211   1.012
 1115HOH     H1 3532   3.399   1.300   1.022
 1115HOH     H2 3533   3.272   1.225   0.984
 1116HOH      O 3534   2.329   2.880   3.456
 1116HOH     H1 3535   2.368   2.929   3.529
 1116HOH     H2 3536   2.302   2.797   3.494
 1117HOH      O 3537   3.710   2.768   1.169
 1117HOH     H1 3538   3.643   2.787   1.103
 1117HOH     H2 3539   3.687   2.823   1.243
 1118HOH      O 3540   1.692   4.017   3.822
 1118HOH     H1 3541   1.766   3.996   3.879
 1118HOH     H2 3542   1.732   4.064   3.749
 1119HOH      O 3543   3.940   2.419   3.609
 1119HOH     H1 3544   3.996   2.485   3.568
 1119HOH     H2 3545   3.974   2.411   3.698
 1120HOH      O 3546   3.725   1.381   2.399
 1120HOH     H1 3547   3.692   1.300   2.436
 1120HOH     H2 3548   3.775   1.421   2.471
 1121HOH      O 3549   1.576   1.295   3.790
 1121HOH     H1 3550   1.510   1.234   3.825
 1121HOH     H2 3551   1.588   1.267   3.699
 1122HOH      O 3552   0.247   1.160   3.888
 1122HOH     H1 3553   0.247   1.124   3.977
 1122HOH     H2 3554   0.229   1.084   3.832
 1123HOH      O 3555   0.044   0.771   3.205
 1123HOH     H1 3556   0.118   0.828   3.227
 1123HOH     H2 3557   0.051   0.699   3.268
 1124HOH      O 3558   1.928   3.217   2.153
 1124HOH     H1 3559   1.973   3.285   2.103
 1124HOH     H2 3560   1.949   3.236   2.244
 1125HOH      O 3561   3.196   2.178   1.130
 1125HOH     H1 3562   3.133   2.117   1.092
 1125HOH     H2 3563   3.190   2.163   1.224
 1126HOH      O 3564   0.215   3.925   0.541
 1126HOH     H1 3565   0.214   4.012   0.582
 1126HOH     H2 3566   0.218   3.944   0.447
 1127HOH      O 3567   3.314   1.212   2.954
 1127HOH     H1 3568   3.326   1.307   2.952
 1127HOH     H2 3569   3.220   1.199   2.963
 1128HOH      O 3570   1.971   2.848   1.696
 1128HOH     H1 3571   1.979   2.929   1.645
 1128HOH     H2 3572   1.956   2.780   1.630
 1129HOH      O 3573   1.414   1.868   3.416
 1129HOH     H1 3574   1.492   1.907   3.455
 1129HOH     H2 3575   1.343   1.927   3.440
 1130HOH      O 3576   1.528   0.224   2.826
 1130HOH     H1 3577   1.442   0.180   2.826
 1130HOH     H2 3578   1.582   0.169   2.883
 1131HOH      O 3579   3.391   0.045   2.259
 1131HOH     H1 3580   3.420  -0.020   2.323
 1131HOH     H2 3581   3.344  -0.006   2.193
 1132HOH      O 3582   0.490   3.431   1.581
 1132HOH     H1 3583   0.511   3.372   1.653
 1132HOH     H2 3584   0.409   3.473   1.608
 1133HOH      O 3585   0.437   2.567   2.659
 1133HOH     H1 3586   0.373   2.604   2.719
 1133HOH     H2 3587   0.478   2.642   2.617
 1134HOH      O 3588   1.588   2.782   1.899
 1134HOH     H1 3589   1.643   2.726   1.954
 1134HOH     H2 3590   1.599   2.746   1.810
 1135HOH      O 3591   2.558   0.633   1.726
 1135HOH     H1 3592   2.600   0.583   1.656
 1135HOH     H2 3593   2.615   0.708   1.739
 1136HOH      O 3594   0.819   1.785   0.672
 1136HOH     H1 3595   0.892   1.847   0.682
 1136HOH     H2 3596   0.838   1.740   0.589
 1137HOH      O 3597   1.608   1.634   2.685
 1137HOH     H1 3598   1.611   1.575   2.609
 1137HOH     H2 3599   1.689   1.684   2.679
 1138HOH      O 3600   0.945   3.352   2.643
 1138HOH     H1 3601   0.901   3.426   2.685
 1138HOH     H2 3602   0.873   3.296   2.612
 1139HOH      O 3603   2.349   1.172   2.764
 1139HOH     H1 3604   2.430   1.206   2.726
 1139HOH     H2 3605   2.283   1.183   2.695
 1140HOH      O 3606   1.294   3.211   0.308
 1140HOH     H1 3607   1.329   3.232   0.222
 1140HOH     H2 3608   1.328   3.123   0.327
 1141HOH      O 3609   1.890   2.918   2.076
 1141HOH     H1 3610   1.898   2.980   2.148
 1141HOH     H2 3611   1.868   2.972   2.000
 1142HOH      O 3612   3.475   2.514   0.687
 1142HOH     H1 3613   3.437   2.500   0.601
 1142HOH     H2 3614   3.474   2.609   0.699
 1143HOH      O 3615   0.399   1.923   0.048
 1143HOH     H1 3616   0.368   1.964   0.129
 1143HOH     H2 3617   0.355   1.839   0.045
 1144HOH      O 3618   2.552   0.403   2.082
 1144HOH     H1 3619   2.483   0.337   2.088
 1144HOH     H2 3620   2.522   0.474   2.139
 1145HOH      O 3621   1.882   1.630   1.179
 1145HOH     H1 3622   1.831   1.592   1.108
 1145HOH     H2 3623   1.946   1.685   1.136
 1146HOH      O 3624   1.004   1.955   2.519
 1146HOH     H1 3625   0.911   1.946   2.539
 1146HOH     H2 3626   1.034   2.027   2.575
 1147HOH      O 3627   1.940   1.102   0.697
 1147HOH     H1 3628   1.961   1.076   0.607
 1147HOH     H2 3629   1.861   1.052   0.718
 1148HOH      O 3630   2.343   0.957   0.701
 1148HOH     H1 3631   2.294   0.941   0.620
 1148HOH     H2 3632   2.274   0.966   0.767
 1149HOH      O 3633   0.872   3.762   0.566
 1149HOH     H1 3634   0.895   3.669   0.569
 1149HOH     H2 3635   0.948   3.804   0.526
 1150HOH      O 3636   0.366   3.148   0.184
 1150HOH     H1 3637   0.379   3.065   0.139
 1150HOH     H2 3638   0.291   3.133   0.241
 1151HOH      O 3639   1.500   1.240   1.778
 1151HOH     H1 3640   1.473   1.156   1.816
 1151HOH     H2 3641   1.427   1.299   1.797
 1152HOH      O 3642   2.628   1.002   0.713
 1152HOH     H1 3643   2.662   0.915   0.692
 1152HOH     H2 3644   2.535   0.997   0.692
 1153HOH      O 3645   3.982   1.932   1.401
 1153HOH     H1 3646   3.959   1.966   1.315
 1153HOH     H2 3647   3.966   2.006   1.460
 1154HOH      O 3648   1.826   2.418   1.659
 1154HOH     H1 3649   1.825   2.409   1.755
 1154HOH     H2 3650   1.735   2.434   1.635
 1155HOH      O 3651   1.444   1.860   3.049
 1155HOH     H1 3652   1.412   1.780   3.007
 1155HOH     H2 3653   1.481   1.829   3.132
 1156HOH      O 3654   1.616   0.631   3.081
 1156HOH     H1 3655   1.534   0.680   3.090
 1156HOH     H2 3656   1.605   0.582   2.999
 1157HOH      O 3657   1.171   2.001   3.491
 1157HOH     H1 3658   1.098   2.017   3.431
 1157HOH     H2 3659   1.195   2.089   3.523
 1158HOH      O 3660   1.964   1.862   2.315
 1158HOH     H1 3661   1.996   1.881   2.227
 1158HOH     H2 3662   1.957   1.948   2.357
 1159HOH      O 3663   0.080   1.659   1.988
 1159HOH     H1 3664   0.099   1.664   1.894
 1159HOH     H2 3665   0.026   1.736   2.005
 1160HOH      O 3666   0.602   1.077   0.632
 1160HOH     H1 3667   0.652   1.150   0.669
 1160HOH     H2 3668   0.664   1.003   0.633
 1161HOH      O 3669   2.083   0.050   1.320
 1161HOH     H1 3670   2.024   0.108   1.273
 1161HOH     H2 3671   2.165   0.055   1.270
 1162HOH      O 3672   3.465   2.165   1.016
 1162HOH     H1 3673   3.528   2.231   1.042
 1162HOH     H2 3674   3.381   2.196   1.049
 1163HOH      O 3675   1.976   1.528   0.232
 1163HOH     H1 3676   2.020   1.510   0.149
 1163HOH     H2 3677   2.031   1.592   0.276
 1164HOH      O 3678   2.863   0.037   1.609
 1164HOH     H1 3679   2.807   0.102   1.653
 1164HOH     H2 3680   2.866   0.066   1.518
 1165HOH      O 3681   0.263   1.851   0.555
 1165HOH     H1 3682   0.187   1.904   0.530
 1165HOH     H2 3683   0.293   1.813   0.473
 1166HOH      O 3684   1.375   3.499   3.031
 1166HOH     H1 3685   1.346   3.530   3.117
 1166HOH     H2 3686   1.356   3.405   3.032
 1167HOH      O 3687   3.114   2.441   1.347
 1167HOH     H1 3688   3.112   2.347   1.367
 1167HOH     H2 3689   3.033   2.457   1.298
 1168HOH      O 3690   0.083   3.331   0.167
 1168HOH     H1 3691   0.063   3.277   0.244
 1168HOH     H2 3692   0.098   3.418   0.202
 1169HOH      O 3693   1.568   0.438   2.208
 1169HOH     H1 3694   1.485   0.450   2.253
 1169HOH     H2 3695   1.554   0.478   2.122
 1170HOH      O 3696   2.363   3.134   3.370
 1170HOH     H1 3697   2.348   3.043   3.393
 1170HOH     H2 3698   2.452   3.153   3.401
 1171HOH      O 3699   2.391   1.129   2.008
 1171HOH     H1 3700   2.331   1.077   2.063
 1171HOH     H2 3701   2.336   1.159   1.935
 1172HOH      O 3702   0.641   2.260   3.216
 1172HOH     H1 3703   0.628   2.165   3.207
 1172HOH     H2 3704   0.573   2.288   3.276
 1173HOH      O 3705   2.546   2.429   0.503
 1173HOH     H1 3706   2.530   2.521   0.526
 1173HOH     H2 3707   2.513   2.379   0.578
 1174HOH      O 3708   2.111   3.044   2.791
 1174HOH     H1 3709   2.139   3.086   2.710
 1174HOH     H2 3710   2.070   2.962   2.763
 1175HOH      O 3711   0.100   1.694   1.340
 1175HOH     H1 3712   0.148   1.697   1.423
 1175HOH     H2 3713   0.053   1.777   1.336
 1176HOH      O 3714   1.359   0.656   2.375
 1176HOH     H1 3715   1.347   0.561   2.367
 1176HOH     H2 3716   1.290   0.694   2.321
 1177HOH      O 3717   2.748   0.211   1.787
 1177HOH     H1 3718   2.684   0.173   1.846
 1177HOH     H2 3719   2.818   0.242   1.845
 1178HOH      O 3720   1.587   1.321   2.236
 1178HOH     H1 3721   1.540   1.243   2.208
 1178HOH     H2 3722   1.669   1.319   2.186
 1179HOH      O 3723   0.794   3.486   1.757
 1179HOH     H1 3724   0.797   3.419   1.689
 1179HOH     H2 3725   0.707   3.477   1.796
 1180HOH      O 3726   2.270   0.562   0.948
 1180HOH     H1 3727   2.202   0.557   0.881
 1180HOH     H2 3728   2.232   0.518   1.024
 1181HOH      O 3729   0.481   0.698   0.931
 1181HOH     H1 3730   0.490   0.706   1.026
 1181HOH     H2 3731   0.467   0.788   0.901
 1182HOH      O 3732   3.170   1.916   0.767
 1182HOH     H1 3733   3.207   1.829   0.779
 1182HOH     H2 3734   3.132   1.939   0.852
 1183HOH      O 3735   3.800   0.358   1.540
 1183HOH     H1 3736   3.786   0.376   1.447
 1183HOH     H2 3737   3.862   0.286   1.541
 1184HOH      O 3738   3.910   1.348   3.633
 1184HOH     H1 3739   3.890   1.433   3.593
 1184HOH     H2 3740   3.870   1.284   3.574
 1185HOH      O 3741   2.412   2.904   2.552
 1185HOH     H1 3742   2.461   2.982   2.578
 1185HOH     H2 3743   2.407   2.852   2.632
 1186HOH      O 3744   2.703   3.851   3.872
 1186HOH     H1 3745   2.672   3.790   3.806
 1186HOH     H2 3746   2.631   3.912   3.884
 1187HOH      O 3747   0.346   3.443   2.450
 1187HOH     H1 3748   0.419   3.420   2.507
 1187HOH     H2 3749   0.350   3.538   2.442
 1188HOH      O 3750   3.162   0.231   2.822
 1188HOH     H1 3751   3.199   0.319   2.832
 1188HOH     H2 3752   3.212   0.178   2.884
 1189HOH      O 3753   2.210   1.523   1.590
 1189HOH     H1 3754   2.245   1.606   1.624
 1189HOH     H2 3755   2.246   1.517   1.501
 1190HOH      O 3756   3.633   0.127   2.448
 1190HOH     H1 3757   3.629   0.197   2.382
 1190HOH     H2 3758   3.682   0.057   2.405
 1191HOH      O 3759   3.977   0.075   2.077
 1191HOH     H1 3760   3.889   0.045   2.057
 1191HOH     H2 3761   4.017   0.001   2.124
 1192HOH      O 3762   3.744   1.048   1.710
 1192HOH     H1 3763   3.731   1.107   1.635
 1192HOH     H2 3764   3.762   0.963   1.670
 1193HOH      O 3765   3.744   1.451   1.397
 1193HOH     H1 3766   3.832   1.416   1.389
 1193HOH     H2 3767   3.756   1.545   1.410
 1194HOH      O 3768   0.249   3.131   3.029
 1194HOH     H1 3769   0.278   3.104   3.116
 1194HOH     H2 3770   0.154   3.133   3.034
 1195HOH      O 3771   1.735   3.084   3.816
 1195HOH     H1 3772   1.786   3.005   3.798
 1195HOH     H2 3773   1.775   3.151   3.761
 1196HOH      O 3774   2.724   1.579   1.944
 1196HOH     H1 3775   2.676   1.497   1.938
 1196HOH     H2 3776   2.768   1.588   1.860
 1197HOH      O 3777   3.079   0.078   1.298
 1197HOH     H1 3778   2.988   0.079   1.269
 1197HOH     H2 3779   3.099   0.169   1.319
 1198HOH      O 3780   0.286   4.006   0.010
 1198HOH     H1 3781   0.192   4.003  -0.008
 1198HOH     H2 3782   0.306   3.919   0.046
 1199HOH      O 3783   2.411   2.568   0.228
 1199HOH     H1 3784   2.490   2.516   0.243
 1199HOH     H2 3785   2.422   2.645   0.283
 1200HOH      O 3786   3.270   0.428   2.559
 1200HOH     H1 3787   3.314   0.348   2.531
 1200HOH     H2 3788   3.277   0.428   2.654
 1201HOH      O 3789   1.611   0.744   2.375
 1201HOH     H1 3790   1.645   0.687   2.443
 1201HOH     H2 3791   1.526   0.707   2.353
 1202HOH      O 3792   1.354   0.293   3.270
 1202HOH     H1 3793   1.413   0.234   3.316
 1202HOH     H2 3794   1.347   0.256   3.182
 1203HOH      O 3795   1.173   2.575   3.374
 1203HOH     H1 3796   1.251   2.619   3.340
 1203HOH     H2 3797   1.100   2.622   3.334
 1204HOH      O 3798   3.708   3.700   0.151
 1204HOH     H1 3799   3.750   3.685   0.067
 1204HOH     H2 3800   3.687   3.612   0.183
 1205HOH      O 3801   0.856   3.569   3.529
 1205HOH     H1 3802   0.910   3.491   3.519
 1205HOH     H2 3803   0.912   3.641   3.501
 1206HOH      O 3804   3.044   2.118   0.649
 1206HOH     H1 3805   3.112   2.174   0.612
 1206HOH     H2 3806   3.091   2.050   0.696
 1207HOH      O 3807   0.802   2.791   4.006
 1207HOH     H1 3808   0.726   2.753   4.049
 1207HOH     H2 3809   0.851   2.716   3.973
 1208HOH      O 3810   3.827   1.703   1.414
 1208HOH     H1 3811   3.910   1.750   1.402
 1208HOH     H2 3812   3.767   1.768   1.448
 1209HOH      O 3813   0.850   3.057   1.812
 1209HOH     H1 3814   0.837   3.135   1.757
 1209HOH     H2 3815   0.876   3.092   1.897
 1210HOH      O 3816   2.435   0.585   3.134
 1210HOH     H1 3817   2.356   0.569   3.081
 1210HOH     H2 3818   2.482   0.501   3.132
 1211HOH      O 3819   3.419   3.324   1.715
 1211HOH     H1 3820   3.447   3.368   1.795
 1211HOH     H2 3821   3.492   3.337   1.654
 1212HOH      O 3822   2.317   0.164   0.429
 1212HOH     H1 3823   2.341   0.118   0.509
 1212HOH     H2 3824   2.332   0.100   0.359
 1213HOH      O 3825   2.608   0.142   3.888
 1213HOH     H1 3826   2.524   0.098   3.879
 1213HOH     H2 3827   2.588   0.224   3.934
 1214HOH      O 3828   0.199   3.001   2.459
 1214HOH     H1 3829   0.123   3.051   2.429
 1214HOH     H2 3830   0.250   3.065   2.510
 1215HOH      O 3831   2.065   1.898   1.657
 1215HOH     H1 3832   2.158   1.886   1.677
 1215HOH     H2 3833   2.047   1.988   1.680
 1216HOH      O 3834   0.326   2.123   0.272
 1216HOH     H1 3835   0.412   2.081   0.286
 1216HOH     H2 3836   0.347   2.205   0.227
 1217HOH      O 3837   0.983   0.664   2.265
 1217HOH     H1 3838   1.041   0.602   2.222
 1217HOH     H2 3839   0.915   0.610   2.305
 1218HOH      O 3840   3.944   2.539  -0.003
 1218HOH     H1 3841   3.980   2.622  -0.035
 1218HOH     H2 3842   4.013   2.503   0.053
 1219HOH      O 3843   0.035   1.418   2.068
 1219HOH     H1 3844  -0.054   1.414   2.102
 1219HOH     H2 3845   0.051   1.511   2.052
 1220HOH      O 3846   1.591   2.170   1.973
 1220HOH     H1 3847   1.579   2.200   1.883
 1220HOH     H2 3848   1.630   2.083   1.964
 1221HOH      O 3849   3.167   3.697   3.958
 1221HOH     H1 3850   3.198   3.734   3.875
 1221HOH     H2 3851   3.074   3.683   3.945
 1222HOH      O 3852   0.308   0.973   2.134
 1222HOH     H1 3853   0.305   1.068   2.142
 1222HOH     H2 3854   0.297   0.957   2.040
 1223HOH      O 3855   1.254   1.832   1.293
 1223HOH     H1 3856   1.165   1.845   1.326
 1223HOH     H2 3857   1.256   1.740   1.267
 1224HOH      O 3858   1.143   0.722   3.122
 1224HOH     H1 3859   1.104   0.795   3.170
 1224HOH     H2 3860   1.237   0.740   3.123
 1225HOH      O 3861   0.848   3.995   2.299
 1225HOH     H1 3862   0.799   3.964   2.376
 1225HOH     H2 3863   0.867   4.087   2.319
 1226HOH      O 3864   2.277   0.236   1.175
 1226HOH     H1 3865   2.255   0.321   1.214
 1226HOH     H2 3866   2.371   0.227   1.190
 1227HOH      O 3867   0.901   3.247   1.997
 1227HOH     H1 3868   0.860   3.256   2.083
 1227HOH     H2 3869   0.995   3.256   2.015
 1228HOH      O 3870   1.054   0.581   2.905
 1228HOH     H1 3871   1.079   0.637   2.979
 1228HOH     H2 3872   1.137   0.545   2.874
 1229HOH      O 3873   0.130   1.362   3.420
 1229HOH     H1 3874   0.095   1.450   3.406
 1229HOH     H2 3875   0.135   1.353   3.515
 1230HOH      O 3876   3.570   3.211   0.145
 1230HOH     H1 3877   3.660   3.237   0.127
 1230HOH     H2 3878   3.521   3.294   0.146
 1231HOH      O 3879   2.767   0.418   3.914
 1231HOH     H1 3880   2.685   0.446   3.873
 1231HOH     H2 3881   2.772   0.469   3.995
 1232HOH      O 3882   1.150   1.455   2.555
 1232HOH     H1 3883   1.065   1.413   2.560
 1232HOH     H2 3884   1.184   1.452   2.644
 1233HOH      O 3885   2.500   3.163   0.190
 1233HOH     H1 3886   2.476   3.216   0.267
 1233HOH     H2 3887   2.525   3.228   0.124
 1234HOH      O 3888   3.067   1.092   3.815
 1234HOH     H1 3889   3.107   1.017   3.771
 1234HOH     H2 3890   2.973   1.080   3.803
 1235HOH      O 3891   1.259   3.201   3.747
 1235HOH     H1 3892   1.296   3.121   3.784
 1235HOH     H2 3893   1.231   3.176   3.659
 1236HOH      O 3894   1.467   0.910   1.596
 1236HOH     H1 3895   1.531   0.908   1.525
 1236HOH     H2 3896   1.519   0.900   1.675
 1237HOH      O 3897   1.797   0.805   2.166
 1237HOH     H1 3898   1.803   0.730   2.108
 1237HOH     H2 3899   1.741   0.776   2.238
 1238HOH      O 3900   2.066   2.213   0.906
 1238HOH     H1 3901   2.142   2.269   0.890
 1238HOH     H2 3902   2.048   2.224   0.999
 1239HOH      O 3903   3.233   3.263   2.644
 1239HOH     H1 3904   3.208   3.263   2.737
 1239HOH     H2 3905   3.327   3.246   2.645
 1240HOH      O 3906   2.713   1.324   1.158
 1240HOH     H1 3907   2.620   1.302   1.161
 1240HOH     H2 3908   2.753   1.273   1.228
 1241HOH      O 3909   1.151   0.989   0.877
 1241HOH     H1 3910   1.232   1.041   0.872
 1241HOH     H2 3911   1.180   0.898   0.868
 1242HOH      O 3912   0.655   2.084   3.680
 1242HOH     H1 3913   0.729   2.118   3.631
 1242HOH     H2 3914   0.595   2.052   3.613
 1243HOH      O 3915   3.315   2.907   2.134
 1243HOH     H1 3916   3.381   2.892   2.201
 1243HOH     H2 3917   3.320   3.000   2.115
 1244HOH      O 3918   2.096   2.846   3.585
 1244HOH     H1 3919   2.109   2.900   3.507
 1244HOH     H2 3920   2.128   2.760   3.560
 1245HOH      O 3921   0.738   1.597   1.510
 1245HOH     H1 3922   0.747   1.647   1.591
 1245HOH     H2 3923   0.644   1.585   1.500
 1246HOH      O 3924   2.519   0.366   2.684
 1246HOH     H1 3925   2.588   0.332   2.626
 1246HOH     H2 3926   2.554   0.448   2.718
 1247HOH      O 3927   1.665   3.063   3.442
 1247HOH     H1 3928   1.729   3.122   3.482
 1247HOH     H2 3929   1.643   3.104   3.359
 1248HOH      O 3930   0.848   3.703   1.375
 1248HOH     H1 3931   0.879   3.698   1.284
 1248HOH     H2 3932   0.765   3.654   1.375
 1249HOH      O 3933   2.297   1.951   0.908
 1249HOH     H1 3934   2.213   1.995   0.896
 1249HOH     H2 3935   2.301   1.932   1.002
 1250HOH      O 3936   0.585   3.068   3.109
 1250HOH     H1 3937   0.515   3.036   3.166
 1250HOH     H2 3938   0.573   3.163   3.107
 1251HOH      O 3939   0.137   2.486   2.794
 1251HOH     H1 3940   0.133   2.441   2.710
 1251HOH     H2 3941   0.063   2.450   2.843
 1252HOH      O 3942   3.992   3.003   2.770
 1252HOH     H1 3943   3.990   3.079   2.828
 1252HOH     H2 3944   4.057   2.945   2.810
 1253HOH      O 3945   1.375   1.718   0.723
 1253HOH     H1 3946   1.289   1.695   0.757
 1253HOH     H2 3947   1.393   1.653   0.656
 1254HOH      O 3948   3.493   0.986   2.318
 1254HOH     H1 3949   3.452   0.924   2.257
 1254HOH     H2 3950   3.572   0.941   2.348
 1255HOH      O 3951   1.989   3.654   2.877
 1255HOH     H1 3952   2.054   3.723   2.866
 1255HOH     H2 3953   1.959   3.663   2.967
 1256HOH      O 3954   3.142   2.265   2.026
 1256HOH     H1 3955   3.235   2.259   2.005
 1256HOH     H2 3956   3.136   2.230   2.115
 1257HOH      O 3957   0.290   3.555   1.722
 1257HOH     H1 3958   0.340   3.619   1.773
 1257HOH     H2 3959   0.249   3.499   1.787
 1258HOH      O 3960   0.545   3.451   2.649
 1258HOH     H1 3961   0.505   3.482   2.730
 1258HOH     H2 3962   0.564   3.531   2.599
 1259HOH      O 3963   0.455   2.962   0.918
 1259HOH     H1 3964   0.471   3.008   0.836
 1259HOH     H2 3965   0.374   2.913   0.904
 1260HOH      O 3966   3.660   3.535   1.453
 1260HOH     H1 3967   3.635   3.621   1.487
 1260HOH     H2 3968   3.577   3.490   1.437
 1261HOH      O 3969   0.082   3.101  -0.002
 1261HOH     H1 3970   0.038   3.033   0.049
 1261HOH     H2 3971   0.090   3.175   0.059
 1262HOH      O 3972   2.008   1.780  -0.016
 1262HOH     H1 3973   1.917   1.751  -0.018
 1262HOH     H2 3974   2.008   1.858   0.040
 1263HOH      O 3975   3.120   1.856   3.416
 1263HOH     H1 3976   3.210   1.882   3.395
 1263HOH     H2 3977   3.068   1.887   3.342
 1264HOH      O 3978   2.147   2.717   1.886
 1264HOH     H1 3979   2.198   2.667   1.822
 1264HOH     H2 3980   2.106   2.787   1.835
 1265HOH      O 3981   2.707   1.821   2.085
 1265HOH     H1 3982   2.758   1.748   2.049
 1265HOH     H2 3983   2.772   1.890   2.101
 1266HOH      O 3984   3.474   3.785   1.928
 1266HOH     H1 3985   3.449   3.706   1.975
 1266HOH     H2 3986   3.406   3.849   1.949
 1267HOH      O 3987   1.515   3.415   0.481
 1267HOH     H1 3988   1.581   3.410   0.550
 1267HOH     H2 3989   1.432   3.427   0.528
 1268HOH      O 3990   0.901   1.175   2.397
 1268HOH     H1 3991   0.869   1.225   2.322
 1268HOH     H2 3992   0.868   1.087   2.383
 1269HOH      O 3993   1.166   1.032   2.027
 1269HOH     H1 3994   1.187   1.010   1.936
 1269HOH     H2 3995   1.071   1.043   2.027
 1270HOH      O 3996   3.568   0.551   2.696
 1270HOH     H1 3997   3.495   0.519   2.749
 1270HOH     H2 3998   3.530   0.563   2.609
 1271HOH      O 3999   1.700   1.182   0.441
 1271HOH     H1 4000   1.786   1.188   0.400
 1271HOH     H2 4001   1.638   1.204   0.370
 1272HOH      O 4002   2.919   3.573   0.221
 1272HOH     H1 4003   3.002   3.551   0.262
 1272HOH     H2 4004   2.853   3.536   0.280
 1273HOH      O 4005   1.534   0.467   1.932
 1273HOH     H1 4006   1.580   0.384   1.941
 1273HOH     H2 4007   1.495   0.464   1.845
 1274HOH      O 4008   0.222   1.020   2.482
 1274HOH     H1 4009   0.218   1.095   2.541
 1274HOH     H2 4010   0.315   1.000   2.475
 1275HOH      O 4011   1.557   1.955   1.092
 1275HOH     H1 4012   1.648   1.925   1.084
 1275HOH     H2 4013   1.505   1.883   1.056
 1276HOH      O 4014   1.133   0.120   4.019
 1276HOH     H1 4015   1.114   0.091   3.930
 1276HOH     H2 4016   1.161   0.041   4.065
 1277HOH      O 4017   1.775   4.017   2.326
 1277HOH     H1 4018   1.709   4.029   2.257
 1277HOH     H2 4019   1.769   3.925   2.350
 1278HOH      O 4020   1.994   3.312   2.855
 1278HOH     H1 4021   2.016   3.226   2.819
 1278HOH     H2 4022   2.014   3.373   2.784
 1279HOH      O 4023   3.272   1.652   1.154
 1279HOH     H1 4024   3.368   1.648   1.149
 1279HOH     H2 4025   3.254   1.670   1.246
 1280HOH      O 4026   1.078   2.301   3.413
 1280HOH     H1 4027   1.027   2.324   3.335
 1280HOH     H2 4028   1.086   2.383   3.461
 1281HOH      O 4029   1.317   0.597   1.376
 1281HOH     H1 4030   1.360   0.515   1.351
 1281HOH     H2 4031   1.329   0.654   1.300
 1282HOH      O 4032   3.328   0.582   1.117
 1282HOH     H1 4033   3.390   0.644   1.077
 1282HOH     H2 4034   3.376   0.500   1.120
 1283HOH      O 4035   1.739   2.821   1.296
 1283HOH     H1 4036   1.669   2.772   1.252
 1283HOH     H2 4037   1.793   2.754   1.338
 1284HOH      O 4038   1.376   3.932   0.509
 1284HOH     H1 4039   1.332   3.914   0.592
 1284HOH     H2 4040   1.451   3.872   0.509
 1285HOH      O 4041   1.438   2.852   2.642
 1285HOH     H1 4042   1.503   2.804   2.591
 1285HOH     H2 4043   1.361   2.855   2.585
 1286HOH      O 4044   3.995   2.880   2.144
 1286HOH     H1 4045   3.937   2.936   2.196
 1286HOH     H2 4046   4.024   2.812   2.205
 1287HOH      O 4047   3.564   2.802   0.668
 1287HOH     H1 4048   3.592   2.785   0.578
 1287HOH     H2 4049   3.645   2.804   0.719
 1288HOH      O 4050   3.513   1.698   2.420
 1288HOH     H1 4051   3.488   1.736   2.336
 1288HOH     H2 4052   3.608   1.682   2.412
 1289HOH      O 4053   0.742   0.786   3.251
 1289HOH     H1 4054   0.762   0.719   3.185
 1289HOH     H2 4055   0.656   0.820   3.224
 1290HOH      O 4056   1.105   0.228   0.463
 1290HOH     H1 4057   1.012   0.240   0.483
 1290HOH     H2 4058   1.117   0.269   0.377
 1291HOH      O 4059   0.124   1.709   3.402
 1291HOH     H1 4060   0.176   1.788   3.412
 1291HOH     H2 4061   0.087   1.715   3.314
 1292HOH      O 4062   3.531   2.178   2.808
 1292HOH     H1 4063   3.511   2.094   2.849
 1292HOH     H2 4064   3.475   2.241   2.854
 1293HOH      O 4065   1.812   3.394   3.021
 1293HOH     H1 4066   1.854   3.353   2.945
 1293HOH     H2 4067   1.884   3.438   3.067
 1294HOH      O 4068   0.629   1.251   1.935
 1294HOH     H1 4069   0.623   1.167   1.979
 1294HOH     H2 4070   0.682   1.233   1.857
 1295HOH      O 4071   2.864   1.845   0.072
 1295HOH     H1 4072   2.868   1.919   0.132
 1295HOH     H2 4073   2.776   1.809   0.085
 1296HOH      O 4074   1.853   3.432   3.659
 1296HOH     H1 4075   1.823   3.479   3.737
 1296HOH     H2 4076   1.930   3.479   3.630
 1297HOH      O 4077   2.982   3.608   2.368
 1297HOH     H1 4078   3.039   3.585   2.441
 1297HOH     H2 4079   2.913   3.661   2.407
 1298HOH      O 4080   0.231   3.679   1.085
 1298HOH     H1 4081   0.192   3.695   1.171
 1298HOH     H2 4082   0.317   3.643   1.103
 1299HOH      O 4083   3.262   2.065   2.651
 1299HOH     H1 4084   3.301   1.982   2.676
 1299HOH     H2 4085   3.168   2.052   2.664
 1300HOH      O 4086   3.694   3.511   0.640
 1300HOH     H1 4087   3.670   3.483   0.552
 1300HOH     H2 4088   3.733   3.598   0.628
 1301HOH      O 4089   0.718   1.307   0.741
 1301HOH     H1 4090   0.798   1.279   0.784
 1301HOH     H2 4091   0.675   1.364   0.804
 1302HOH      O 4092   1.537   0.985   2.333
 1302HOH     H1 4093   1.569   0.895   2.343
 1302HOH     H2 4094   1.557   1.026   2.417
 1303HOH      O 4095   1.599   3.630   0.111
 1303HOH     H1 4096   1.527   3.574   0.141
 1303HOH     H2 4097   1.678   3.582   0.135
 1304HOH      O 4098   4.020   3.887   1.126
 1304HOH     H1 4099   3.963   3.810   1.113
 1304HOH     H2 4100   4.002   3.915   1.215
 1305HOH      O 4101   0.667   2.415   1.809
 1305HOH     H1 4102   0.718   2.447   1.735
 1305HOH     H2 4103   0.708   2.454   1.886
 1306HOH      O 4104   0.359   1.755   2.161
 1306HOH     H1 4105   0.309   1.718   2.088
 1306HOH     H2 4106   0.448   1.765   2.126
 1307HOH      O 4107   0.386   1.211   3.481
 1307HOH     H1 4108   0.344   1.240   3.562
 1307HOH     H2 4109   0.397   1.117   3.491
 1308HOH      O 4110   0.452   0.467   1.361
 1308HOH     H1 4111   0.423   0.452   1.451
 1308HOH     H2 4112   0.495   0.553   1.363
 1309HOH      O 4113   3.529   1.793   0.556
 1309HOH     H1 4114   3.525   1.781   0.461
 1309HOH     H2 4115   3.454   1.850   0.576
 1310HOH      O 4116   3.247   1.180   3.419
 1310HOH     H1 4117   3.193   1.108   3.453
 1310HOH     H2 4118   3.286   1.218   3.498
 1311HOH      O 4119   2.455   3.123   1.603
 1311HOH     H1 4120   2.404   3.201   1.627
 1311HOH     H2 4121   2.397   3.073   1.546
 1312HOH      O 4122   3.682   2.042   3.635
 1312HOH     H1 4123   3.705   2.006   3.721
 1312HOH     H2 4124   3.669   1.965   3.580
 1313HOH      O 4125   3.740   3.467   3.418
 1313HOH     H1 4126   3.807   3.400   3.410
 1313HOH     H2 4127   3.686   3.457   3.340
 1314HOH      O 4128   3.789   3.298   2.338
 1314HOH     H1 4129   3.855   3.282   2.406
 1314HOH     H2 4130   3.834   3.353   2.274
 1315HOH      O 4131   2.635   1.437   0.321
 1315HOH     H1 4132   2.544   1.459   0.302
 1315HOH     H2 4133   2.686   1.493   0.262
 1316HOH      O 4134   2.328   0.645   3.668
 1316HOH     H1 4135   2.377   0.583   3.722
 1316HOH     H2 4136   2.245   0.601   3.651
 1317HOH      O 4137   0.307   0.108   1.007
 1317HOH     H1 4138   0.235   0.159   1.045
 1317HOH     H2 4139   0.264   0.035   0.963
 1318HOH      O 4140   1.894   2.583   0.832
 1318HOH     H1 4141   1.883   2.498   0.791
 1318HOH     H2 4142   1.956   2.629   0.774
 1319HOH      O 4143   2.205   0.060   2.596
 1319HOH     H1 4144   2.153  -0.014   2.629
 1319HOH     H2 4145   2.239   0.030   2.512
 1320HOH      O 4146   2.921   2.730   0.939
 1320HOH     H1 4147   2.954   2.814   0.971
 1320HOH     H2 4148   2.945   2.728   0.846
 1321HOH      O 4149   0.706   0.321   1.896
 1321HOH     H1 4150   0.782   0.333   1.953
 1321HOH     H2 4151   0.655   0.251   1.937
 1322HOH      O 4152   2.486   3.746   0.366
 1322HOH     H1 4153   2.569   3.735   0.411
 1322HOH     H2 4154   2.506   3.732   0.273
 1323HOH      O 4155   3.226   0.270   2.212
 1323HOH     H1 4156   3.267   0.194   2.254
 1323HOH     H2 4157   3.262   0.270   2.123
 1324HOH      O 4158   0.963   2.983   1.227
 1324HOH     H1 4159   1.051   2.948   1.226
 1324HOH     H2 4160   0.926   2.959   1.142
 1325HOH      O 4161   1.720   3.137   2.609
 1325HOH     H1 4162   1.656   3.113   2.541
 1325HOH     H2 4163   1.727   3.058   2.662
 1326HOH      O 4164   0.242   4.046   2.188
 1326HOH     H1 4165   0.177   3.977   2.195
 1326HOH     H2 4166   0.278   4.037   2.100
 1327HOH      O 4167   3.338   1.262   3.682
 1327HOH     H1 4168   3.428   1.242   3.655
 1327HOH     H2 4169   3.325   1.209   3.761
 1328HOH      O 4170   3.902   0.393   3.477
 1328HOH     H1 4171   3.830   0.344   3.517
 1328HOH     H2 4172   3.953   0.327   3.429
 1329HOH      O 4173   3.391   4.045   0.644
 1329HOH     H1 4174   3.402   3.964   0.594
 1329HOH     H2 4175   3.478   4.062   0.680
 1330HOH      O 4176   1.959   0.183   1.989
 1330HOH     H1 4177   1.965   0.152   2.080
 1330HOH     H2 4178   1.943   0.277   1.997
 1331HOH      O 4179   1.617   2.545   2.856
 1331HOH     H1 4180   1.526   2.557   2.883
 1331HOH     H2 4181   1.668   2.585   2.926
 1332HOH      O 4182   1.678   2.453   3.669
 1332HOH     H1 4183   1.589   2.469   3.702
 1332HOH     H2 4184   1.669   2.453   3.574
 1333HOH      O 4185   2.831   2.139   0.808
 1333HOH     H1 4186   2.908   2.154   0.753
 1333HOH     H2 4187   2.820   2.044   0.808
 1334HOH      O 4188   2.488   2.642   2.109
 1334HOH     H1 4189   2.448   2.668   2.192
 1334HOH     H2 4190   2.443   2.562   2.084
 1335HOH      O 4191   3.340   1.713   0.849
 1335HOH     H1 4192   3.420   1.741   0.894
 1335HOH     H2 4193   3.370   1.645   0.788
 1336HOH      O 4194   0.813   1.724   1.268
 1336HOH     H1 4195   0.801   1.659   1.338
 1336HOH     H2 4196   0.730   1.771   1.264
 1337HOH      O 4197   2.236   3.082   2.322
 1337HOH     H1 4198   2.199   3.065   2.236
 1337HOH     H2 4199   2.330   3.081   2.308
 1338HOH      O 4200   3.417   1.938   2.268
 1338HOH     H1 4201   3.449   1.967   2.353
 1338HOH     H2 4202   3.342   1.994   2.249
 1339HOH      O 4203   3.469   2.292   3.979
 1339HOH     H1 4204   3.463   2.268   3.886
 1339HOH     H2 4205   3.541   2.355   3.983
 1340HOH      O 4206   3.538   2.954   2.465
 1340HOH     H1 4207   3.627   2.977   2.439
 1340HOH     H2 4208   3.513   2.884   2.404
 1341HOH      O 4209   1.985   2.134   1.758
 1341HOH     H1 4210   1.913   2.196   1.772
 1341HOH     H2 4211   2.028   2.128   1.843
 1342HOH      O 4212   1.990   1.997   0.146
 1342HOH     H1 4213   2.046   2.028   0.217
 1342HOH     H2 4214   1.921   2.063   0.139
 1343HOH      O 4215   0.947   2.763   3.211
 1343HOH     H1 4216   0.912   2.833   3.266
 1343HOH     H2 4217   0.871   2.722   3.171
 1344HOH      O 4218   2.496   3.688   0.081
 1344HOH     H1 4219   2.442   3.614   0.053
 1344HOH     H2 4220   2.584   3.667   0.051
 1345HOH      O 4221   3.896   1.512   2.615
 1345HOH     H1 4222   3.886   1.554   2.700
 1345HOH     H2 4223   3.902   1.418   2.635
 1346HOH      O 4224   3.806   3.722   3.402
 1346HOH     H1 4225   3.783   3.629   3.405
 1346HOH     H2 4226   3.802   3.750   3.494
 1347HOH      O 4227   0.249   1.607   3.130
 1347HOH     H1 4228   0.336   1.609   3.089
 1347HOH     H2 4229   0.192   1.569   3.064
 1348HOH      O 4230   2.999   1.147   0.574
 1348HOH     H1 4231   2.982   1.054   0.584
 1348HOH     H2 4232   2.914   1.189   0.592
 1349HOH      O 4233   3.468   0.676   2.093
 1349HOH     H1 4234   3.399   0.637   2.146
 1349HOH     H2 4235   3.483   0.614   2.022
 1350HOH      O 4236   1.037   0.296   0.191
 1350HOH     H1 4237   1.075   0.373   0.149
 1350HOH     H2 4238   1.092   0.223   0.162
 1351HOH      O 4239   2.180   2.012   1.284
 1351HOH     H1 4240   2.269   2.038   1.307
 1351HOH     H2 4241   2.183   1.916   1.281
 1352HOH      O 4242   1.801   1.642   2.274
 1352HOH     H1 4243   1.852   1.593   2.209
 1352HOH     H2 4244   1.851   1.723   2.286
 1353HOH      O 4245   3.445   1.425   2.266
 1353HOH     H1 4246   3.529   1.447   2.306
 1353HOH     H2 4247   3.438   1.486   2.192
 1354HOH      O 4248   2.345   0.627   0.486
 1354HOH     H1 4249   2.290   0.705   0.478
 1354HOH     H2 4250   2.324   0.574   0.408
 1355HOH      O 4251   2.937   3.042   1.027
 1355HOH     H1 4252   2.940   3.036   1.123
 1355HOH     H2 4253   3.027   3.027   0.998
 1356HOH      O 4254   3.459   3.747   0.563
 1356HOH     H1 4255   3.436   3.712   0.649
 1356HOH     H2 4256   3.554   3.759   0.566
 1357HOH      O 4257   3.240   0.852   2.667
 1357HOH     H1 4258   3.314   0.906   2.697
 1357HOH     H2 4259   3.281   0.784   2.614
 1358HOH      O 4260   3.609   0.928   0.102
 1358HOH     H1 4261   3.599   0.940   0.007
 1358HOH     H2 4262   3.578   1.010   0.140
 1359HOH      O 4263   0.903   2.559   3.911
 1359HOH     H1 4264   0.878   2.467   3.920
 1359HOH     H2 4265   0.965   2.561   3.838
 1360HOH      O 4266   0.807   1.924   2.848
 1360HOH     H1 4267   0.725   1.969   2.867
 1360HOH     H2 4268   0.808   1.914   2.753
 1361HOH      O 4269   1.285   2.838   2.244
 1361HOH     H1 4270   1.252   2.814   2.330
 1361HOH     H2 4271   1.380   2.829   2.251
 1362HOH      O 4272   3.900   3.601   1.322
 1362HOH     H1 4273   3.822   3.567   1.367
 1362HOH     H2 4274   3.914   3.540   1.250
 1363HOH      O 4275   3.009   3.118   3.348
 1363HOH     H1 4276   2.919   3.116   3.381
 1363HOH     H2 4277   3.012   3.194   3.290
 1364HOH      O 4278   2.612   1.562   0.921
 1364HOH     H1 4279   2.669   1.589   0.993
 1364HOH     H2 4280   2.583   1.474   0.943
 1365HOH      O 4281   3.649   1.996   2.478
 1365HOH     H1 4282   3.727   1.947   2.450
 1365HOH     H2 4283   3.618   1.950   2.555
 1366HOH      O 4284   3.750   0.345   1.935
 1366HOH     H1 4285   3.823   0.335   1.997
 1366HOH     H2 4286   3.677   0.299   1.976
 1367HOH      O 4287   2.870   3.616   0.926
 1367HOH     H1 4288   2.834   3.528   0.941
 1367HOH     H2 4289   2.881   3.622   0.832
 1368HOH      O 4290   1.737   3.632   2.689
 1368HOH     H1 4291   1.693   3.618   2.772
 1368HOH     H2 4292   1.830   3.640   2.712
 1369HOH      O 4293   0.153   1.272   1.863
 1369HOH     H1 4294   0.093   1.199   1.851
 1369HOH     H2 4295   0.120   1.319   1.939
 1370HOH      O 4296   2.473   3.372   2.865
 1370HOH     H1 4297   2.425   3.430   2.924
 1370HOH     H2 4298   2.562   3.407   2.866
 1371HOH      O 4299   3.511   0.389   0.602
 1371HOH     H1 4300   3.470   0.419   0.683
 1371HOH     H2 4301   3.534   0.469   0.555
 1372HOH      O 4302   3.847   2.758   1.549
 1372HOH     H1 4303   3.774   2.782   1.492
 1372HOH     H2 4304   3.810   2.697   1.612
 1373HOH      O 4305   0.839   1.919   1.977
 1373HOH     H1 4306   0.934   1.934   1.974
 1373HOH     H2 4307   0.804   1.995   2.024
 1374HOH      O 4308   0.281   2.018   1.351
 1374HOH     H1 4309   0.217   1.996   1.284
 1374HOH     H2 4310   0.307   2.108   1.330
 1375HOH      O 4311   2.730   1.619   3.564
 1375HOH     H1 4312   2.640   1.631   3.595
 1375HOH     H2 4313   2.726   1.641   3.471
 1376HOH      O 4314   1.963   3.602   1.265
 1376HOH     H1 4315   1.979   3.655   1.187
 1376HOH     H2 4316   1.945   3.514   1.230
 1377HOH      O 4317   1.417   1.182   3.566
 1377HOH     H1 4318   1.429   1.189   3.472
 1377HOH     H2 4319   1.332   1.139   3.577
 1378HOH      O 4320   0.687   1.642   2.347
 1378HOH     H1 4321   0.647   1.725   2.373
 1378HOH     H2 4322   0.770   1.667   2.306
 1379HOH      O 4323   2.841   2.596  -0.018
 1379HOH     H1 4324   2.918   2.618   0.035
 1379HOH     H2 4325   2.838   2.500  -0.016
 1380HOH      O 4326   3.155   0.123   0.788
 1380HOH     H1 4327   3.144   0.072   0.868
 1380HOH     H2 4328   3.230   0.083   0.744
 1381HOH      O 4329   1.722   3.626   3.843
 1381HOH     H1 4330   1.804   3.674   3.855
 1381HOH     H2 4331   1.683   3.625   3.930
 1382HOH      O 4332   3.551   0.516   1.416
 1382HOH     H1 4333   3.508   0.598   1.441
 1382HOH     H2 4334   3.546   0.462   1.495
 1383HOH      O 4335   0.893   3.762   1.103
 1383HOH     H1 4336   0.875   3.853   1.129
 1383HOH     H2 4337   0.859   3.756   1.013
 1384HOH      O 4338   2.901   0.210   3.980
 1384HOH     H1 4339   2.823   0.260   3.956
 1384HOH     H2 4340   2.907   0.142   3.913
 1385HOH      O 4341   2.020   1.558   0.734
 1385HOH     H1 4342   2.102   1.600   0.708
 1385HOH     H2 4343   2.046   1.471   0.764
 1386HOH      O 4344   1.459   0.239   0.127
 1386HOH     H1 4345   1.435   0.205   0.213
 1386HOH     H2 4346   1.468   0.161   0.072
 1387HOH      O 4347   0.593   2.293   2.274
 1387HOH     H1 4348   0.536   2.335   2.209
 1387HOH     H2 4349   0.533   2.243   2.329
 1388HOH      O 4350   1.184   3.131   3.507
 1388HOH     H1 4351   1.236   3.050   3.507
 1388HOH     H2 4352   1.145   3.134   3.420
 1389HOH      O 4353   3.771   1.988   0.466
 1389HOH     H1 4354   3.779   2.056   0.399
 1389HOH     H2 4355   3.681   1.957   0.457
 1390HOH      O 4356   3.343   2.362   2.937
 1390HOH     H1 4357   3.334   2.444   2.986
 1390HOH     H2 4358   3.258   2.319   2.947
 1391HOH      O 4359   2.657   1.618   0.043
 1391HOH     H1 4360   2.683   1.581  -0.041
 1391HOH     H2 4361   2.561   1.621   0.039
 1392HOH      O 4362   3.663   0.239   3.147
 1392HOH     H1 4363   3.685   0.231   3.240
 1392HOH     H2 4364   3.617   0.157   3.127
 1393HOH      O 4365   3.885   0.024   3.543
 1393HOH     H1 4366   3.811   0.057   3.493
 1393HOH     H2 4367   3.858  -0.065   3.569
 1394HOH      O 4368   1.938   0.684   1.714
 1394HOH     H1 4369   1.894   0.744   1.654
 1394HOH     H2 4370   1.965   0.610   1.659
 1395HOH      O 4371   3.895   1.861   2.196
 1395HOH     H1 4372   3.923   1.860   2.288
 1395HOH     H2 4373   3.811   1.908   2.198
 1396HOH      O 4374   3.595   2.557   1.947
 1396HOH     H1 4375   3.619   2.630   2.004
 1396HOH     H2 4376   3.548   2.496   2.004
 1397HOH      O 4377   3.965   1.043   2.877
 1397HOH     H1 4378   4.043   1.057   2.931
 1397HOH     H2 4379   3.905   0.995   2.935
 1398HOH      O 4380   1.701   0.261   1.234
 1398HOH     H1 4381   1.770   0.238   1.172
 1398HOH     H2 4382   1.702   0.191   1.299
 1399HOH      O 4383   0.932   1.645   3.730
 1399HOH     H1 4384   0.869   1.580   3.759
 1399HOH     H2 4385   0.963   1.613   3.645
 1400HOH      O 4386   2.912   3.577   2.688
 1400HOH     H1 4387   2.923   3.497   2.636
 1400HOH     H2 4388   2.994   3.624   2.676
 1401HOH      O 4389   1.518   2.523   1.720
 1401HOH     H1 4390   1.437   2.478   1.743
 1401HOH     H2 4391   1.571   2.520   1.800
 1402HOH      O 4392   3.244   2.312   0.601
 1402HOH     H1 4393   3.258   2.382   0.537
 1402HOH     H2 4394   3.329   2.301   0.643
 1403HOH      O 4395   4.046   0.443   3.126
 1403HOH     H1 4396   4.017   0.469   3.214
 1403HOH     H2 4397   3.970   0.399   3.088
 1404HOH      O 4398   3.108   3.310   2.330
 1404HOH     H1 4399   3.047   3.384   2.324
 1404HOH     H2 4400   3.054   3.236   2.357
 1405HOH      O 4401   2.004   2.550   2.057
 1405HOH     H1 4402   1.954   2.506   1.988
 1405HOH     H2 4403   2.046   2.624   2.012
 1406HOH      O 4404   0.831   3.767   1.659
 1406HOH     H1 4405   0.804   3.676   1.675
 1406HOH     H2 4406   0.840   3.772   1.563
 1407HOH      O 4407   2.790   3.256   1.849
 1407HOH     H1 4408   2.813   3.177   1.801
 1407HOH     H2 4409   2.831   3.246   1.934
 1408HOH      O 4410   1.292   3.597   3.274
 1408HOH     H1 4411   1.293   3.690   3.251
 1408HOH     H2 4412   1.339   3.592   3.357
 1409HOH      O 4413   0.966   2.069   3.015
 1409HOH     H1 4414   0.921   2.006   2.959
 1409HOH     H2 4415   1.058   2.064   2.987
 1410HOH      O 4416   1.400   1.728   4.004
 1410HOH     H1 4417   1.318   1.679   4.008
 1410HOH     H2 4418   1.404   1.762   3.915
 1411HOH      O 4419   1.910   0.606   0.175
 1411HOH     H1 4420   1.908   0.561   0.090
 1411HOH     H2 4421   1.821   0.638   0.187
 1412HOH      O 4422   0.779   0.583   3.075
 1412HOH     H1 4423   0.728   0.528   3.016
 1412HOH     H2 4424   0.854   0.611   3.022
 1413HOH      O 4425   0.219   1.047   2.982
 1413HOH     H1 4426   0.296   1.060   3.038
 1413HOH     H2 4427   0.251   1.064   2.893
 1414HOH      O 4428   1.829   2.122   2.901
 1414HOH     H1 4429   1.743   2.082   2.918
 1414HOH     H2 4430   1.874   2.117   2.985
 1415HOH      O 4431   0.220   1.349   3.657
 1415HOH     H1 4432   0.166   1.306   3.724
 1415HOH     H2 4433   0.268   1.416   3.706
 1416HOH      O 4434   1.340   1.180   0.898
 1416HOH     H1 4435   1.354   1.217   0.811
 1416HOH     H2 4436   1.288   1.246   0.944
 1417HOH      O 4437   3.629   1.247   3.066
 1417HOH     H1 4438   3.544   1.282   3.093
 1417HOH     H2 4439   3.690   1.320   3.080
 1418HOH      O 4440   1.076   3.490   1.868
 1418HOH     H1 4441   0.982   3.469   1.865
 1418HOH     H2 4442   1.109   3.443   1.944
 1419HOH      O 4443   3.691   0.670   0.815
 1419HOH     H1 4444   3.779   0.708   0.813
 1419HOH     H2 4445   3.666   0.663   0.723
 1420HOH      O 4446   3.307   1.180   2.288
 1420HOH     H1 4447   3.381   1.122   2.304
 1420HOH     H2 4448   3.346   1.267   2.278
 1421HOH      O 4449   0.498   0.783   1.203
 1421HOH     H1 4450   0.493   0.858   1.262
 1421HOH     H2 4451   0.585   0.746   1.218
 1422HOH      O 4452   3.197   1.391   1.267
 1422HOH     H1 4453   3.235   1.452   1.204
 1422HOH     H2 4454   3.166   1.318   1.214
 1423HOH      O 4455   0.336   2.422   0.858
 1423HOH     H1 4456   0.266   2.422   0.793
 1423HOH     H2 4457   0.337   2.332   0.892
 1424HOH      O 4458   3.473   2.183   0.716
 1424HOH     H1 4459   3.485   2.166   0.810
 1424HOH     H2 4460   3.536   2.252   0.696
 1425HOH      O 4461   0.418   3.081   1.454
 1425HOH     H1 4462   0.408   2.986   1.455
 1425HOH     H2 4463   0.457   3.101   1.369
 1426HOH      O 4464   0.394   0.558   1.619
 1426HOH     H1 4465   0.438   0.598   1.694
 1426HOH     H2 4466   0.396   0.464   1.638
 1427HOH      O 4467   1.546   2.074   2.816
 1427HOH     H1 4468   1.481   2.015   2.779
 1427HOH     H2 4469   1.526   2.159   2.777
 1428HOH      O 4470   1.777   0.489   0.479
 1428HOH     H1 4471   1.758   0.419   0.542
 1428HOH     H2 4472   1.710   0.478   0.411
 1429HOH      O 4473   0.426   3.994   1.660
 1429HOH     H1 4474   0.497   4.019   1.602
 1429HOH     H2 4475   0.429   4.059   1.731
 1430HOH      O 4476   2.425   1.806   2.400
 1430HOH     H1 4477   2.364   1.878   2.389
 1430HOH     H2 4478   2.423   1.759   2.317
 1431HOH      O 4479   2.662   1.585   2.669
 1431HOH     H1 4480   2.750   1.547   2.670
 1431HOH     H2 4481   2.645   1.602   2.576
 1432HOH      O 4482   0.417   1.257   1.765
 1432HOH     H1 4483   0.325   1.273   1.782
 1432HOH     H2 4484   0.458   1.260   1.852
 1433HOH      O 4485   1.353   0.854   3.850
 1433HOH     H1 4486   1.395   0.940   3.861
 1433HOH     H2 4487   1.412   0.793   3.894
 1434HOH      O 4488   0.419   3.778   0.137
 1434HOH     H1 4489   0.477   3.845   0.173
 1434HOH     H2 4490   0.414   3.711   0.206
 1435HOH      O 4491   0.714   3.221   2.668
 1435HOH     H1 4492   0.675   3.164   2.734
 1435HOH     H2 4493   0.660   3.300   2.671
 1436HOH      O 4494   3.482   3.990   0.243
 1436HOH     H1 4495   3.485   4.060   0.308
 1436HOH     H2 4496   3.389   3.971   0.233
 1437HOH      O 4497   3.372   0.442   3.440
 1437HOH     H1 4498   3.305   0.404   3.383
 1437HOH     H2 4499   3.350   0.410   3.528
 1438HOH      O 4500   1.890   0.590   0.883
 1438HOH     H1 4501   1.970   0.577   0.832
 1438HOH     H2 4502   1.850   0.503   0.886
 1439HOH      O 4503   3.296   2.892   0.664
 1439HOH     H1 4504   3.302   2.894   0.568
 1439HOH     H2 4505   3.383   2.866   0.692
 1440HOH      O 4506   0.048   3.407   1.132
 1440HOH     H1 4507   0.048   3.476   1.065
 1440HOH     H2 4508   0.138   3.376   1.135
 1441HOH      O 4509   2.585   2.580   3.862
 1441HOH     H1 4510   2.652   2.619   3.918
 1441HOH     H2 4511   2.507   2.574   3.918
 1442HOH      O 4512   3.074   2.930   1.477
 1442HOH     H1 4513   3.147   2.971   1.523
 1442HOH     H2 4514   3.073   2.840   1.509
 1443HOH      O 4515   3.208   1.383   3.221
 1443HOH     H1 4516   3.161   1.370   3.138
 1443HOH     H2 4517   3.215   1.295   3.258
 1444HOH      O 4518   2.767   0.140   1.356
 1444HOH     H1 4519   2.755   0.232   1.331
 1444HOH     H2 4520   2.691   0.120   1.410
 1445HOH      O 4521   2.302   2.245  -0.003
 1445HOH     H1 4522   2.242   2.172  -0.019
 1445HOH     H2 4523   2.380   2.204   0.035
 1446HOH      O 4524   0.403   0.950   0.784
 1446HOH     H1 4525   0.384   1.026   0.839
 1446HOH     H2 4526   0.474   0.979   0.727
 1447HOH      O 4527   3.707   0.876   3.399
 1447HOH     H1 4528   3.776   0.811   3.410
 1447HOH     H2 4529   3.629   0.825   3.377
 1448HOH      O 4530   1.650   3.191   3.166
 1448HOH     H1 4531   1.686   3.270   3.127
 1448HOH     H2 4532   1.696   3.119   3.123
 1449HOH      O 4533   0.691   3.900   1.870
 1449HOH     H1 4534   0.738   3.857   1.942
 1449HOH     H2 4535   0.749   3.891   1.795
 1450HOH      O 4536   0.377   0.907   1.546
 1450HOH     H1 4537   0.323   0.832   1.522
 1450HOH     H2 4538   0.317   0.968   1.590
 1451HOH      O 4539   2.726   3.716   2.421
 1451HOH     H1 4540   2.679   3.645   2.464
 1451HOH     H2 4541   2.666   3.748   2.354
 1452HOH      O 4542   3.652   1.191   2.800
 1452HOH     H1 4543   3.574   1.144   2.768
 1452HOH     H2 4544   3.630   1.214   2.891
 1453HOH      O 4545   3.140   1.648   2.638
 1453HOH     H1 4546   3.172   1.563   2.669
 1453HOH     H2 4547   3.100   1.628   2.553
 1454HOH      O 4548   0.119   0.789   1.938
 1454HOH     H1 4549   0.107   0.832   1.853
 1454HOH     H2 4550   0.095   0.855   2.002
 1455HOH      O 4551   0.592   3.798   0.618
 1455HOH     H1 4552   0.570   3.866   0.553
 1455HOH     H2 4553   0.670   3.756   0.581
 1456HOH      O 4554   3.933   2.437   1.741
 1456HOH     H1 4555   3.853   2.480   1.709
 1456HOH     H2 4556   4.004   2.493   1.708
 1457HOH      O 4557   1.398   0.800   3.125
 1457HOH     H1 4558   1.411   0.859   3.051
 1457HOH     H2 4559   1.406   0.857   3.202
 1458HOH      O 4560   1.665   1.557   3.828
 1458HOH     H1 4561   1.618   1.610   3.764
 1458HOH     H2 4562   1.632   1.469   3.815
 1459HOH      O 4563   2.018   1.681   1.429
 1459HOH     H1 4564   1.993   1.677   1.521
 1459HOH     H2 4565   1.947   1.637   1.383
 1460HOH      O 4566   2.502   2.527   1.356
 1460HOH     H1 4567   2.493   2.594   1.424
 1460HOH     H2 4568   2.539   2.451   1.401
 1461HOH      O 4569   3.708   0.029   2.687
 1461HOH     H1 4570   3.797   0.064   2.688
 1461HOH     H2 4571   3.674   0.054   2.601
 1462HOH      O 4572   3.434   2.233   0.216
 1462HOH     H1 4573   3.343   2.263   0.214
 1462HOH     H2 4574   3.472   2.266   0.134
 1463HOH      O 4575   0.100   0.675   2.741
 1463HOH     H1 4576   0.018   0.690   2.789
 1463HOH     H2 4577   0.154   0.623   2.801
 1464HOH      O 4578   1.644   2.214   0.457
 1464HOH     H1 4579   1.656   2.283   0.391
 1464HOH     H2 4580   1.624   2.136   0.406
 1465HOH      O 4581   0.937   4.002   2.772
 1465HOH     H1 4582   0.844   4.022   2.766
 1465HOH     H2 4583   0.971   4.019   2.684
 1466HOH      O 4584   2.530   3.700   2.186
 1466HOH     H1 4585   2.612   3.654   2.164
 1466HOH     H2 4586   2.486   3.711   2.102
 1467HOH      O 4587   2.994   3.887   0.658
 1467HOH     H1 4588   2.960   3.969   0.692
 1467HOH     H2 4589   3.039   3.848   0.733
 1468HOH      O 4590   1.008   0.388   1.183
 1468HOH     H1 4591   0.998   0.395   1.278
 1468HOH     H2 4592   1.058   0.466   1.159
 1469HOH      O 4593   2.867   1.773   3.128
 1469HOH     H1 4594   2.880   1.779   3.034
 1469HOH     H2 4595   2.926   1.840   3.164
 1470HOH      O 4596   1.456   1.374   3.103
 1470HOH     H1 4597   1.365   1.345   3.091
 1470HOH     H2 4598   1.478   1.417   3.020
 1471HOH      O 4599   1.700   3.592   1.398
 1471HOH     H1 4600   1.697   3.665   1.460
 1471HOH     H2 4601   1.767   3.619   1.334
 1472HOH      O 4602   1.712   2.466   2.434
 1472HOH     H1 4603   1.644   2.467   2.367
 1472HOH     H2 4604   1.792   2.443   2.387
 1473HOH      O 4605   0.369   2.742   3.273
 1473HOH     H1 4606   0.429   2.669   3.258
 1473HOH     H2 4607   0.316   2.713   3.348
 1474HOH      O 4608   3.986   2.081   2.038
 1474HOH     H1 4609   3.968   1.987   2.039
 1474HOH     H2 4610   4.064   2.091   2.091
 1475HOH      O 4611   1.975   2.698   2.472
 1475HOH     H1 4612   1.997   2.787   2.442
 1475HOH     H2 4613   1.967   2.647   2.392
 1476HOH      O 4614   2.976   0.543   3.286
 1476HOH     H1 4615   2.975   0.451   3.311
 1476HOH     H2 4616   2.886   0.572   3.294
 1477HOH      O 4617   0.119   0.994   3.457
 1477HOH     H1 4618   0.146   1.077   3.416
 1477HOH     H2 4619   0.196   0.937   3.447
 1478HOH      O 4620   3.875   2.547   2.250
 1478HOH     H1 4621   3.808   2.503   2.302
 1478HOH     H2 4622   3.902   2.482   2.185
 1479HOH      O 4623   0.676   2.744   1.699
 1479HOH     H1 4624   0.591   2.702   1.686
 1479HOH     H2 4625   0.692   2.789   1.615
 1480HOH      O 4626   2.033   0.122   3.342
 1480HOH     H1 4627   1.997   0.045   3.298
 1480HOH     H2 4628   2.115   0.140   3.297
 1481HOH      O 4629   1.041   1.427   0.646
 1481HOH     H1 4630   0.951   1.433   0.614
 1481HOH     H2 4631   1.089   1.383   0.576
 1482HOH      O 4632   2.383   2.779   2.790
 1482HOH     H1 4633   2.330   2.829   2.852
 1482HOH     H2 4634   2.456   2.746   2.842
 1483HOH      O 4635   0.574   0.964   1.728
 1483HOH     H1 4636   0.608   1.050   1.703
 1483HOH     H2 4637   0.519   0.938   1.654
 1484HOH      O 4638   1.482  -0.007   1.999
 1484HOH     H1 4639   1.512   0.074   2.040
 1484HOH     H2 4640   1.444   0.021   1.916
 1485HOH      O 4641   0.299   2.823   1.406
 1485HOH     H1 4642   0.233   2.877   1.361
 1485HOH     H2 4643   0.269   2.818   1.496
 1486HOH      O 4644   2.436   1.826   1.182
 1486HOH     H1 4645   2.379   1.810   1.257
 1486HOH     H2 4646   2.520   1.786   1.207
 1487HOH      O 4647   1.878   3.465   2.299
 1487HOH     H1 4648   1.826   3.387   2.275
 1487HOH     H2 4649   1.846   3.489   2.386
 1488HOH      O 4650   1.746   3.316   1.465
 1488HOH     H1 4651   1.702   3.396   1.438
 1488HOH     H2 4652   1.795   3.288   1.388
 1489HOH      O 4653   3.714   1.352   1.818
 1489HOH     H1 4654   3.664   1.301   1.883
 1489HOH     H2 4655   3.678   1.325   1.734
 1490HOH      O 4656   2.352   1.561   3.140
 1490HOH     H1 4657   2.311   1.537   3.058
 1490HOH     H2 4658   2.440   1.523   3.135
 1491HOH      O 4659   0.136   3.262   0.805
 1491HOH     H1 4660   0.178   3.225   0.882
 1491HOH     H2 4661   0.208   3.293   0.750
 1492HOH      O 4662   3.331   0.467   2.822
 1492HOH     H1 4663   3.298   0.550   2.857
 1492HOH     H2 4664   3.367   0.422   2.898
 1493HOH      O 4665   0.900   3.229   2.390
 1493HOH     H1 4666   0.829   3.264   2.335
 1493HOH     H2 4667   0.936   3.157   2.340
 1494HOH      O 4668   1.979   2.692   1.098
 1494HOH     H1 4669   2.022   2.607   1.109
 1494HOH     H2 4670   1.944   2.690   1.009
 1495HOH      O 4671   1.702   0.337   3.406
 1495HOH     H1 4672   1.650   0.257   3.418
 1495HOH     H2 4673   1.742   0.352   3.492
 1496HOH      O 4674   3.713   2.412   0.068
 1496HOH     H1 4675   3.788   2.463   0.035
 1496HOH     H2 4676   3.666   2.473   0.125
 1497HOH      O 4677   2.489   1.368   3.424
 1497HOH     H1 4678   2.517   1.285   3.385
 1497HOH     H2 4679   2.541   1.434   3.378
 1498HOH      O 4680   1.130   1.651   0.815
 1498HOH     H1 4681   1.084   1.584   0.763
 1498HOH     H2 4682   1.076   1.661   0.894
 1499HOH      O 4683   3.948   0.090   0.772
 1499HOH     H1 4684   3.939   0.162   0.836
 1499HOH     H2 4685   4.009   0.030   0.813
 1500HOH      O 4686   0.000   1.605   0.906
 1500HOH     H1 4687  -0.016   1.536   0.969
 1500HOH     H2 4688   0.090   1.633   0.923
 1501HOH      O 4689   0.336   1.927   1.898
 1501HOH     H1 4690   0.426   1.901   1.917
 1501HOH     H2 4691   0.325   1.907   1.804
 1502HOH      O 4692   2.547   0.860   1.343
 1502HOH     H1 4693   2.478   0.841   1.280
 1502HOH     H2 4694   2.619   0.894   1.291
 1503HOH      O 4695   1.115   1.586   1.267
 1503HOH     H1 4696   1.102   1.500   1.307
 1503HOH     H2 4697   1.064   1.646   1.321
 1504HOH      O 4698   1.057   0.627   1.408
 1504HOH     H1 4699   1.038   0.708   1.360
 1504HOH     H2 4700   1.151   0.614   1.396
 1505HOH      O 4701   3.076   0.959   0.102
 1505HOH     H1 4702   3.029   0.977   0.021
 1505HOH     H2 4703   3.055   0.868   0.123
 1506HOH      O 4704   0.448   0.476   0.168
 1506HOH     H1 4705   0.467   0.387   0.137
 1506HOH     H2 4706   0.395   0.463   0.246
 1507HOH      O 4707   1.239   2.597   1.215
 1507HOH     H1 4708   1.285   2.538   1.275
 1507HOH     H2 4709   1.191   2.540   1.156
 1508HOH      O 4710   0.041   0.591   3.422
 1508HOH     H1 4711   0.121   0.559   3.463
 1508HOH     H2 4712  -0.027   0.532   3.455
 1509HOH      O 4713   3.445   0.868   0.421
 1509HOH     H1 4714   3.528   0.888   0.465
 1509HOH     H2 4715   3.444   0.925   0.344
 1510HOH      O 4716   0.357   1.923   1.625
 1510HOH     H1 4717   0.447   1.956   1.632
 1510HOH     H2 4718   0.334   1.934   1.533
 1511HOH      O 4719   3.690   2.963   2.027
 1511HOH     H1 4720   3.611   2.943   1.978
 1511HOH     H2 4721   3.726   2.878   2.051
 1512HOH      O 4722   2.339   3.181   1.090
 1512HOH     H1 4723   2.341   3.265   1.044
 1512HOH     H2 4724   2.420   3.179   1.140
 1513HOH      O 4725   3.133   1.481   0.914
 1513HOH     H1 4726   3.127   1.466   0.820
 1513HOH     H2 4727   3.210   1.536   0.925
 1514HOH      O 4728   1.888   1.366   2.626
 1514HOH     H1 4729   1.803   1.403   2.602
 1514HOH     H2 4730   1.870   1.304   2.696
 1515HOH      O 4731   3.396   2.565   2.534
 1515HOH     H1 4732   3.331   2.633   2.552
 1515HOH     H2 4733   3.365   2.489   2.584
 1516HOH      O 4734   3.371   1.689   1.453
 1516HOH     H1 4735   3.419   1.671   1.533
 1516HOH     H2 4736   3.385   1.612   1.398
 1517HOH      O 4737   0.343   3.702   2.667
 1517HOH     H1 4738   0.271   3.640   2.656
 1517HOH     H2 4739   0.322   3.774   2.608
 1518HOH      O 4740   3.528   3.148   0.951
 1518HOH     H1 4741   3.433   3.152   0.942
 1518HOH     H2 4742   3.560   3.230   0.913
 1519HOH      O 4743   0.916   0.276   2.086
 1519HOH     H1 4744   0.985   0.210   2.097
 1519HOH     H2 4745   0.964   0.356   2.060
 1520HOH      O 4746   3.848   0.075   1.796
 1520HOH     H1 4747   3.799   0.138   1.848
 1520HOH     H2 4748   3.909   0.034   1.857
 1521HOH      O 4749   1.976   0.448   2.112
 1521HOH     H1 4750   2.049   0.508   2.123
 1521HOH     H2 4751   1.914   0.495   2.056
 1522HOH      O 4752   2.688   0.868   3.502
 1522HOH     H1 4753   2.611   0.815   3.483
 1522HOH     H2 4754   2.668   0.954   3.465
 1523HOH      O 4755   3.091   1.617   2.173
 1523HOH     H1 4756   3.058   1.690   2.121
 1523HOH     H2 4757   3.186   1.625   2.170
 1524HOH      O 4758   2.728   0.499   1.916
 1524HOH     H1 4759   2.672   0.546   1.854
 1524HOH     H2 4760   2.669   0.436   1.958
 1525HOH      O 4761   1.601   1.727   3.622
 1525HOH     H1 4762   1.642   1.791   3.563
 1525HOH     H2 4763   1.516   1.765   3.644
 1526HOH      O 4764   3.705   3.882   0.357
 1526HOH     H1 4765   3.732   3.816   0.293
 1526HOH     H2 4766   3.635   3.930   0.314
 1527HOH      O 4767   1.248   1.382   0.420
 1527HOH     H1 4768   1.307   1.307   0.422
 1527HOH     H2 4769   1.179   1.358   0.359
 1528HOH      O 4770   1.369   1.749   2.081
 1528HOH     H1 4771   1.423   1.789   2.150
 1528HOH     H2 4772   1.363   1.657   2.106
 1529HOH      O 4773   2.345   1.484   1.323
 1529HOH     H1 4774   2.295   1.469   1.243
 1529HOH     H2 4775   2.391   1.402   1.339
 1530HOH      O 4776   3.899   2.204   2.923
 1530HOH     H1 4777   3.986   2.243   2.930
 1530HOH     H2 4778   3.838   2.275   2.945
 1531HOH      O 4779   2.653   1.131   3.355
 1531HOH     H1 4780   2.742   1.162   3.338
 1531HOH     H2 4781   2.617   1.113   3.268
 1532HOH      O 4782   0.696   3.945   3.237
 1532HOH     H1 4783   0.742   3.870   3.276
 1532HOH     H2 4784   0.758   4.017   3.245
 1533HOH      O 4785   3.566   1.174   0.602
 1533HOH     H1 4786   3.611   1.098   0.565
 1533HOH     H2 4787   3.509   1.137   0.669
 1534HOH      O 4788   0.218   1.410   3.974
 1534HOH     H1 4789   0.267   1.329   3.961
 1534HOH     H2 4790   0.129   1.382   3.991
 1535HOH      O 4791   0.033   3.940   2.748
 1535HOH     H1 4792  -0.032   3.875   2.774
 1535HOH     H2 4793   0.032   3.937   2.652
 1536HOH      O 4794   0.414   3.993   2.427
 1536HOH     H1 4795   0.485   4.057   2.428
 1536HOH     H2 4796   0.348   4.031   2.369
 1537HOH      O 4797   1.019   2.165   0.717
 1537HOH     H1 4798   1.056   2.081   0.743
 1537HOH     H2 4799   1.080   2.200   0.652
 1538HOH      O 4800   1.288   2.541   2.451
 1538HOH     H1 4801   1.263   2.633   2.443
 1538HOH     H2 4802   1.232   2.506   2.520
 1539HOH      O 4803   1.727   1.363   1.852
 1539HOH     H1 4804   1.786   1.377   1.778
 1539HOH     H2 4805   1.653   1.316   1.814
 1540HOH      O 4806   2.816   0.034   1.122
 1540HOH     H1 4807   2.798   0.075   1.207
 1540HOH     H2 4808   2.761  -0.044   1.121
 1541HOH      O 4809   0.984   1.123   0.537
 1541HOH     H1 4810   1.010   1.031   0.525
 1541HOH     H2 4811   0.922   1.139   0.465
 1542HOH      O 4812   1.566   0.492   2.845
 1542HOH     H1 4813   1.659   0.497   2.869
 1542HOH     H2 4814   1.551   0.399   2.827
 1543HOH      O 4815   2.320   3.701   2.350
 1543HOH     H1 4816   2.274   3.624   2.318
 1543HOH     H2 4817   2.392   3.714   2.288
 1544HOH      O 4818   2.298   0.500   0.031
 1544HOH     H1 4819   2.331   0.558   0.099
 1544HOH     H2 4820   2.224   0.547  -0.007
 1545HOH      O 4821   1.589   1.731   3.254
 1545HOH     H1 4822   1.677   1.755   3.282
 1545HOH     H2 4823   1.531   1.769   3.320
 1546HOH      O 4824   1.583   0.667   2.642
 1546HOH     H1 4825   1.500   0.714   2.646
 1546HOH     H2 4826   1.582   0.610   2.718
 1547HOH      O 4827   2.714   3.959   0.296
 1547HOH     H1 4828   2.796   3.917   0.320
 1547HOH     H2 4829   2.649   3.920   0.354
 1548HOH      O 4830   1.024   1.466   3.500
 1548HOH     H1 4831   1.042   1.560   3.505
 1548HOH     H2 4832   1.076   1.427   3.570
 1549HOH      O 4833   1.540   1.364   1.149
 1549HOH     H1 4834   1.452   1.396   1.127
 1549HOH     H2 4835   1.597   1.408   1.085
 1550HOH      O 4836   0.485   0.794   3.136
 1550HOH     H1 4837   0.521   0.747   3.061
 1550HOH     H2 4838   0.435   0.728   3.184
 1551HOH      O 4839   3.190   3.537   2.543
 1551HOH     H1 4840   3.231   3.541   2.456
 1551HOH     H2 4841   3.224   3.456   2.581
 1552HOH      O 4842   0.138   1.142   3.210
 1552HOH     H1 4843   0.055   1.182   3.187
 1552HOH     H2 4844   0.163   1.092   3.131
 1553HOH      O 4845   2.728   0.635   3.348
 1553HOH     H1 4846   2.654   0.602   3.297
 1553HOH     H2 4847   2.705   0.727   3.365
 1554HOH      O 4848   1.826   3.956   1.245
 1554HOH     H1 4849   1.910   3.915   1.267
 1554HOH     H2 4850   1.831   3.971   1.150
 1555HOH      O 4851   0.459   2.234   1.257
 1555HOH     H1 4852   0.457   2.185   1.174
 1555HOH     H2 4853   0.519   2.306   1.240
 1556HOH      O 4854   3.883   0.877   1.322
 1556HOH     H1 4855   3.792   0.894   1.296
 1556HOH     H2 4856   3.875   0.835   1.408
 1557HOH      O 4857   0.087   2.981   1.348
 1557HOH     H1 4858   0.021   2.999   1.281
 1557HOH     H2 4859   0.044   3.001   1.431
 1558HOH      O 4860   3.529   1.560   0.683
 1558HOH     H1 4861   3.543   1.654   0.668
 1558HOH     H2 4862   3.616   1.521   0.669
 1559HOH      O 4863   2.856   3.880   2.598
 1559HOH     H1 4864   2.815   3.949   2.545
 1559HOH     H2 4865   2.805   3.801   2.577
 1560HOH      O 4866   2.691   1.291   3.925
 1560HOH     H1 4867   2.756   1.346   3.968
 1560HOH     H2 4868   2.716   1.292   3.832
 1561HOH      O 4869   2.553   3.150   2.617
 1561HOH     H1 4870   2.613   3.112   2.554
 1561HOH     H2 4871   2.607   3.171   2.693
 1562HOH      O 4872   1.189   0.824   2.231
 1562HOH     H1 4873   1.103   0.783   2.236
 1562HOH     H2 4874   1.189   0.871   2.148
 1563HOH      O 4875   2.545   2.926   0.631
 1563HOH     H1 4876   2.500   2.994   0.682
 1563HOH     H2 4877   2.615   2.972   0.586
 1564HOH      O 4878   0.757   2.651   3.049
 1564HOH     H1 4879   0.687   2.716   3.040
 1564HOH     H2 4880   0.755   2.603   2.965
 1565HOH      O 4881   0.581   0.639   2.257
 1565HOH     H1 4882   0.490   0.662   2.238
 1565HOH     H2 4883   0.627   0.656   2.175
 1566HOH      O 4884   0.150   0.200   1.930
 1566HOH     H1 4885   0.132   0.294   1.933
 1566HOH     H2 4886   0.098   0.163   2.001
 1567HOH      O 4887   3.646   3.635   2.585
 1567HOH     H1 4888   3.617   3.598   2.502
 1567HOH     H2 4889   3.723   3.583   2.609
 1568HOH      O 4890   3.581   0.873   1.261
 1568HOH     H1 4891   3.501   0.893   1.311
 1568HOH     H2 4892   3.549   0.824   1.185
 1569HOH      O 4893   1.629   1.459   2.889
 1569HOH     H1 4894   1.611   1.512   2.811
 1569HOH     H2 4895   1.706   1.500   2.928
 1570HOH      O 4896   2.402   0.949   2.334
 1570HOH     H1 4897   2.325   0.924   2.282
 1570HOH     H2 4898   2.476   0.936   2.274
 1571HOH      O 4899   0.926   1.983   3.300
 1571HOH     H1 4900   0.973   1.933   3.232
 1571HOH     H2 4901   0.884   2.055   3.252
 1572HOH      O 4902   2.855   0.603   0.570
 1572HOH     H1 4903   2.794   0.598   0.497
 1572HOH     H2 4904   2.801   0.582   0.647
 1573HOH      O 4905   1.011   2.328   2.153
 1573HOH     H1 4906   0.999   2.305   2.060
 1573HOH     H2 4907   1.104   2.311   2.169
 1574HOH      O 4908   3.042   2.885   3.009
 1574HOH     H1 4909   2.992   2.826   2.952
 1574HOH     H2 4910   3.074   2.828   3.079
 1575HOH      O 4911   2.309   2.324   3.061
 1575HOH     H1 4912   2.378   2.386   3.083
 1575HOH     H2 4913   2.276   2.293   3.146
 1576HOH      O 4914   0.378   3.503   2.955
 1576HOH     H1 4915   0.433   3.443   3.006
 1576HOH     H2 4916   0.296   3.509   3.004
 1577HOH      O 4917   0.448   3.968   2.946
 1577HOH     H1 4918   0.430   3.972   3.040
 1577HOH     H2 4919   0.397   4.041   2.909
 1578HOH      O 4920   1.562   0.440   0.287
 1578HOH     H1 4921   1.571   0.369   0.223
 1578HOH     H2 4922   1.579   0.520   0.237
 1579HOH      O 4923   3.368   1.067   0.197
 1579HOH     H1 4924   3.374   1.157   0.229
 1579HOH     H2 4925   3.296   1.069   0.134
 1580HOH      O 4926   2.216   2.121   3.523
 1580HOH     H1 4927   2.205   2.037   3.567
 1580HOH     H2 4928   2.262   2.176   3.587
 1581HOH      O 4929   3.697   2.708   2.557
 1581HOH     H1 4930   3.645   2.786   2.575
 1581HOH     H2 4931   3.786   2.731   2.585
 1582HOH      O 4932   0.384   0.790   2.627
 1582HOH     H1 4933   0.324   0.847   2.676
 1582HOH     H2 4934   0.327   0.724   2.587
 1583HOH      O 4935   3.849   0.934   2.641
 1583HOH     H1 4936   3.802   0.874   2.699
 1583HOH     H2 4937   3.913   0.977   2.698
 1584HOH      O 4938   1.298   2.585   3.975
 1584HOH     H1 4939   1.228   2.584   3.910
 1584HOH     H2 4940   1.252   2.585   4.059
 1585HOH      O 4941   2.041   3.138   3.748
 1585HOH     H1 4942   2.067   3.122   3.657
 1585HOH     H2 4943   2.058   3.231   3.761
 1586HOH      O 4944   2.758   3.176   1.525
 1586HOH     H1 4945   2.673   3.134   1.537
 1586HOH     H2 4946   2.815   3.135   1.590
 1587HOH      O 4947   1.604   3.078   4.046
 1587HOH     H1 4948   1.636   3.067   3.956
 1587HOH     H2 4949   1.566   3.166   4.046
 1588HOH      O 4950   0.047   0.542   0.268
 1588HOH     H1 4951   0.081   0.453   0.273
 1588HOH     H2 4952   0.081   0.585   0.347
 1589HOH      O 4953   1.598   0.623   1.673
 1589HOH     H1 4954   1.592   0.658   1.762
 1589HOH     H2 4955   1.509   0.598   1.651
 1590HOH      O 4956   2.325   0.242   3.911
 1590HOH     H1 4957   2.303   0.176   3.976
 1590HOH     H2 4958   2.287   0.323   3.945
 1591HOH      O 4959   0.192   2.624   2.043
 1591HOH     H1 4960   0.131   2.555   2.017
 1591HOH     H2 4961   0.178   2.694   1.978
 1592HOH      O 4962   2.450   1.253   0.518
 1592HOH     H1 4963   2.366   1.212   0.498
 1592HOH     H2 4964   2.428   1.331   0.568
 1593HOH      O 4965   3.509   3.987   3.974
 1593HOH     H1 4966   3.589   3.939   3.954
 1593HOH     H2 4967   3.519   4.013   4.065
 1594HOH      O 4968   1.198   1.597   2.973
 1594HOH     H1 4969   1.127   1.551   2.928
 1594HOH     H2 4970   1.259   1.621   2.903
 1595HOH      O 4971   2.883   1.310   3.450
 1595HOH     H1 4972   2.889   1.390   3.398
 1595HOH     H2 4973   2.955   1.256   3.418
 1596HOH      O 4974   2.310   0.904   3.265
 1596HOH     H1 4975   2.400   0.888   3.238
 1596HOH     H2 4976   2.287   0.987   3.223
 1597HOH      O 4977   1.570   1.794   2.263
 1597HOH     H1 4978   1.645   1.734   2.266
 1597HOH     H2 4979   1.556   1.819   2.355
 1598HOH      O 4980   0.098   3.397   3.915
 1598HOH     H1 4981   0.156   3.473   3.910
 1598HOH     H2 4982   0.107   3.366   4.005
 1599HOH      O 4983   4.038   2.526   0.510
 1599HOH     H1 4984   3.955   2.564   0.480
 1599HOH     H2 4985   4.050   2.561   0.598
 1600HOH      O 4986   1.645   2.401   0.251
 1600HOH     H1 4987   1.583   2.455   0.202
 1600HOH     H2 4988   1.713   2.463   0.279
 1601HOH      O 4989   1.935   2.302   1.409
 1601HOH     H1 4990   1.870   2.306   1.480
 1601HOH     H2 4991   2.016   2.276   1.453
 1602HOH      O 4992   2.742   2.866   3.962
 1602HOH     H1 4993   2.754   2.874   3.868
 1602HOH     H2 4994   2.800   2.795   3.988
 1603HOH      O 4995   2.864   0.862   2.867
 1603HOH     H1 4996   2.811   0.790   2.902
 1603HOH     H2 4997   2.827   0.879   2.781
 1604HOH      O 4998   2.885   1.596   1.658
 1604HOH     H1 4999   2.979   1.578   1.667
 1604HOH     H2 5000   2.852   1.526   1.602
 1605HOH      O 5001   0.317   2.743   0.518
 1605HOH     H1 5002   0.322   2.751   0.613
 1605HOH     H2 5003   0.228   2.771   0.496
 1606HOH      O 5004   0.227   0.031   0.293
 1606HOH     H1 5005   0.219   0.039   0.198
 1606HOH     H2 5006   0.313   0.068   0.313
 1607HOH      O 5007   0.107   2.317   1.441
 1607HOH     H1 5008   0.191   2.363   1.439
 1607HOH     H2 5009   0.046   2.378   1.401
 1608HOH      O 5010   3.679   1.091   2.090
 1608HOH     H1 5011   3.694   1.019   2.150
 1608HOH     H2 5012   3.730   1.164   2.126
 1609HOH      O 5013   2.417   2.258   1.710
 1609HOH     H1 5014   2.492   2.204   1.737
 1609HOH     H2 5015   2.457   2.336   1.672
 1610HOH      O 5016   1.217   2.611   0.230
 1610HOH     H1 5017   1.127   2.645   0.234
 1610HOH     H2 5018   1.253   2.629   0.317
 1611HOH      O 5019   1.555   2.209   1.177
 1611HOH     H1 5020   1.504   2.262   1.115
 1611HOH     H2 5021   1.566   2.125   1.133
 1612HOH      O 5022   0.835   2.883   2.805
 1612HOH     H1 5023   0.748   2.864   2.840
 1612HOH     H2 5024   0.894   2.871   2.879
 1613HOH      O 5025   3.684   3.980   3.017
 1613HOH     H1 5026   3.639   3.921   3.078
 1613HOH     H2 5027   3.682   3.932   2.934
 1614HOH      O 5028   0.430   0.301   2.125
 1614HOH     H1 5029   0.351   0.307   2.178
 1614HOH     H2 5030   0.495   0.259   2.181
 1615HOH      O 5031   1.128   3.632   0.878
 1615HOH     H1 5032   1.066   3.657   0.947
 1615HOH     H2 5033   1.191   3.576   0.923
 1616HOH      O 5034   3.624   2.407   0.946
 1616HOH     H1 5035   3.690   2.412   0.876
 1616HOH     H2 5036   3.672   2.431   1.025
 1617HOH      O 5037   3.318   0.249   1.906
 1617HOH     H1 5038   3.382   0.186   1.872
 1617HOH     H2 5039   3.368   0.330   1.917
 1618HOH      O 5040   2.827   1.210   2.304
 1618HOH     H1 5041   2.918   1.194   2.278
 1618HOH     H2 5042   2.807   1.297   2.270
 1619HOH      O 5043   2.128   2.758   3.234
 1619HOH     H1 5044   2.147   2.699   3.307
 1619HOH     H2 5045   2.095   2.838   3.275
 1620HOH      O 5046   0.367   3.737   1.534
 1620HOH     H1 5047   0.415   3.796   1.592
 1620HOH     H2 5048   0.317   3.681   1.593
 1621HOH      O 5049   2.908   2.513   1.647
 1621HOH     H1 5050   2.949   2.460   1.715
 1621HOH     H2 5051   2.978   2.528   1.583
 1622HOH      O 5052   1.237   3.680   2.559
 1622HOH     H1 5053   1.186   3.760   2.549
 1622HOH     H2 5054   1.253   3.674   2.653
 1623HOH      O 5055   3.156   1.584   1.744
 1623HOH     H1 5056   3.190   1.672   1.760
 1623HOH     H2 5057   3.172   1.536   1.826
 1624HOH      O 5058   1.935   1.684   2.591
 1624HOH     H1 5059   1.969   1.713   2.506
 1624HOH     H2 5060   1.978   1.600   2.606
 1625HOH      O 5061   3.676   0.513   1.056
 1625HOH     H1 5062   3.663   0.604   1.030
 1625HOH     H2 5063   3.706   0.469   0.977
 1626HOH      O 5064   0.204   0.111   3.083
 1626HOH     H1 5065   0.237   0.200   3.097
 1626HOH     H2 5066   0.262   0.055   3.135
 1627HOH      O 5067   3.946   0.518   3.921
 1627HOH     H1 5068   3.902   0.526   3.836
 1627HOH     H2 5069   3.937   0.604   3.961
 1628HOH      O 5070   2.876   3.600   1.919
 1628HOH     H1 5071   2.839   3.684   1.949
 1628HOH     H2 5072   2.852   3.537   1.986
 1629HOH      O 5073   1.880   4.019   3.545
 1629HOH     H1 5074   1.800   4.001   3.495
 1629HOH     H2 5075   1.951   4.006   3.482
 1630HOH      O 5076   1.216   1.931   0.298
 1630HOH     H1 5077   1.146   1.866   0.303
 1630HOH     H2 5078   1.254   1.933   0.386
 1631HOH      O 5079   2.110   0.987   0.893
 1631HOH     H1 5080   2.072   1.055   0.948
 1631HOH     H2 5081   2.056   0.989   0.813
 1632HOH      O 5082   2.806   2.221   2.642
 1632HOH     H1 5083   2.744   2.237   2.713
 1632HOH     H2 5084   2.779   2.280   2.572
 1633HOH      O 5085   3.328   3.642   2.838
 1633HOH     H1 5086   3.253   3.617   2.785
 1633HOH     H2 5087   3.390   3.570   2.829
 1634HOH      O 5088   3.017   0.529   2.541
 1634HOH     H1 5089   3.113   0.524   2.545
 1634HOH     H2 5090   2.998   0.622   2.550
 1635HOH      O 5091   1.515   0.739   1.931
 1635HOH     H1 5092   1.423   0.712   1.926
 1635HOH     H2 5093   1.560   0.663   1.967
 1636HOH      O 5094   3.197   1.351   1.577
 1636HOH     H1 5095   3.163   1.366   1.489
 1636HOH     H2 5096   3.224   1.438   1.607
 1637HOH      O 5097   2.405   3.705   1.939
 1637HOH     H1 5098   2.408   3.614   1.968
 1637HOH     H2 5099   2.462   3.708   1.862
 1638HOH      O 5100   0.596   1.473   2.995
 1638HOH     H1 5101   0.686   1.506   2.998
 1638HOH     H2 5102   0.588   1.432   2.908
 1639HOH      O 5103   3.956   1.141   3.837
 1639HOH     H1 5104   4.003   1.074   3.787
 1639HOH     H2 5105   3.929   1.205   3.770
 1640HOH      O 5106   3.333   3.581   2.320
 1640HOH     H1 5107   3.294   3.558   2.236
 1640HOH     H2 5108   3.424   3.551   2.313
 1641HOH      O 5109   0.925   1.407   1.564
 1641HOH     H1 5110   0.859   1.463   1.522
 1641HOH     H2 5111   0.931   1.440   1.653
 1642HOH      O 5112   3.046   0.360   1.346
 1642HOH     H1 5113   3.050   0.423   1.274
 1642HOH     H2 5114   3.059   0.413   1.425
 1643HOH      O 5115   1.459   3.466   2.683
 1643HOH     H1 5116   1.371   3.429   2.689
 1643HOH     H2 5117   1.471   3.486   2.591
 1644HOH      O 5118   2.078   1.693   1.012
 1644HOH     H1 5119   2.055   1.718   0.922
 1644HOH     H2 5120   2.174   1.689   1.011
 1645HOH      O 5121   0.842   2.374   2.408
 1645HOH     H1 5122   0.757   2.376   2.364
 1645HOH     H2 5123   0.906   2.388   2.339
 1646HOH      O 5124   3.700   2.715   2.136
 1646HOH     H1 5125   3.782   2.676   2.168
 1646HOH     H2 5126   3.643   2.717   2.213
 1647HOH      O 5127   1.301   0.766   0.908
 1647HOH     H1 5128   1.365   0.812   0.962
 1647HOH     H2 5129   1.351   0.694   0.868
 1648HOH      O 5130   2.649   3.422   1.683
 1648HOH     H1 5131   2.684   3.362   1.617
 1648HOH     H2 5132   2.668   3.380   1.766
 1649HOH      O 5133   2.006   2.461   2.614
 1649HOH     H1 5134   2.056   2.493   2.689
 1649HOH     H2 5135   1.977   2.539   2.569
 1650HOH      O 5136   2.378   0.110   0.140
 1650HOH     H1 5137   2.419   0.072   0.062
 1650HOH     H2 5138   2.445   0.170   0.175
 1651HOH      O 5139   2.044   2.999   3.349
 1651HOH     H1 5140   1.968   3.041   3.388
 1651HOH     H2 5141   2.068   3.055   3.275
 1652HOH      O 5142   3.212   3.082   0.934
 1652HOH     H1 5143   3.226   2.997   0.891
 1652HOH     H2 5144   3.222   3.146   0.864
 1653HOH      O 5145   2.505   0.959   2.911
 1653HOH     H1 5146   2.435   1.016   2.877
 1653HOH     H2 5147   2.586   1.006   2.890
 1654HOH      O 5148   0.261   2.799   0.126
 1654HOH     H1 5149   0.169   2.819   0.137
 1654HOH     H2 5150   0.306   2.852   0.192
 1655HOH      O 5151   0.899   3.197   0.610
 1655HOH     H1 5152   0.951   3.206   0.531
 1655HOH     H2 5153   0.873   3.286   0.633
 1656HOH      O 5154   0.016   2.687   3.540
 1656HOH     H1 5155  -0.057   2.739   3.575
 1656HOH     H2 5156   0.095   2.734   3.568
 1657HOH      O 5157   3.647   3.837   1.309
 1657HOH     H1 5158   3.672   3.921   1.269
 1657HOH     H2 5159   3.650   3.774   1.237
 1658HOH      O 5160   0.228   1.520   0.700
 1658HOH     H1 5161   0.313   1.549   0.666
 1658HOH     H2 5162   0.193   1.597   0.746
 1659HOH      O 5163   0.229   1.099   0.132
 1659HOH     H1 5164   0.190   1.018   0.165
 1659HOH     H2 5165   0.175   1.168   0.170
 1660HOH      O 5166   1.204   3.679   3.629
 1660HOH     H1 5167   1.173   3.600   3.674
 1660HOH     H2 5168   1.237   3.735   3.699
 1661HOH      O 5169   0.420   2.389   2.096
 1661HOH     H1 5170   0.355   2.339   2.047
 1661HOH     H2 5171   0.405   2.480   2.068
 1662HOH      O 5172   2.907   3.964   2.271
 1662HOH     H1 5173   3.001   3.949   2.278
 1662HOH     H2 5174   2.884   3.931   2.184
 1663HOH      O 5175   1.326   0.145   1.481
 1663HOH     H1 5176   1.233   0.123   1.470
 1663HOH     H2 5177   1.371   0.061   1.484
 1664HOH      O 5178   2.041   0.578   3.665
 1664HOH     H1 5179   2.009   0.493   3.636
 1664HOH     H2 5180   2.002   0.640   3.604
 1665HOH      O 5181   3.357   0.115   1.396
 1665HOH     H1 5182   3.373   0.022   1.411
 1665HOH     H2 5183   3.305   0.118   1.316
 1666HOH      O 5184   3.246   1.536   0.267
 1666HOH     H1 5185   3.306   1.604   0.238
 1666HOH     H2 5186   3.283   1.506   0.350
 1667HOH      O 5187   0.394   1.172   2.787
 1667HOH     H1 5188   0.416   1.250   2.736
 1667HOH     H2 5189   0.478   1.143   2.823
 1668HOH      O 5190   1.277   0.199   3.005
 1668HOH     H1 5191   1.194   0.195   3.054
 1668HOH     H2 5192   1.254   0.174   2.916
 1669HOH      O 5193   1.648   1.331   0.651
 1669HOH     H1 5194   1.665   1.259   0.712
 1669HOH     H2 5195   1.660   1.292   0.564
 1670HOH      O 5196   3.149   0.857   2.268
 1670HOH     H1 5197   3.120   0.808   2.191
 1670HOH     H2 5198   3.110   0.943   2.258
 1671HOH      O 5199   2.865   3.159   2.082
 1671HOH     H1 5200   2.794   3.094   2.076
 1671HOH     H2 5201   2.878   3.172   2.175
 1672HOH      O 5202   1.272   3.884   3.289
 1672HOH     H1 5203   1.295   3.948   3.357
 1672HOH     H2 5204   1.335   3.899   3.219
 1673HOH      O 5205   2.538   0.338   3.197
 1673HOH     H1 5206   2.608   0.299   3.250
 1673HOH     H2 5207   2.512   0.268   3.137
 1674HOH      O 5208   1.648   0.890   1.099
 1674HOH     H1 5209   1.738   0.862   1.082
 1674HOH     H2 5210   1.631   0.959   1.034
 1675HOH      O 5211   2.666   0.364   1.067
 1675HOH     H1 5212   2.682   0.434   1.004
 1675HOH     H2 5213   2.695   0.400   1.151
 1676HOH      O 5214   2.286   2.304   3.733
 1676HOH     H1 5215   2.312   2.391   3.702
 1676HOH     H2 5216   2.265   2.317   3.826
 1677HOH      O 5217   2.147   0.942   2.990
 1677HOH     H1 5218   2.165   0.866   3.046
 1677HOH     H2 5219   2.203   1.011   3.025
 1678HOH      O 5220   1.456   0.285   0.709
 1678HOH     H1 5221   1.452   0.325   0.796
 1678HOH     H2 5222   1.367   0.254   0.693
 1679HOH      O 5223   2.953   1.170   2.572
 1679HOH     H1 5224   2.899   1.103   2.613
 1679HOH     H2 5225   2.913   1.186   2.487
 1680HOH      O 5226   0.848   1.930   0.293
 1680HOH     H1 5227   0.861   1.994   0.364
 1680HOH     H2 5228   0.853   1.845   0.337
 1681HOH      O 5229   2.288   0.103   3.267
 1681HOH     H1 5230   2.333   0.113   3.183
 1681HOH     H2 5231   2.335   0.032   3.311
 1682HOH      O 5232   2.456   0.203   0.955
 1682HOH     H1 5233   2.392   0.271   0.936
 1682HOH     H2 5234   2.526   0.249   1.001
 1683HOH      O 5235   0.936   0.709   2.668
 1683HOH     H1 5236   0.987   0.660   2.732
 1683HOH     H2 5237   0.964   0.800   2.680
 1684HOH      O 5238   1.333   1.088   2.728
 1684HOH     H1 5239   1.352   1.178   2.704
 1684HOH     H2 5240   1.249   1.069   2.685
 1685HOH      O 5241   3.899   2.190   0.914
 1685HOH     H1 5242   3.887   2.267   0.859
 1685HOH     H2 5243   3.854   2.119   0.868
 1686HOH      O 5244   0.591   0.820   2.458
 1686HOH     H1 5245   0.514   0.824   2.515
 1686HOH     H2 5246   0.579   0.741   2.406
 1687HOH      O 5247   2.467   0.135   3.029
 1687HOH     H1 5248   2.502   0.046   3.027
 1687HOH     H2 5249   2.436   0.151   2.940
 1688HOH      O 5250   0.383   2.106   2.396
 1688HOH     H1 5251   0.342   2.121   2.481
 1688HOH     H2 5252   0.309   2.097   2.335
 1689HOH      O 5253   2.110   0.794   3.390
 1689HOH     H1 5254   2.090   0.704   3.365
 1689HOH     H2 5255   2.182   0.820   3.333
 1690HOH      O 5256   1.351   2.433   2.048
 1690HOH     H1 5257   1.307   2.466   1.970
 1690HOH     H2 5258   1.325   2.341   2.054
 1691HOH      O 5259   2.968   1.597   2.408
 1691HOH     H1 5260   2.890   1.650   2.391
 1691HOH     H2 5261   3.004   1.581   2.321
 1692HOH      O 5262   2.417   3.599   0.801
 1692HOH     H1 5263   2.494   3.542   0.797
 1692HOH     H2 5264   2.454   3.687   0.812
 1693HOH      O 5265   0.548   0.972   3.821
 1693HOH     H1 5266   0.588   0.938   3.901
 1693HOH     H2 5267   0.470   0.917   3.808
 1694HOH      O 5268   0.372   0.895   3.480
 1694HOH     H1 5269   0.431   0.858   3.415
 1694HOH     H2 5270   0.372   0.830   3.551
 1695HOH      O 5271   3.574   3.814   1.671
 1695HOH     H1 5272   3.637   3.744   1.688
 1695HOH     H2 5273   3.520   3.816   1.750
 1696HOH      O 5274   0.504   2.789   2.480
 1696HOH     H1 5275   0.528   2.881   2.489
 1696HOH     H2 5276   0.582   2.747   2.445
 1697HOH      O 5277   2.150   0.870   1.869
 1697HOH     H1 5278   2.058   0.853   1.852
 1697HOH     H2 5279   2.157   0.877   1.964
 1698HOH      O 5280   2.511   2.693   0.769
 1698HOH     H1 5281   2.468   2.716   0.851
 1698HOH     H2 5282   2.542   2.776   0.734
 1699HOH      O 5283   3.439   1.192   1.378
 1699HOH     H1 5284   3.380   1.133   1.331
 1699HOH     H2 5285   3.398   1.278   1.369
 1700HOH      O 5286   0.340   2.036   0.754
 1700HOH     H1 5287   0.290   2.117   0.742
 1700HOH     H2 5288   0.310   1.978   0.685
 1701HOH      O 5289   3.165   2.117   2.285
 1701HOH     H1 5290   3.173   2.210   2.307
 1701HOH     H2 5291   3.144   2.075   2.369
 1702HOH      O 5292   3.781   2.492   1.190
 1702HOH     H1 5293   3.873   2.472   1.204
 1702HOH     H2 5294   3.776   2.588   1.196
 1703HOH      O 5295   2.009   0.533   3.284
 1703HOH     H1 5296   2.003   0.447   3.325
 1703HOH     H2 5297   1.919   0.565   3.282
 1704HOH      O 5298   0.739   2.686   2.406
 1704HOH     H1 5299   0.832   2.687   2.384
 1704HOH     H2 5300   0.695   2.673   2.322
 1705HOH      O 5301   1.752   1.584   0.685
 1705HOH     H1 5302   1.848   1.578   0.685
 1705HOH     H2 5303   1.723   1.497   0.712
 1706HOH      O 5304   2.965   1.324   1.725
 1706HOH     H1 5305   2.983   1.336   1.818
 1706HOH     H2 5306   3.049   1.342   1.682
 1707HOH      O 5307   1.637   0.911   1.375
 1707HOH     H1 5308   1.724   0.880   1.401
 1707HOH     H2 5309   1.636   0.899   1.280
 1708HOH      O 5310   1.509   0.136   3.418
 1708HOH     H1 5311   1.442   0.075   3.446
 1708HOH     H2 5312   1.590   0.085   3.416
 1709HOH      O 5313   0.003   0.865   2.451
 1709HOH     H1 5314  -0.052   0.891   2.525
 1709HOH     H2 5315   0.084   0.913   2.464
 1710HOH      O 5316   2.361   3.927   0.513
 1710HOH     H1 5317   2.410   3.874   0.450
 1710HOH     H2 5318   2.427   3.985   0.551
 1711HOH      O 5319   2.506   1.322   2.172
 1711HOH     H1 5320   2.474   1.300   2.260
 1711HOH     H2 5321   2.488   1.243   2.120
 1712HOH      O 5322   0.040   2.037   3.838
 1712HOH     H1 5323   0.057   1.960   3.891
 1712HOH     H2 5324   0.028   2.108   3.901
 1713HOH      O 5325   1.039   3.737   3.422
 1713HOH     H1 5326   1.097   3.712   3.495
 1713HOH     H2 5327   1.090   3.798   3.370
 1714HOH      O 5328   0.748   1.048   1.401
 1714HOH     H1 5329   0.656   1.035   1.380
 1714HOH     H2 5330   0.793   0.975   1.359
 1715HOH      O 5331   2.804   3.293   1.062
 1715HOH     H1 5332   2.842   3.210   1.033
 1715HOH     H2 5333   2.867   3.328   1.125
 1716HOH      O 5334   0.062   0.500   1.377
 1716HOH     H1 5335   0.117   0.440   1.326
 1716HOH     H2 5336  -0.025   0.490   1.339
 1717HOH      O 5337   3.533   0.313   1.666
 1717HOH     H1 5338   3.599   0.244   1.663
 1717HOH     H2 5339   3.449   0.266   1.661
 1718HOH      O 5340   3.924   1.774   0.577
 1718HOH     H1 5341   3.867   1.837   0.533
 1718HOH     H2 5342   3.979   1.738   0.507
 1719HOH      O 5343   3.815   0.203   1.137
 1719HOH     H1 5344   3.759   0.172   1.207
 1719HOH     H2 5345   3.903   0.172   1.160
 1720HOH      O 5346   1.044   1.306   2.024
 1720HOH     H1 5347   0.971   1.249   2.049
 1720HOH     H2 5348   1.096   1.315   2.104
 1721HOH      O 5349   2.287   2.480   1.976
 1721HOH     H1 5350   2.271   2.574   1.971
 1721HOH     H2 5351   2.225   2.442   1.914
 1722HOH      O 5352   0.185   3.657   0.479
 1722HOH     H1 5353   0.209   3.741   0.519
 1722HOH     H2 5354   0.264   3.630   0.432
 1723HOH      O 5355   1.969   3.902   2.665
 1723HOH     H1 5356   1.906   3.971   2.647
 1723HOH     H2 5357   1.979   3.855   2.582
 1724HOH      O 5358   2.688   1.642   2.384
 1724HOH     H1 5359   2.601   1.665   2.353
 1724HOH     H2 5360   2.714   1.569   2.328
 1725HOH      O 5361   0.977   1.352   3.874
 1725HOH     H1 5362   0.995   1.261   3.896
 1725HOH     H2 5363   0.929   1.386   3.950
 1726HOH      O 5364   1.271   0.562   1.101
 1726HOH     H1 5365   1.303   0.650   1.080
 1726HOH     H2 5366   1.201   0.546   1.039
 1727HOH      O 5367   0.746   0.281   0.208
 1727HOH     H1 5368   0.716   0.326   0.287
 1727HOH     H2 5369   0.841   0.276   0.218
 1728HOH      O 5370   0.578   2.326   2.960
 1728HOH     H1 5371   0.633   2.389   2.913
 1728HOH     H2 5372   0.626   2.308   3.041
 1729HOH      O 5373   1.037   1.632   2.108
 1729HOH     H1 5374   1.093   1.703   2.076
 1729HOH     H2 5375   0.971   1.677   2.161
 1730HOH      O 5376   1.915   2.331   0.713
 1730HOH     H1 5377   1.954   2.293   0.792
 1730HOH     H2 5378   1.977   2.310   0.643
 1731HOH      O 5379   1.617   2.644   1.488
 1731HOH     H1 5380   1.544   2.638   1.427
 1731HOH     H2 5381   1.581   2.613   1.572
 1732HOH      O 5382   4.037   3.848   3.319
 1732HOH     H1 5383   3.959   3.794   3.331
 1732HOH     H2 5384   4.005   3.927   3.274
 1733HOH      O 5385   0.919   1.520   3.212
 1733HOH     H1 5386   1.008   1.543   3.238
 1733HOH     H2 5387   0.902   1.573   3.135
 1734HOH      O 5388   1.962   3.500   1.946
 1734HOH     H1 5389   1.891   3.543   1.993
 1734HOH     H2 5390   1.995   3.566   1.886
 1735HOH      O 5391   1.076   4.054   2.125
 1735HOH     H1 5392   1.033   3.995   2.186
 1735HOH     H2 5393   1.092   4.001   2.047
 1736HOH      O 5394   0.774   3.113   3.569
 1736HOH     H1 5395   0.691   3.127   3.615
 1736HOH     H2 5396   0.823   3.053   3.625
 1737HOH      O 5397   0.419   0.143   1.865
 1737HOH     H1 5398   0.470   0.162   1.944
 1737HOH     H2 5399   0.328   0.159   1.891
 1738HOH      O 5400   2.816   2.931   1.266
 1738HOH     H1 5401   2.741   2.991   1.263
 1738HOH     H2 5402   2.779   2.847   1.237
 1739HOH      O 5403   0.505   1.578   0.608
 1739HOH     H1 5404   0.455   1.574   0.526
 1739HOH     H2 5405   0.549   1.663   0.605
 1740HOH      O 5406   1.481   2.853   3.800
 1740HOH     H1 5407   1.490   2.769   3.754
 1740HOH     H2 5408   1.538   2.845   3.877
 1741HOH      O 5409   1.912   3.194   0.882
 1741HOH     H1 5410   1.931   3.127   0.816
 1741HOH     H2 5411   1.844   3.155   0.937
 1742HOH      O 5412   2.303   0.440   3.425
 1742HOH     H1 5413   2.377   0.381   3.413
 1742HOH     H2 5414   2.310   0.502   3.353
 1743HOH      O 5415   3.062   2.094   0.141
 1743HOH     H1 5416   3.097   2.174   0.179
 1743HOH     H2 5417   3.138   2.038   0.129
 1744HOH      O 5418   3.962   2.779   2.627
 1744HOH     H1 5419   3.988   2.727   2.703
 1744HOH     H2 5420   3.970   2.870   2.655
 1745HOH      O 5421   3.155   3.523   0.642
 1745HOH     H1 5422   3.221   3.571   0.693
 1745HOH     H2 5423   3.146   3.440   0.688
 1746HOH      O 5424   1.586   3.581   1.817
 1746HOH     H1 5425   1.630   3.561   1.900
 1746HOH     H2 5426   1.604   3.505   1.761
 1747HOH      O 5427   1.686   0.052   1.450
 1747HOH     H1 5428   1.744   0.006   1.389
 1747HOH     H2 5429   1.607  -0.002   1.454
 1748HOH      O 5430   2.118   3.063   0.544
 1748HOH     H1 5431   2.107   3.157   0.527
 1748HOH     H2 5432   2.170   3.032   0.470
 1749HOH      O 5433   3.677   3.816   2.787
 1749HOH     H1 5434   3.612   3.772   2.732
 1749HOH     H2 5435   3.678   3.906   2.755
 1750HOH      O 5436   0.233   2.453   0.385
 1750HOH     H1 5437   0.262   2.536   0.346
 1750HOH     H2 5438   0.161   2.478   0.442
 1751HOH      O 5439   2.249   1.696   0.718
 1751HOH     H1 5440   2.295   1.722   0.798
 1751HOH     H2 5441   2.254   1.774   0.662
 1752HOH      O 5442   0.568   3.389   1.900
 1752HOH     H1 5443   0.567   3.319   1.835
 1752HOH     H2 5444   0.540   3.347   1.981
 1753HOH      O 5445   2.632   0.514   0.388
 1753HOH     H1 5446   2.541   0.484   0.386
 1753HOH     H2 5447   2.644   0.560   0.305
 1754HOH      O 5448   0.913   0.657   3.419
 1754HOH     H1 5449   0.850   0.695   3.358
 1754HOH     H2 5450   0.917   0.720   3.491
 1755HOH      O 5451   1.553   1.844   1.389
 1755HOH     H1 5452   1.462   1.846   1.359
 1755HOH     H2 5453   1.605   1.853   1.309
 1756HOH      O 5454   0.155   3.649   0.822
 1756HOH     H1 5455   0.161   3.736   0.783
 1756HOH     H2 5456   0.202   3.656   0.905
 1757HOH      O 5457   0.956   2.711   0.241
 1757HOH     H1 5458   0.884   2.714   0.179
 1757HOH     H2 5459   0.927   2.766   0.314
 1758HOH      O 5460   0.420   0.518   1.912
 1758HOH     H1 5461   0.386   0.588   1.967
 1758HOH     H2 5462   0.400   0.438   1.960
 1759HOH      O 5463   0.020   0.281   4.037
 1759HOH     H1 5464   0.101   0.275   3.985
 1759HOH     H2 5465  -0.013   0.369   4.019
 1760HOH      O 5466   3.876   1.305   0.034
 1760HOH     H1 5467   3.786   1.337   0.025
 1760HOH     H2 5468   3.884   1.239  -0.034
 1761HOH      O 5469   1.145   2.393   3.756
 1761HOH     H1 5470   1.089   2.446   3.701
 1761HOH     H2 5471   1.118   2.303   3.738
 1762HOH      O 5472   0.794   0.185   1.668
 1762HOH     H1 5473   0.889   0.187   1.657
 1762HOH     H2 5474   0.777   0.231   1.750
 1763HOH      O 5475   0.299   2.831   3.878
 1763HOH     H1 5476   0.290   2.817   3.972
 1763HOH     H2 5477   0.299   2.927   3.868
 1764HOH      O 5478   3.550   2.492   0.389
 1764HOH     H1 5479   3.554   2.571   0.335
 1764HOH     H2 5480   3.489   2.435   0.343
 1765HOH      O 5481   1.318   3.901   2.174
 1765HOH     H1 5482   1.242   3.913   2.117
 1765HOH     H2 5483   1.392   3.936   2.125
 1766HOH      O 5484   0.459   3.364   0.828
 1766HOH     H1 5485   0.511   3.439   0.856
 1766HOH     H2 5486   0.398   3.400   0.764
 1767HOH      O 5487   0.221   1.996   2.168
 1767HOH     H1 5488   0.283   1.996   2.095
 1767HOH     H2 5489   0.228   1.909   2.206
 1768HOH      O 5490   1.645   3.929   3.434
 1768HOH     H1 5491   1.697   3.897   3.360
 1768HOH     H2 5492   1.612   3.850   3.476
 1769HOH      O 5493   0.587   0.321   2.653
 1769HOH     H1 5494   0.532   0.369   2.592
 1769HOH     H2 5495   0.666   0.373   2.661
 1770HOH      O 5496   3.009   1.360   1.987
 1770HOH     H1 5497   3.020   1.301   2.062
 1770HOH     H2 5498   3.041   1.444   2.019
 1771HOH      O 5499   0.676   1.313   1.325
 1771HOH     H1 5500   0.608   1.327   1.390
 1771HOH     H2 5501   0.738   1.253   1.368
 1772HOH      O 5502   2.066   3.318   0.438
 1772HOH     H1 5503   2.078   3.293   0.346
 1772HOH     H2 5504   1.975   3.349   0.443
 1773HOH      O 5505  -0.010   1.634   2.824
 1773HOH     H1 5506   0.033   1.575   2.886
 1773HOH     H2 5507   0.049   1.639   2.749
 1774HOH      O 5508   3.160   2.368   0.225
 1774HOH     H1 5509   3.080   2.375   0.277
 1774HOH     H2 5510   3.198   2.456   0.230
 1775HOH      O 5511   1.670   1.063   3.616
 1775HOH     H1 5512   1.726   1.117   3.560
 1775HOH     H2 5513   1.581   1.081   3.585
 1776HOH      O 5514   1.097   1.331   1.347
 1776HOH     H1 5515   1.062   1.336   1.436
 1776HOH     H2 5516   1.180   1.285   1.356
 1777HOH      O 5517   2.073   1.941   3.034
 1777HOH     H1 5518   1.988   1.967   3.070
 1777HOH     H2 5519   2.096   2.012   2.973
 1778HOH      O 5520   3.449   0.243   0.010
 1778HOH     H1 5521   3.403   0.283   0.084
 1778HOH     H2 5522   3.380   0.226  -0.055
 1779HOH      O 5523   2.487   3.842   1.238
 1779HOH     H1 5524   2.407   3.791   1.229
 1779HOH     H2 5525   2.545   3.787   1.291
 1780HOH      O 5526   2.157   2.422   0.222
 1780HOH     H1 5527   2.228   2.484   0.240
 1780HOH     H2 5528   2.199   2.350   0.175
 1781HOH      O 5529   3.243   1.185   2.576
 1781HOH     H1 5530   3.261   1.177   2.482
 1781HOH     H2 5531   3.151   1.213   2.580
 1782HOH      O 5532   1.995   0.143   2.360
 1782HOH     H1 5533   1.926   0.077   2.351
 1782HOH     H2 5534   1.949   0.225   2.372
 1783HOH      O 5535   3.793   2.840   0.840
 1783HOH     H1 5536   3.725   2.859   0.905
 1783HOH     H2 5537   3.830   2.926   0.818
 1784HOH      O 5538   1.336   3.062   1.522
 1784HOH     H1 5539   1.283   3.132   1.561
 1784HOH     H2 5540   1.417   3.063   1.574
 1785HOH      O 5541   3.444   0.145   3.675
 1785HOH     H1 5542   3.534   0.174   3.687
 1785HOH     H2 5543   3.397   0.222   3.644
 1786HOH      O 5544   3.340   1.987   0.055
 1786HOH     H1 5545   3.415   2.040   0.032
 1786HOH     H2 5546   3.317   1.941  -0.026
 1787HOH      O 5547   0.785   3.763   0.853
 1787HOH     H1 5548   0.785   3.763   0.757
 1787HOH     H2 5549   0.755   3.851   0.877
 1788HOH      O 5550   1.129   1.919   2.110
 1788HOH     H1 5551   1.203   1.858   2.121
 1788HOH     H2 5552   1.084   1.917   2.194
 1789HOH      O 5553   3.630   0.427   0.209
 1789HOH     H1 5554   3.619   0.510   0.163
 1789HOH     H2 5555   3.555   0.373   0.181
 1790HOH      O 5556   0.316   0.304   0.652
 1790HOH     H1 5557   0.296   0.377   0.710
 1790HOH     H2 5558   0.231   0.268   0.628
 1791HOH      O 5559   2.418   2.409   1.136
 1791HOH     H1 5560   2.466   2.328   1.154
 1791HOH     H2 5561   2.457   2.473   1.196
 1792HOH      O 5562   2.982   1.512   0.628
 1792HOH     H1 5563   2.934   1.434   0.656
 1792HOH     H2 5564   2.977   1.509   0.532
 1793HOH      O 5565   0.860   0.290   0.595
 1793HOH     H1 5566   0.846   0.350   0.669
 1793HOH     H2 5567   0.791   0.314   0.532
 1794HOH      O 5568   0.635   2.278   0.619
 1794HOH     H1 5569   0.623   2.223   0.696
 1794HOH     H2 5570   0.551   2.275   0.574
 1795HOH      O 5571   1.115   3.256   1.628
 1795HOH     H1 5572   1.021   3.272   1.623
 1795HOH     H2 5573   1.134   3.255   1.722
 1796HOH      O 5574   1.817   1.218   3.457
 1796HOH     H1 5575   1.784   1.288   3.401
 1796HOH     H2 5576   1.838   1.147   3.396
 1797HOH      O 5577   0.978   0.041   3.267
 1797HOH     H1 5578   0.995  -0.013   3.189
 1797HOH     H2 5579   0.978   0.130   3.234
 1798HOH      O 5580   3.465   0.504   1.874
 1798HOH     H1 5581   3.401   0.506   1.802
 1798HOH     H2 5582   3.548   0.487   1.831
 1799HOH      O 5583   1.156   3.441   3.744
 1799HOH     H1 5584   1.208   3.362   3.734
 1799HOH     H2 5585   1.065   3.410   3.743
 1800HOH      O 5586   3.243   3.931   2.003
 1800HOH     H1 5587   3.186   4.001   1.971
 1800HOH     H2 5588   3.183   3.863   2.034
 1801HOH      O 5589   2.562   0.112   1.566
 1801HOH     H1 5590   2.581   0.123   1.659
 1801HOH     H2 5591   2.557   0.202   1.533
 1802HOH      O 5592   2.306   3.559   3.642
 1802HOH     H1 5593   2.333   3.587   3.555
 1802HOH     H2 5594   2.316   3.464   3.641
 1803HOH      O 5595   0.971   2.684   2.256
 1803HOH     H1 5596   0.992   2.734   2.177
 1803HOH     H2 5597   0.999   2.595   2.236
 1804HOH      O 5598   1.905   2.482   0.143
 1804HOH     H1 5599   1.896   2.575   0.163
 1804HOH     H2 5600   1.994   2.460   0.171
 1805HOH      O 5601   1.193   0.992   0.211
 1805HOH     H1 5602   1.200   0.996   0.116
 1805HOH     H2 5603   1.141   0.914   0.228
 1806HOH      O 5604   0.983   2.006   1.055
 1806HOH     H1 5605   1.047   2.064   1.097
 1806HOH     H2 5606   0.901   2.026   1.099
 1807HOH      O 5607   3.296   0.672   3.952
 1807HOH     H1 5608   3.296   0.763   3.922
 1807HOH     H2 5609   3.209   0.659   3.990
 1808HOH      O 5610   0.357   2.757   3.001
 1808HOH     H1 5611   0.340   2.663   3.000
 1808HOH     H2 5612   0.352   2.781   3.094
 1809HOH      O 5613   3.355   3.674   1.061
 1809HOH     H1 5614   3.450   3.685   1.052
 1809HOH     H2 5615   3.322   3.761   1.081
 1810HOH      O 5616   3.974   3.002   1.574
 1810HOH     H1 5617   3.925   2.920   1.574
 1810HOH     H2 5618   3.980   3.027   1.666
 1811HOH      O 5619   2.727   0.554   0.823
 1811HOH     H1 5620   2.722   0.618   0.895
 1811HOH     H2 5621   2.639   0.553   0.786
 1812HOH      O 5622   1.876   3.935   0.568
 1812HOH     H1 5623   1.962   3.908   0.600
 1812HOH     H2 5624   1.817   3.865   0.595
 1813HOH      O 5625   0.251   1.677   3.975
 1813HOH     H1 5626   0.308   1.690   3.899
 1813HOH     H2 5627   0.236   1.583   3.979
 1814HOH      O 5628   1.333   3.157   2.486
 1814HOH     H1 5629   1.320   3.249   2.508
 1814HOH     H2 5630   1.264   3.137   2.423
 1815HOH      O 5631   0.107   3.393   1.422
 1815HOH     H1 5632   0.110   3.330   1.350
 1815HOH     H2 5633   0.130   3.341   1.499
 1816HOH      O 5634   2.351   0.833   1.684
 1816HOH     H1 5635   2.398   0.755   1.713
 1816HOH     H2 5636   2.298   0.859   1.759
 1817HOH      O 5637   0.339   1.673   0.368
 1817HOH     H1 5638   0.286   1.595   0.350
 1817HOH     H2 5639   0.404   1.675   0.298
 1818HOH      O 5640   2.151   0.786   2.632
 1818HOH     H1 5641   2.093   0.711   2.644
 1818HOH     H2 5642   2.094   0.854   2.594
 1819HOH      O 5643   0.422   1.720   2.874
 1819HOH     H1 5644   0.457   1.716   2.963
 1819HOH     H2 5645   0.370   1.801   2.873
 1820HOH      O 5646   1.413   3.836   2.423
 1820HOH     H1 5647   1.359   3.766   2.461
 1820HOH     H2 5648   1.370   3.857   2.340
 1821HOH      O 5649   1.488   3.377   3.839
 1821HOH     H1 5650   1.464   3.347   3.751
 1821HOH     H2 5651   1.529   3.462   3.825
 1822HOH      O 5652   0.223   3.762   2.946
 1822HOH     H1 5653   0.236   3.850   2.911
 1822HOH     H2 5654   0.138   3.766   2.989
 1823HOH      O 5655   2.272   1.372   2.935
 1823HOH     H1 5656   2.285   1.287   2.893
 1823HOH     H2 5657   2.234   1.428   2.868
 1824HOH      O 5658   2.023   0.321   3.526
 1824HOH     H1 5659   2.016   0.255   3.458
 1824HOH     H2 5660   2.107   0.363   3.510
 1825HOH      O 5661   0.339   0.782   3.816
 1825HOH     H1 5662   0.305   0.755   3.902
 1825HOH     H2 5663   0.390   0.707   3.787
 1826HOH      O 5664   3.670   3.970   2.020
 1826HOH     H1 5665   3.650   3.882   1.988
 1826HOH     H2 5666   3.593   4.022   1.994
 1827HOH      O 5667   2.722   3.463   2.839
 1827HOH     H1 5668   2.749   3.437   2.751
 1827HOH     H2 5669   2.797   3.512   2.873
 1828HOH      O 5670   3.157   2.949   0.047
 1828HOH     H1 5671   3.252   2.960   0.051
 1828HOH     H2 5672   3.128   3.014  -0.017
 1829HOH      O 5673   2.802   0.954   2.614
 1829HOH     H1 5674   2.869   0.906   2.564
 1829HOH     H2 5675   2.720   0.912   2.591
 1830HOH      O 5676   0.252   2.232   1.910
 1830HOH     H1 5677   0.286   2.146   1.935
 1830HOH     H2 5678   0.262   2.236   1.815
 1831HOH      O 5679   0.553   3.725   3.076
 1831HOH     H1 5680   0.615   3.794   3.101
 1831HOH     H2 5681   0.498   3.714   3.154
 1832HOH      O 5682   3.134   0.882   3.607
 1832HOH     H1 5683   3.145   0.787   3.598
 1832HOH     H2 5684   3.074   0.906   3.536
 1833HOH      O 5685   2.694   2.705   1.114
 1833HOH     H1 5686   2.761   2.709   1.046
 1833HOH     H2 5687   2.635   2.635   1.085
 1834HOH      O 5688   3.895   1.111   0.908
 1834HOH     H1 5689   3.814   1.063   0.927
 1834HOH     H2 5690   3.893   1.123   0.813
 1835HOH      O 5691   0.118   3.689   1.379
 1835HOH     H1 5692   0.125   3.594   1.385
 1835HOH     H2 5693   0.028   3.705   1.350
 1836HOH      O 5694   0.247   2.194   1.647
 1836HOH     H1 5695   0.180   2.224   1.585
 1836HOH     H2 5696   0.252   2.099   1.633
 1837HOH      O 5697   0.470   1.522   0.876
 1837HOH     H1 5698   0.463   1.499   0.783
 1837HOH     H2 5699   0.552   1.570   0.883
 1838HOH      O 5700   0.256   0.317   3.341
 1838HOH     H1 5701   0.192   0.255   3.376
 1838HOH     H2 5702   0.338   0.294   3.385
 1839HOH      O 5703   1.250   3.482   2.329
 1839HOH     H1 5704   1.209   3.530   2.401
 1839HOH     H2 5705   1.342   3.474   2.354
 1840HOH      O 5706   2.145   3.185   0.188
 1840HOH     H1 5707   2.188   3.231   0.116
 1840HOH     H2 5708   2.061   3.157   0.152
 1841HOH      O 5709   2.640   2.393   0.200
 1841HOH     H1 5710   2.617   2.305   0.232
 1841HOH     H2 5711   2.677   2.377   0.113
 1842HOH      O 5712   3.761   2.228   1.767
 1842HOH     H1 5713   3.857   2.231   1.759
 1842HOH     H2 5714   3.731   2.308   1.724
 1843HOH      O 5715   2.132   0.440   1.678
 1843HOH     H1 5716   2.091   0.354   1.687
 1843HOH     H2 5717   2.169   0.458   1.764
 1844HOH      O 5718   2.152   1.889   3.653
 1844HOH     H1 5719   2.057   1.885   3.639
 1844HOH     H2 5720   2.169   1.821   3.718
 1845HOH      O 5721   3.407   1.059   3.138
 1845HOH     H1 5722   3.379   1.110   3.062
 1845HOH     H2 5723   3.500   1.080   3.148
 1846HOH      O 5724   2.962   1.499   3.240
 1846HOH     H1 5725   2.950   1.578   3.186
 1846HOH     H2 5726   3.052   1.473   3.226
 1847HOH      O 5727   2.242   3.215   1.984
 1847HOH     H1 5728   2.254   3.246   1.894
 1847HOH     H2 5729   2.244   3.119   1.977
 1848HOH      O 5730   2.246   0.866   0.421
 1848HOH     H1 5731   2.201   0.844   0.339
 1848HOH     H2 5732   2.243   0.962   0.425
 1849HOH      O 5733   3.806   3.027   2.279
 1849HOH     H1 5734   3.771   3.103   2.325
 1849HOH     H2 5735   3.768   3.031   2.192
 1850HOH      O 5736   0.496   2.782   0.329
 1850HOH     H1 5737   0.423   2.767   0.388
 1850HOH     H2 5738   0.569   2.806   0.386
 1851HOH      O 5739   3.017   0.814   2.515
 1851HOH     H1 5740   3.049   0.808   2.425
 1851HOH     H2 5741   3.092   0.846   2.565
 1852HOH      O 5742   1.234   3.263   0.669
 1852HOH     H1 5743   1.186   3.204   0.727
 1852HOH     H2 5744   1.269   3.206   0.601
 1853HOH      O 5745   2.488   1.854   0.212
 1853HOH     H1 5746   2.524   1.766   0.226
 1853HOH     H2 5747   2.393   1.843   0.221
 1854HOH      O 5748   0.766   0.985   1.066
 1854HOH     H1 5749   0.683   1.021   1.098
 1854HOH     H2 5750   0.810   1.058   1.023
 1855HOH      O 5751   3.954   1.089   0.569
 1855HOH     H1 5752   3.922   1.133   0.489
 1855HOH     H2 5753   3.997   1.158   0.618
 1856HOH      O 5754   2.151   2.613   0.688
 1856HOH     H1 5755   2.154   2.517   0.685
 1856HOH     H2 5756   2.242   2.639   0.700
 1857HOH      O 5757   3.805   0.347   0.905
 1857HOH     H1 5758   3.724   0.303   0.880
 1857HOH     H2 5759   3.834   0.302   0.984
 1858HOH      O 5760   0.257   1.689   0.935
 1858HOH     H1 5761   0.311   1.768   0.932
 1858HOH     H2 5762   0.318   1.617   0.917
 1859HOH      O 5763   3.350   0.418   3.708
 1859HOH     H1 5764   3.292   0.370   3.767
 1859HOH     H2 5765   3.425   0.442   3.763
 1860HOH      O 5766   2.643   0.260   0.506
 1860HOH     H1 5767   2.639   0.345   0.464
 1860HOH     H2 5768   2.701   0.272   0.581
 1861HOH      O 5769   3.794   1.516   2.961
 1861HOH     H1 5770   3.850   1.552   2.892
 1861HOH     H2 5771   3.708   1.507   2.919
 1862HOH      O 5772   3.201   3.138   1.682
 1862HOH     H1 5773   3.210   3.216   1.628
 1862HOH     H2 5774   3.241   3.162   1.766
 1863HOH      O 5775   3.992   1.941   0.203
 1863HOH     H1 5776   3.930   1.897   0.261
 1863HOH     H2 5777   4.015   1.875   0.137
 1864HOH      O 5778   0.584   3.615   1.398
 1864HOH     H1 5779   0.575   3.543   1.460
 1864HOH     H2 5780   0.532   3.686   1.436
 1865HOH      O 5781   1.299   0.198   1.852
 1865HOH     H1 5782   1.333   0.261   1.789
 1865HOH     H2 5783   1.222   0.160   1.810
 1866HOH      O 5784   2.882   1.496   2.876
 1866HOH     H1 5785   2.898   1.468   2.786
 1866HOH     H2 5786   2.903   1.589   2.877
 1867HOH      O 5787   0.765   0.761   1.645
 1867HOH     H1 5788   0.711   0.837   1.664
 1867HOH     H2 5789   0.711   0.686   1.671
 1868HOH      O 5790   2.198   1.804   0.209
 1868HOH     H1 5791   2.165   1.778   0.123
 1868HOH     H2 5792   2.159   1.890   0.225
 1869HOH      O 5793   3.910   3.083   0.809
 1869HOH     H1 5794   3.999   3.094   0.843
 1869HOH     H2 5795   3.865   3.164   0.831
 1870HOH      O 5796   2.095   2.808   1.345
 1870HOH     H1 5797   2.103   2.750   1.270
 1870HOH     H2 5798   2.033   2.765   1.404
 1871HOH      O 5799   1.820   0.792   3.018
 1871HOH     H1 5800   1.741   0.743   3.039
 1871HOH     H2 5801   1.884   0.725   2.993
 1872HOH      O 5802   2.671   1.658   0.675
 1872HOH     H1 5803   2.727   1.736   0.674
 1872HOH     H2 5804   2.641   1.652   0.765
 1873HOH      O 5805   2.963   1.746   2.845
 1873HOH     H1 5806   2.912   1.821   2.815
 1873HOH     H2 5807   3.032   1.736   2.780
 1874HOH      O 5808   0.887   2.893   0.917
 1874HOH     H1 5809   0.813   2.868   0.861
 1874HOH     H2 5810   0.931   2.810   0.936
 1875HOH      O 5811   2.886   1.435   2.610
 1875HOH     H1 5812   2.913   1.344   2.598
 1875HOH     H2 5813   2.919   1.480   2.533
 1876HOH      O 5814   1.369   0.467   0.475
 1876HOH     H1 5815   1.378   0.418   0.557
 1876HOH     H2 5816   1.425   0.421   0.413
 1877HOH      O 5817   3.441   3.820   2.386
 1877HOH     H1 5818   3.515   3.806   2.446
 1877HOH     H2 5819   3.416   3.732   2.358
 1878HOH      O 5820   1.322   0.644   1.626
 1878HOH     H1 5821   1.357   0.731   1.608
 1878HOH     H2 5822   1.306   0.606   1.540
 1879HOH      O 5823   0.326   1.017   1.886
 1879HOH     H1 5824   0.400   0.969   1.848
 1879HOH     H2 5825   0.314   1.092   1.827
 1880HOH      O 5826   2.509   0.383   1.454
 1880HOH     H1 5827   2.586   0.427   1.417
 1880HOH     H2 5828   2.438   0.446   1.444
 1881HOH      O 5829  -0.008   2.177   0.049
 1881HOH     H1 5830   0.037   2.256   0.078
 1881HOH     H2 5831  -0.012   2.121   0.126
 1882HOH      O 5832   2.938   3.293   2.615
 1882HOH     H1 5833   3.024   3.257   2.637
 1882HOH     H2 5834   2.923   3.265   2.524
 1883HOH      O 5835   1.802   3.406   2.557
 1883HOH     H1 5836   1.782   3.487   2.604
 1883HOH     H2 5837   1.755   3.338   2.605
 1884HOH      O 5838   2.006   3.765   2.441
 1884HOH     H1 5839   2.054   3.686   2.465
 1884HOH     H2 5840   1.921   3.733   2.412
 1885HOH      O 5841   0.798   0.010   1.168
 1885HOH     H1 5842   0.827   0.084   1.116
 1885HOH     H2 5843   0.703   0.019   1.173
 1886HOH      O 5844   1.161   2.122   1.698
 1886HOH     H1 5845   1.205   2.109   1.614
 1886HOH     H2 5846   1.189   2.048   1.752
 1887HOH      O 5847   0.522   3.658   1.851
 1887HOH     H1 5848   0.592   3.716   1.880
 1887HOH     H2 5849   0.554   3.570   1.871
 1888HOH      O 5850  -0.008   2.418   1.198
 1888HOH     H1 5851   0.064   2.481   1.193
 1888HOH     H2 5852   0.028   2.338   1.162
 1889HOH      O 5853   0.466   1.317   1.500
 1889HOH     H1 5854   0.380   1.286   1.469
 1889HOH     H2 5855   0.469   1.291   1.592
 1890HOH      O 5856   3.105   0.481   0.525
 1890HOH     H1 5857   3.014   0.505   0.508
 1890HOH     H2 5858   3.120   0.402   0.474
 1891HOH      O 5859   0.334   0.820   0.544
 1891HOH     H1 5860   0.353   0.854   0.632
 1891HOH     H2 5861   0.240   0.805   0.544
 1892HOH      O 5862   0.656   0.977   1.993
 1892HOH     H1 5863   0.637   0.896   2.041
 1892HOH     H2 5864   0.615   0.964   1.907
 1893HOH      O 5865   3.108   1.263   0.109
 1893HOH     H1 5866   3.131   1.291   0.197
 1893HOH     H2 5867   3.086   1.170   0.118
 1894HOH      O 5868   1.639   0.045   3.151
 1894HOH     H1 5869   1.683   0.006   3.076
 1894HOH     H2 5870   1.697   0.116   3.179
 1895HOH      O 5871   2.695   1.032   3.819
 1895HOH     H1 5872   2.695   1.072   3.732
 1895HOH     H2 5873   2.660   1.100   3.877
 1896HOH      O 5874   3.560   2.877   0.958
 1896HOH     H1 5875   3.469   2.864   0.984
 1896HOH     H2 5876   3.564   2.969   0.932
 1897HOH      O 5877   3.242   3.943   1.117
 1897HOH     H1 5878   3.210   3.922   1.205
 1897HOH     H2 5879   3.244   4.039   1.115
 1898HOH      O 5880   0.517   2.085   2.077
 1898HOH     H1 5881   0.540   2.106   1.987
 1898HOH     H2 5882   0.548   2.160   2.128
 1899HOH      O 5883   2.010   2.211   1.172
 1899HOH     H1 5884   2.078   2.152   1.203
 1899HOH     H2 5885   1.977   2.254   1.251
 1900HOH      O 5886   3.681   2.483   2.410
 1900HOH     H1 5887   3.626   2.409   2.437
 1900HOH     H2 5888   3.646   2.558   2.458
 1901HOH      O 5889   1.313   1.901   1.855
 1901HOH     H1 5890   1.401   1.925   1.828
 1901HOH     H2 5891   1.325   1.865   1.943
 1902HOH      O 5892   0.758   2.981   0.664
 1902HOH     H1 5893   0.808   3.059   0.638
 1902HOH     H2 5894   0.666   3.009   0.661
 1903HOH      O 5895   0.599   2.640   0.110
 1903HOH     H1 5896   0.560   2.697   0.176
 1903HOH     H2 5897   0.605   2.554   0.153
 1904HOH      O 5898   1.866   3.756   0.342
 1904HOH     H1 5899   1.904   3.685   0.394
 1904HOH     H2 5900   1.893   3.836   0.386
 1905HOH      O 5901   2.125   3.704   1.817
 1905HOH     H1 5902   2.162   3.727   1.732
 1905HOH     H2 5903   2.197   3.717   1.879
 1906HOH      O 5904   1.360   0.162   0.372
 1906HOH     H1 5905   1.279   0.202   0.405
 1906HOH     H2 5906   1.382   0.095   0.437
 1907HOH      O 5907   0.173   3.376   1.927
 1907HOH     H1 5908   0.156   3.303   1.868
 1907HOH     H2 5909   0.144   3.345   2.013
 1908HOH      O 5910   3.880   0.855   0.702
 1908HOH     H1 5911   3.890   0.948   0.684
 1908HOH     H2 5912   3.944   0.836   0.770
 1909HOH      O 5913   4.048   0.156   3.376
 1909HOH     H1 5914   4.030   0.129   3.286
 1909HOH     H2 5915   3.992   0.100   3.429
 1910HOH      O 5916   0.642   0.049   2.753
 1910HOH     H1 5917   0.589   0.036   2.831
 1910HOH     H2 5918   0.600   0.122   2.707
 1911HOH      O 5919   4.045   1.487   0.169
 1911HOH     H1 5920   4.012   1.561   0.118
 1911HOH     H2 5921   4.022   1.410   0.116
 1912HOH      O 5922   0.956   1.493   1.851
 1912HOH     H1 5923   0.995   1.434   1.914
 1912HOH     H2 5924   1.001   1.577   1.866
 1913HOH      O 5925   1.430   3.930   1.450
 1913HOH     H1 5926   1.355   3.878   1.422
 1913HOH     H2 5927   1.484   3.869   1.501
 1914HOH      O 5928   1.632   3.314   1.733
 1914HOH     H1 5929   1.659   3.327   1.642
 1914HOH     H2 5930   1.595   3.226   1.735
 1915HOH      O 5931   0.996   1.145   2.878
 1915HOH     H1 5932   1.052   1.153   2.800
 1915HOH     H2 5933   0.961   1.056   2.874
 1916HOH      O 5934   0.890   1.057   2.088
 1916HOH     H1 5935   0.881   1.010   2.171
 1916HOH     H2 5936   0.820   1.022   2.033
 1917HOH      O 5937   1.971   2.192   2.628
 1917HOH     H1 5938   1.908   2.196   2.700
 1917HOH     H2 5939   2.003   2.281   2.619
 1918HOH      O 5940   0.453   1.108   0.412
 1918HOH     H1 5941   0.510   1.076   0.483
 1918HOH     H2 5942   0.398   1.033   0.390
 1919HOH      O 5943   3.773   2.774   0.083
 1919HOH     H1 5944   3.695   2.725   0.110
 1919HOH     H2 5945   3.823   2.712   0.030
 1920HOH      O 5946   0.303   3.302   1.042
 1920HOH     H1 5947   0.330   3.351   1.120
 1920HOH     H2 5948   0.356   3.340   0.971
 1921HOH      O 5949   0.149   1.292   2.580
 1921HOH     H1 5950   0.210   1.345   2.631
 1921HOH     H2 5951   0.067   1.296   2.630
 1922HOH      O 5952   1.066   3.681   2.142
 1922HOH     H1 5953   1.098   3.606   2.093
 1922HOH     H2 5954   1.079   3.657   2.234
 1923HOH      O 5955   3.598   1.945   1.273
 1923HOH     H1 5956   3.647   1.993   1.340
 1923HOH     H2 5957   3.627   1.983   1.190
 1924HOH      O 5958   1.787   0.834   2.648
 1924HOH     H1 5959   1.805   0.856   2.739
 1924HOH     H2 5960   1.720   0.765   2.652
 1925HOH      O 5961   2.736   1.879   0.827
 1925HOH     H1 5962   2.816   1.843   0.788
 1925HOH     H2 5963   2.734   1.842   0.915
 1926HOH      O 5964   3.090   3.216   3.963
 1926HOH     H1 5965   3.113   3.198   3.872
 1926HOH     H2 5966   3.133   3.299   3.983
 1927HOH      O 5967   0.636   0.083   2.052
 1927HOH     H1 5968   0.672   0.079   1.963
 1927HOH     H2 5969   0.647  -0.005   2.086
 1928HOH      O 5970   3.995   2.617   3.024
 1928HOH     H1 5971   3.994   2.620   3.120
 1928HOH     H2 5972   3.926   2.555   3.001
 1929HOH      O 5973   1.457   3.985   3.997
 1929HOH     H1 5974   1.512   3.982   4.075
 1929HOH     H2 5975   1.519   4.004   3.925
 1930HOH      O 5976   1.076   1.851   3.792
 1930HOH     H1 5977   1.026   1.788   3.741
 1930HOH     H2 5978   1.033   1.852   3.877
 1931HOH      O 5979   3.778   3.219   1.461
 1931HOH     H1 5980   3.818   3.132   1.461
 1931HOH     H2 5981   3.713   3.215   1.391
 1932HOH      O 5982   3.160   2.374   2.353
 1932HOH     H1 5983   3.229   2.426   2.396
 1932HOH     H2 5984   3.080   2.423   2.370
 1933HOH      O 5985   3.834   1.625   3.881
 1933HOH     H1 5986   3.766   1.560   3.901
 1933HOH     H2 5987   3.877   1.591   3.803
 1934HOH      O 5988   1.362   2.285   2.523
 1934HOH     H1 5989   1.372   2.356   2.460
 1934HOH     H2 5990   1.436   2.295   2.583
 1935HOH      O 5991   2.271   1.150   3.529
 1935HOH     H1 5992   2.206   1.089   3.494
 1935HOH     H2 5993   2.334   1.094   3.575
 1936HOH      O 5994   1.804   1.780   1.775
 1936HOH     H1 5995   1.769   1.713   1.715
 1936HOH     H2 5996   1.895   1.790   1.748
 1937HOH      O 5997   0.655   1.270   0.340
 1937HOH     H1 5998   0.582   1.219   0.375
 1937HOH     H2 5999   0.616   1.321   0.268
 1938HOH      O 6000   0.713   2.985   2.175
 1938HOH     H1 6001   0.808   2.985   2.187
 1938HOH     H2 6002   0.678   3.013   2.260
 1939HOH      O 6003   0.660   3.811   3.693
 1939HOH     H1 6004   0.711   3.730   3.702
 1939HOH     H2 6005   0.725   3.878   3.674
 1940HOH      O 6006   3.653   3.644   1.078
 1940HOH     H1 6007   3.736   3.643   1.031
 1940HOH     H2 6008   3.657   3.569   1.137
 1941HOH      O 6009   2.889   3.558   3.445
 1941HOH     H1 6010   2.827   3.613   3.397
 1941HOH     H2 6011   2.908   3.607   3.525
 1942HOH      O 6012   0.036   2.814   0.970
 1942HOH     H1 6013  -0.056   2.826   0.945
 1942HOH     H2 6014   0.065   2.902   0.996
 1943HOH      O 6015   1.192   3.162   1.880
 1943HOH     H1 6016   1.167   3.070   1.886
 1943HOH     H2 6017   1.282   3.164   1.914
 1944HOH      O 6018   2.420   2.775   2.316
 1944HOH     H1 6019   2.433   2.855   2.265
 1944HOH     H2 6020   2.424   2.805   2.407
 1945HOH      O 6021   2.545   2.687   1.574
 1945HOH     H1 6022   2.580   2.766   1.534
 1945HOH     H2 6023   2.586   2.683   1.661
 1946HOH      O 6024   3.535   1.706   1.106
 1946HOH     H1 6025   3.557   1.780   1.050
 1946HOH     H2 6026   3.585   1.720   1.186
 1947HOH      O 6027   1.404   3.606   1.326
 1947HOH     H1 6028   1.347   3.562   1.390
 1947HOH     H2 6029   1.492   3.574   1.346
 1948HOH      O 6030   2.218   1.184   1.800
 1948HOH     H1 6031   2.146   1.124   1.819
 1948HOH     H2 6032   2.187   1.235   1.725
 1949HOH      O 6033   3.497   2.397   2.183
 1949HOH     H1 6034   3.507   2.387   2.277
 1949HOH     H2 6035   3.524   2.312   2.147
 1950HOH      O 6036   0.792   0.030   3.714
 1950HOH     H1 6037   0.789   0.071   3.627
 1950HOH     H2 6038   0.729   0.080   3.766
 1951HOH      O 6039   0.133   2.262   0.637
 1951HOH     H1 6040   0.116   2.207   0.561
 1951HOH     H2 6041   0.051   2.308   0.653
 1952HOH      O 6042   1.689   0.076   0.837
 1952HOH     H1 6043   1.670   0.105   0.748
 1952HOH     H2 6044   1.615   0.021   0.860
 1953HOH      O 6045   1.112   0.941   3.914
 1953HOH     H1 6046   1.056   0.863   3.920
 1953HOH     H2 6047   1.194   0.909   3.877
 1954HOH      O 6048   1.568   3.270   1.091
 1954HOH     H1 6049   1.566   3.216   1.170
 1954HOH     H2 6050   1.629   3.225   1.033
 1955HOH      O 6051   3.845   1.576   0.727
 1955HOH     H1 6052   3.863   1.640   0.659
 1955HOH     H2 6053   3.920   1.582   0.786
 1956HOH      O 6054   3.864   0.718   2.833
 1956HOH     H1 6055   3.839   0.651   2.769
 1956HOH     H2 6056   3.825   0.687   2.915
 1957HOH      O 6057   3.058   2.395   1.059
 1957HOH     H1 6058   3.093   2.418   0.973
 1957HOH     H2 6059   3.118   2.328   1.092
 1958HOH      O 6060   2.127   0.666   3.904
 1958HOH     H1 6061   2.035   0.641   3.899
 1958HOH     H2 6062   2.160   0.654   3.815
 1959HOH      O 6063   1.568   3.791   1.613
 1959HOH     H1 6064   1.559   3.711   1.666
 1959HOH     H2 6065   1.624   3.848   1.666
 1960HOH      O 6066   2.064   2.683   0.413
 1960HOH     H1 6067   2.094   2.773   0.401
 1960HOH     H2 6068   2.086   2.662   0.504
 1961HOH      O 6069   3.857   0.790   3.861
 1961HOH     H1 6070   3.922   0.820   3.798
 1961HOH     H2 6071   3.795   0.738   3.809
 1962HOH      O 6072   3.655   3.392   0.895
 1962HOH     H1 6073   3.664   3.447   0.817
 1962HOH     H2 6074   3.571   3.419   0.934
 1963HOH      O 6075   0.670   3.722   2.758
 1963HOH     H1 6076   0.751   3.672   2.748
 1963HOH     H2 6077   0.636   3.729   2.668
 1964HOH      O 6078   2.450   2.802   0.410
 1964HOH     H1 6079   2.377   2.860   0.393
 1964HOH     H2 6080   2.491   2.837   0.489
 1965HOH      O 6081   3.736   2.353   2.686
 1965HOH     H1 6082   3.667   2.403   2.642
 1965HOH     H2 6083   3.688   2.287   2.737
 1966HOH      O 6084   3.594   3.503   3.182
 1966HOH     H1 6085   3.577   3.594   3.158
 1966HOH     H2 6086   3.513   3.457   3.159
 1967HOH      O 6087   0.077   1.624   1.710
 1967HOH     H1 6088   0.165   1.633   1.671
 1967HOH     H2 6089   0.039   1.549   1.665
 1968HOH      O 6090   3.968   3.667   3.702
 1968HOH     H1 6091   4.015   3.609   3.642
 1968HOH     H2 6092   4.035   3.697   3.763
 1969HOH      O 6093   0.493   3.120   0.693
 1969HOH     H1 6094   0.478   3.125   0.599
 1969HOH     H2 6095   0.469   3.206   0.726
 1970HOH      O 6096   3.066   1.137   2.184
 1970HOH     H1 6097   3.142   1.158   2.239
 1970HOH     H2 6098   3.103   1.094   2.107
 1971HOH      O 6099   1.815   2.981   3.096
 1971HOH     H1 6100   1.896   3.031   3.100
 1971HOH     H2 6101   1.832   2.901   3.146
 1972HOH      O 6102   1.432   1.488   3.365
 1972HOH     H1 6103   1.465   1.443   3.287
 1972HOH     H2 6104   1.509   1.529   3.404
 1973HOH      O 6105   0.854   2.717   1.182
 1973HOH     H1 6106   0.939   2.713   1.226
 1973HOH     H2 6107   0.857   2.647   1.117
 1974HOH      O 6108   1.993   2.157   2.038
 1974HOH     H1 6109   1.950   2.072   2.035
 1974HOH     H2 6110   2.035   2.159   2.125
 1975HOH      O 6111   2.266   3.270   3.962
 1975HOH     H1 6112   2.346   3.235   4.001
 1975HOH     H2 6113   2.247   3.211   3.889
 1976HOH      O 6114   1.885   3.927   3.241
 1976HOH     H1 6115   1.860   3.872   3.167
 1976HOH     H2 6116   1.949   3.874   3.290
 1977HOH      O 6117   2.197   2.939   2.100
 1977HOH     H1 6118   2.111   2.899   2.086
 1977HOH     H2 6119   2.259   2.867   2.085
 1978HOH      O 6120   0.321   0.716   2.214
 1978HOH     H1 6121   0.233   0.680   2.220
 1978HOH     H2 6122   0.309   0.807   2.187
 1979HOH      O 6123   1.697   2.242   2.229
 1979HOH     H1 6124   1.624   2.283   2.276
 1979HOH     H2 6125   1.658   2.210   2.148
 1980HOH      O 6126   0.955   2.346   0.928
 1980HOH     H1 6127   0.989   2.313   0.845
 1980HOH     H2 6128   0.867   2.310   0.935
 1981HOH      O 6129   2.757   0.439   1.324
 1981HOH     H1 6130   2.853   0.432   1.332
 1981HOH     H2 6131   2.737   0.524   1.364
 1982HOH      O 6132   0.623   1.205   3.291
 1982HOH     H1 6133   0.713   1.223   3.265
 1982HOH     H2 6134   0.617   1.239   3.381
 1983HOH      O 6135   0.794   2.631   1.938
 1983HOH     H1 6136   0.763   2.677   1.860
 1983HOH     H2 6137   0.890   2.638   1.933
 1984HOH      O 6138   1.484   3.562   3.505
 1984HOH     H1 6139   1.458   3.480   3.547
 1984HOH     H2 6140   1.461   3.630   3.569
 1985HOH      O 6141   0.970   3.012   2.595
 1985HOH     H1 6142   0.946   3.101   2.618
 1985HOH     H2 6143   0.922   2.957   2.657
 1986HOH      O 6144   0.565   2.088   2.858
 1986HOH     H1 6145   0.572   2.182   2.873
 1986HOH     H2 6146   0.480   2.077   2.815
 1987HOH      O 6147   0.960   1.433   2.829
 1987HOH     H1 6148   0.964   1.364   2.895
 1987HOH     H2 6149   0.944   1.386   2.747
 1988HOH      O 6150   1.284   3.860   3.814
 1988HOH     H1 6151   1.330   3.884   3.894
 1988HOH     H2 6152   1.207   3.917   3.813
 1989HOH      O 6153   3.667   2.248   1.214
 1989HOH     H1 6154   3.705   2.332   1.190
 1989HOH     H2 6155   3.587   2.270   1.262
 1990HOH      O 6156   0.793   1.434   0.507
 1990HOH     H1 6157   0.769   1.409   0.596
 1990HOH     H2 6158   0.739   1.378   0.451
 1991HOH      O 6159   0.349   3.701   2.330
 1991HOH     H1 6160   0.311   3.787   2.314
 1991HOH     H2 6161   0.332   3.652   2.250
 1992HOH      O 6162   1.811   1.310   2.098
 1992HOH     H1 6163   1.785   1.337   2.010
 1992HOH     H2 6164   1.881   1.371   2.122
 1993HOH      O 6165   0.637   2.260   3.945
 1993HOH     H1 6166   0.724   2.264   3.984
 1993HOH     H2 6167   0.633   2.173   3.905
 1994HOH      O 6168   3.290   3.905   2.934
 1994HOH     H1 6169   3.317   3.813   2.930
 1994HOH     H2 6170   3.201   3.902   2.971
 1995HOH      O 6171   3.328   2.006   0.543
 1995HOH     H1 6172   3.371   2.080   0.586
 1995HOH     H2 6173   3.266   1.973   0.609
 1996HOH      O 6174   3.194   0.883   1.657
 1996HOH     H1 6175   3.217   0.976   1.660
 1996HOH     H2 6176   3.218   0.850   1.744
 1997HOH      O 6177   0.632   2.023   0.807
 1997HOH     H1 6178   0.687   1.966   0.754
 1997HOH     H2 6179   0.548   2.025   0.762
 1998HOH      O 6180   0.858   0.577   0.094
 1998HOH     H1 6181   0.839   0.486   0.070
 1998HOH     H2 6182   0.775   0.611   0.127
 1999HOH      O 6183   3.666   1.952   3.908
 1999HOH     H1 6184   3.727   2.024   3.923
 1999HOH     H2 6185   3.715   1.874   3.934
 2000HOH      O 6186   0.242   0.299   1.284
 2000HOH     H1 6187   0.259   0.236   1.354
 2000HOH     H2 6188   0.320   0.355   1.283
 2001HOH      O 6189   1.263   2.390   3.148
 2001HOH     H1 6190   1.211   2.428   3.218
 2001HOH     H2 6191   1.245   2.296   3.152
 2002HOH      O 6192   0.599   2.481   1.251
 2002HOH     H1 6193   0.558   2.534   1.182
 2002HOH     H2 6194   0.686   2.519   1.262
 2003HOH      O 6195   2.050   0.454   0.382
 2003HOH     H1 6196   1.980   0.498   0.431
 2003HOH     H2 6197   2.020   0.454   0.292
 2004HOH      O 6198   1.575   0.150   2.194
 2004HOH     H1 6199   1.563   0.244   2.207
 2004HOH     H2 6200   1.573   0.113   2.282
 2005HOH      O 6201   0.367   2.959   1.745
 2005HOH     H1 6202   0.289   2.991   1.790
 2005HOH     H2 6203   0.371   2.866   1.767
 2006HOH      O 6204   0.466   1.847   0.998
 2006HOH     H1 6205   0.529   1.782   0.967
 2006HOH     H2 6206   0.470   1.917   0.934
 2007HOH      O 6207   3.441   0.824   3.311
 2007HOH     H1 6208   3.443   0.894   3.246
 2007HOH     H2 6209   3.351   0.791   3.308
 2008HOH      O 6210   3.791   1.686   2.411
 2008HOH     H1 6211   3.840   1.653   2.336
 2008HOH     H2 6212   3.822   1.635   2.486
 2009HOH      O 6213   2.948   0.913   3.405
 2009HOH     H1 6214   2.930   0.959   3.322
 2009HOH     H2 6215   2.865   0.915   3.452
 2010HOH      O 6216   3.420   2.219   1.478
 2010HOH     H1 6217   3.378   2.139   1.446
 2010HOH     H2 6218   3.513   2.204   1.466
 2011HOH      O 6219   0.551   3.185   1.689
 2011HOH     H1 6220   0.492   3.162   1.617
 2011HOH     H2 6221   0.524   3.128   1.761
 2012HOH      O 6222   0.835   0.910   2.340
 2012HOH     H1 6223   0.885   0.829   2.328
 2012HOH     H2 6224   0.766   0.886   2.402
 2013HOH      O 6225   1.980   3.798   3.916
 2013HOH     H1 6226   2.036   3.767   3.845
 2013HOH     H2 6227   2.023   3.878   3.948
 2014HOH      O 6228   1.891   3.226   3.495
 2014HOH     H1 6229   1.957   3.266   3.438
 2014HOH     H2 6230   1.865   3.296   3.555
 2015HOH      O 6231   1.330   2.399   1.390
 2015HOH     H1 6232   1.268   2.364   1.454
 2015HOH     H2 6233   1.415   2.364   1.417
 2016HOH      O 6234   0.119   0.542   0.558
 2016HOH     H1 6235   0.040   0.488   0.560
 2016HOH     H2 6236   0.150   0.542   0.648
 2017HOH      O 6237   2.925   2.066   2.999
 2017HOH     H1 6238   2.836   2.033   2.987
 2017HOH     H2 6239   2.942   2.055   3.093
 2018HOH      O 6240   0.309   1.206   1.297
 2018HOH     H1 6241   0.367   1.231   1.225
 2018HOH     H2 6242   0.222   1.234   1.268
 2019HOH      O 6243   3.812   1.597   1.730
 2019HOH     H1 6244   3.880   1.556   1.676
 2019HOH     H2 6245   3.756   1.524   1.756
 2020HOH      O 6246   3.984   1.100   1.877
 2020HOH     H1 6247   3.960   1.078   1.967
 2020HOH     H2 6248   3.903   1.093   1.827
 2021HOH      O 6249   2.257   1.741   1.357
 2021HOH     H1 6250   2.180   1.745   1.413
 2021HOH     H2 6251   2.272   1.647   1.343
 2022HOH      O 6252   1.265   2.327   0.256
 2022HOH     H1 6253   1.263   2.420   0.235
 2022HOH     H2 6254   1.343   2.316   0.309
 2023HOH      O 6255   3.062   3.841   1.381
 2023HOH     H1 6256   3.052   3.936   1.370
 2023HOH     H2 6257   2.989   3.803   1.333
 2024HOH      O 6258   0.264   3.053   3.513
 2024HOH     H1 6259   0.313   3.133   3.531
 2024HOH     H2 6260   0.177   3.069   3.548
 2025HOH      O 6261   0.322   1.664   1.622
 2025HOH     H1 6262   0.403   1.634   1.665
 2025HOH     H2 6263   0.325   1.759   1.630
 2026HOH      O 6264   2.884   1.086   0.304
 2026HOH     H1 6265   2.979   1.086   0.303
 2026HOH     H2 6266   2.861   1.115   0.392
 2027HOH      O 6267   2.851   0.879   3.965
 2027HOH     H1 6268   2.875   0.803   3.912
 2027HOH     H2 6269   2.784   0.924   3.913
 2028HOH      O 6270   2.891   1.955   1.435
 2028HOH     H1 6271   2.876   1.970   1.529
 2028HOH     H2 6272   2.895   1.860   1.426
 2029HOH      O 6273   2.173   1.648   0.425
 2029HOH     H1 6274   2.193   1.699   0.347
 2029HOH     H2 6275   2.224   1.690   0.494
 2030HOH      O 6276   1.192   2.861   1.168
 2030HOH     H1 6277   1.272   2.903   1.201
 2030HOH     H2 6278   1.209   2.767   1.178
 2031HOH      O 6279   0.250   3.563   3.630
 2031HOH     H1 6280   0.323   3.582   3.690
 2031HOH     H2 6281   0.268   3.616   3.553
 2032HOH      O 6282   3.253   2.864   0.371
 2032HOH     H1 6283   3.209   2.835   0.291
 2032HOH     H2 6284   3.320   2.926   0.341
 2033HOH      O 6285   1.730   2.202   3.670
 2033HOH     H1 6286   1.740   2.174   3.761
 2033HOH     H2 6287   1.707   2.294   3.676
 2034HOH      O 6288   3.087   2.730   0.691
 2034HOH     H1 6289   3.051   2.753   0.606
 2034HOH     H2 6290   3.159   2.792   0.704
 2035HOH      O 6291   3.642   1.018   0.993
 2035HOH     H1 6292   3.577   1.085   0.972
 2035HOH     H2 6293   3.658   1.029   1.087
 2036HOH      O 6294   2.245   3.760   0.212
 2036HOH     H1 6295   2.231   3.680   0.162
 2036HOH     H2 6296   2.328   3.746   0.257
 2037HOH      O 6297   3.864   3.490   3.015
 2037HOH     H1 6298   3.872   3.398   2.988
 2037HOH     H2 6299   3.783   3.493   3.065
 2038HOH      O 6300   1.730   3.561   2.089
 2038HOH     H1 6301   1.734   3.654   2.070
 2038HOH     H2 6302   1.771   3.553   2.175
 2039HOH      O 6303   3.030   3.411   1.194
 2039HOH     H1 6304   3.026   3.331   1.245
 2039HOH     H2 6305   3.102   3.461   1.233
 2040HOH      O 6306   2.135   4.013   0.243
 2040HOH     H1 6307   2.139   3.923   0.211
 2040HOH     H2 6308   2.220   4.050   0.220
 2041HOH      O 6309   3.339   1.379   0.038
 2041HOH     H1 6310   3.257   1.335   0.061
 2041HOH     H2 6311   3.330   1.467   0.075
 2042HOH      O 6312   2.840   2.006   0.479
 2042HOH     H1 6313   2.924   2.049   0.494
 2042HOH     H2 6314   2.859   1.912   0.482
 2043HOH      O 6315   0.986   3.572   4.029
 2043HOH     H1 6316   1.066   3.588   3.978
 2043HOH     H2 6317   0.935   3.512   3.974
 2044HOH      O 6318   1.164   1.317   2.310
 2044HOH     H1 6319   1.174   1.362   2.394
 2044HOH     H2 6320   1.103   1.245   2.328
 2045HOH      O 6321   2.679   3.687   1.383
 2045HOH     H1 6322   2.675   3.592   1.390
 2045HOH     H2 6323   2.747   3.704   1.318
 2046HOH      O 6324   0.956   0.583   1.878
 2046HOH     H1 6325   0.944   0.582   1.783
 2046HOH     H2 6326   1.050   0.567   1.890
 2047HOH      O 6327   1.873   1.075   2.270
 2047HOH     H1 6328   1.805   1.010   2.248
 2047HOH     H2 6329   1.851   1.151   2.216
 2048HOH      O 6330   1.267   2.707   0.482
 2048HOH     H1 6331   1.212   2.682   0.556
 2048HOH     H2 6332   1.341   2.645   0.485
 2049HOH      O 6333   2.431   3.538   1.553
 2049HOH     H1 6334   2.471   3.459   1.591
 2049HOH     H2 6335   2.498   3.572   1.494
 2050HOH      O 6336   3.103   2.154   1.667
 2050HOH     H1 6337   3.070   2.159   1.577
 2050HOH     H2 6338   3.039   2.203   1.719
 2051HOH      O 6339   2.808   0.879   3.151
 2051HOH     H1 6340   2.836   0.828   3.075
 2051HOH     H2 6341   2.714   0.865   3.156
 2052HOH      O 6342   2.022   3.777   1.051
 2052HOH     H1 6343   1.995   3.720   0.979
 2052HOH     H2 6344   1.975   3.859   1.035
 2053HOH      O 6345   1.230   3.882   0.126
 2053HOH     H1 6346   1.315   3.913   0.094
 2053HOH     H2 6347   1.241   3.875   0.221
 2054HOH      O 6348   0.728   3.387   0.412
 2054HOH     H1 6349   0.809   3.414   0.454
 2054HOH     H2 6350   0.739   3.411   0.320
 2055HOH      O 6351   2.975   3.984   0.108
 2055HOH     H1 6352   2.891   3.939   0.119
 2055HOH     H2 6353   2.952   4.076   0.101
 2056HOH      O 6354   0.943   2.963   2.304
 2056HOH     H1 6355   0.951   2.986   2.397
 2056HOH     H2 6356   0.951   2.868   2.302
 2057HOH      O 6357   0.917   2.014   1.615
 2057HOH     H1 6358   1.008   2.042   1.625
 2057HOH     H2 6359   0.912   1.932   1.665
 2058HOH      O 6360   3.274   2.568   2.170
 2058HOH     H1 6361   3.200   2.520   2.206
 2058HOH     H2 6362   3.346   2.505   2.170
 2059HOH      O 6363   0.316   1.175   0.912
 2059HOH     H1 6364   0.241   1.174   0.972
 2059HOH     H2 6365   0.376   1.240   0.948
 2060HOH      O 6366   1.188   3.138   2.924
 2060HOH     H1 6367   1.167   3.045   2.924
 2060HOH     H2 6368   1.270   3.144   2.974
 2061HOH      O 6369   2.396   3.897   3.449
 2061HOH     H1 6370   2.423   3.808   3.426
 2061HOH     H2 6371   2.452   3.954   3.397
 2062HOH      O 6372   2.228   3.999   1.729
 2062HOH     H1 6373   2.153   3.998   1.670
 2062HOH     H2 6374   2.301   3.964   1.677
 2063HOH      O 6375   1.426   0.360   0.969
 2063HOH     H1 6376   1.391   0.433   1.021
 2063HOH     H2 6377   1.369   0.286   0.990
 2064HOH      O 6378   2.708   0.158   2.855
 2064HOH     H1 6379   2.618   0.182   2.836
 2064HOH     H2 6380   2.701   0.094   2.927
 2065HOH      O 6381   1.708   0.294   1.596
 2065HOH     H1 6382   1.702   0.226   1.529
 2065HOH     H2 6383   1.790   0.275   1.641
 2066HOH      O 6384   2.728   2.171   1.712
 2066HOH     H1 6385   2.685   2.090   1.740
 2066HOH     H2 6386   2.781   2.198   1.787
 2067HOH      O 6387   0.111   2.029   3.233
 2067HOH     H1 6388   0.081   1.986   3.153
 2067HOH     H2 6389   0.031   2.051   3.280
 2068HOH      O 6390   0.550   3.622   0.941
 2068HOH     H1 6391   0.610   3.647   0.870
 2068HOH     H2 6392   0.607   3.585   1.008
 2069HOH      O 6393   0.641   3.951   0.215
 2069HOH     H1 6394   0.675   3.954   0.305
 2069HOH     H2 6395   0.700   3.891   0.169
 2070HOH      O 6396   3.171   1.273   0.375
 2070HOH     H1 6397   3.116   1.248   0.449
 2070HOH     H2 6398   3.240   1.327   0.413
 2071HOH      O 6399   0.199   1.400   2.302
 2071HOH     H1 6400   0.177   1.337   2.371
 2071HOH     H2 6401   0.148   1.370   2.227
 2072HOH      O 6402   1.955   2.119   3.442
 2072HOH     H1 6403   2.048   2.113   3.467
 2072HOH     H2 6404   1.915   2.170   3.513
 2073HOH      O 6405   3.824   2.409   0.767
 2073HOH     H1 6406   3.836   2.392   0.674
 2073HOH     H2 6407   3.864   2.495   0.781
 2074HOH      O 6408   0.850   3.254   1.311
 2074HOH     H1 6409   0.799   3.181   1.276
 2074HOH     H2 6410   0.922   3.264   1.249
 2075HOH      O 6411   1.740   1.534   0.979
 2075HOH     H1 6412   1.722   1.593   0.906
 2075HOH     H2 6413   1.792   1.463   0.941
 2076HOH      O 6414   3.482   2.822   1.867
 2076HOH     H1 6415   3.519   2.747   1.821
 2076HOH     H2 6416   3.400   2.788   1.905
 2077HOH      O 6417   2.181   0.991   2.140
 2077HOH     H1 6418   2.110   1.053   2.155
 2077HOH     H2 6419   2.153   0.911   2.185
 2078HOH      O 6420   2.263   2.802   1.009
 2078HOH     H1 6421   2.225   2.877   0.962
 2078HOH     H2 6422   2.216   2.726   0.974
 2079HOH      O 6423   0.920   2.275   3.974
 2079HOH     H1 6424   0.967   2.249   3.895
 2079HOH     H2 6425   0.975   2.246   4.046
 2080HOH      O 6426   2.914   3.723   3.919
 2080HOH     H1 6427   2.841   3.784   3.905
 2080HOH     H2 6428   2.873   3.646   3.959
 2081HOH      O 6429   3.002   3.897   3.438
 2081HOH     H1 6430   2.990   3.820   3.493
 2081HOH     H2 6431   2.944   3.882   3.363
 2082HOH      O 6432   1.120   1.357   0.914
 2082HOH     H1 6433   1.039   1.311   0.937
 2082HOH     H2 6434   1.111   1.376   0.821
 2083HOH      O 6435   0.117   2.392   0.137
 2083HOH     H1 6436   0.131   2.407   0.231
 2083HOH     H2 6437   0.204   2.375   0.102
 2084HOH      O 6438   0.603   2.130   1.823
 2084HOH     H1 6439   0.623   2.092   1.738
 2084HOH     H2 6440   0.610   2.224   1.809
 2085HOH      O 6441   2.013   0.336   3.812
 2085HOH     H1 6442   1.996   0.332   3.718
 2085HOH     H2 6443   2.052   0.251   3.834
 2086HOH      O 6444   1.701   2.923   0.414
 2086HOH     H1 6445   1.696   3.018   0.403
 2086HOH     H2 6446   1.692   2.909   0.508
 2087HOH      O 6447   1.061   0.066   1.426
 2087HOH     H1 6448   1.088  -0.021   1.397
 2087HOH     H2 6449   0.978   0.082   1.381
 2088HOH      O 6450   0.162   3.827   3.582
 2088HOH     H1 6451   0.244   3.838   3.534
 2088HOH     H2 6452   0.094   3.851   3.519
 2089HOH      O 6453   0.121   0.865   0.221
 2089HOH     H1 6454   0.038   0.887   0.179
 2089HOH     H2 6455   0.096   0.837   0.309
 2090HOH      O 6456   2.260   1.631   3.479
 2090HOH     H1 6457   2.175   1.660   3.513
 2090HOH     H2 6458   2.250   1.634   3.384
 2091HOH      O 6459   0.429   2.547   1.728
 2091HOH     H1 6460   0.403   2.547   1.820
 2091HOH     H2 6461   0.483   2.469   1.718
 2092HOH      O 6462   4.013   2.078   1.776
 2092HOH     H1 6463   4.060   1.996   1.790
 2092HOH     H2 6464   3.982   2.102   1.863
 2093HOH      O 6465   2.503   1.281   1.408
 2093HOH     H1 6466   2.494   1.208   1.468
 2093HOH     H2 6467   2.499   1.242   1.321
 2094HOH      O 6468   3.230   0.547   2.207
 2094HOH     H1 6469   3.216   0.453   2.218
 2094HOH     H2 6470   3.142   0.585   2.217
 2095HOH      O 6471   1.246   0.646   1.869
 2095HOH     H1 6472   1.279   0.632   1.780
 2095HOH     H2 6473   1.213   0.736   1.868
 2096HOH      O 6474   0.722   1.523   3.496
 2096HOH     H1 6475   0.792   1.495   3.436
 2096HOH     H2 6476   0.746   1.612   3.520
 2097HOH      O 6477   2.320   3.601   2.993
 2097HOH     H1 6478   2.325   3.663   2.920
 2097HOH     H2 6479   2.372   3.641   3.062
 2098HOH      O 6480   3.265   1.608   3.400
 2098HOH     H1 6481   3.227   1.543   3.340
 2098HOH     H2 6482   3.200   1.678   3.403
 2099HOH      O 6483   0.517   2.559   0.998
 2099HOH     H1 6484   0.567   2.594   0.924
 2099HOH     H2 6485   0.443   2.514   0.958
 2100HOH      O 6486   3.073   3.853   0.914
 2100HOH     H1 6487   3.143   3.885   0.970
 2100HOH     H2 6488   2.998   3.844   0.972
 2101HOH      O 6489   2.092   2.045   0.705
 2101HOH     H1 6490   2.067   2.107   0.774
 2101HOH     H2 6491   2.015   2.041   0.647
 2102HOH      O 6492   0.609   3.036   2.441
 2102HOH     H1 6493   0.538   3.064   2.499
 2102HOH     H2 6494   0.678   3.102   2.453
 2103HOH      O 6495   1.413   0.829   0.315
 2103HOH     H1 6496   1.383   0.883   0.388
 2103HOH     H2 6497   1.382   0.875   0.237
 2104HOH      O 6498   2.391   0.402   0.295
 2104HOH     H1 6499   2.378   0.320   0.343
 2104HOH     H2 6500   2.357   0.384   0.208
 2105HOH      O 6501   2.565   3.447   2.010
 2105HOH     H1 6502   2.521   3.456   2.094
 2105HOH     H2 6503   2.623   3.372   2.021
 2106HOH      O 6504   1.096   0.383   2.562
 2106HOH     H1 6505   1.179   0.378   2.515
 2106HOH     H2 6506   1.118   0.422   2.647
 2107HOH      O 6507   3.355   3.416   0.944
 2107HOH     H1 6508   3.262   3.414   0.920
 2107HOH     H2 6509   3.362   3.492   1.003
 2108HOH      O 6510   3.530   3.153   1.246
 2108HOH     H1 6511   3.438   3.143   1.269
 2108HOH     H2 6512   3.534   3.133   1.152
 2109HOH      O 6513   3.118   0.192   0.497
 2109HOH     H1 6514   3.089   0.102   0.486
 2109HOH     H2 6515   3.124   0.204   0.592
 2110HOH      O 6516   1.686   1.178   2.824
 2110HOH     H1 6517   1.664   1.261   2.865
 2110HOH     H2 6518   1.757   1.142   2.878
 2111HOH      O 6519   2.319   1.124   3.131
 2111HOH     H1 6520   2.301   1.217   3.143
 2111HOH     H2 6521   2.413   1.119   3.118
   4.02727   4.02727   4.02727   0.00000   0.00000   0.00000   0.00000   0.00000   0.00000
