Generated with MDTraj, t= 497.0
 6521
    1MOL     O1    1   2.127   1.061   2.061
    1MOL     O2    2   2.066   1.140   1.873
    1MOL     N1    3   2.123   1.051   1.940
    1MOL     C1    4   2.128   0.916   1.880
    1MOL     C2    5   2.138   0.907   1.743
    1MOL     C3    6   2.097   0.800   1.952
    1MOL     C4    7   2.137   0.782   1.676
    1MOL     C5    8   2.096   0.671   1.892
    1MOL     C6    9   2.117   0.666   1.754
    1MOL     C7   10   2.146   0.775   1.528
    1MOL     O3   11   2.163   0.872   1.469
    1MOL     O4   12   2.139   0.664   1.471
    1MOL     H1   13   2.134   0.998   1.684
    1MOL     H2   14   2.080   0.803   2.060
    1MOL     H3   15   2.074   0.584   1.953
    1MOL     H4   16   2.089   0.576   1.700
    2OCB     C1   17   1.563   0.838   3.270
    2OCB     C2   18   1.389   0.711   3.078
    2OCB     C3   19   1.501   0.710   3.294
    2OCB     C4   20   1.537   0.890   3.143
    2OCB     C5   21   1.447   0.829   3.056
    2OCB     C6   22   1.415   0.651   3.202
    2OCB     O1   23   1.325   0.650   2.974
    2OCB     C7   24   1.348   0.512   3.235
    2OCB     C8   25   1.402   0.547   2.908
    2OCB     O2   26   1.347   0.425   2.959
    2OCB     C9   27   1.423   0.355   3.057
    2OCB    C10   28   1.434   0.397   3.190
    2OCB    C11   29   1.522   0.329   3.271
    2OCB    C12   30   1.498   0.249   3.003
    2OCB    C13   31   1.592   0.217   3.223
    2OCB    C14   32   1.585   0.190   3.089
    2OCB     O3   33   1.668   0.090   3.041
    2OCB    C15   34   1.700   0.157   3.320
    2OCB    C16   35   1.829   0.239   3.303
    2OCB    C17   36   1.921   0.207   3.206
    2OCB    C18   37   1.806   0.127   3.005
    2OCB     O4   38   1.894   0.105   3.121
    2OCB     O5   39   1.600   0.998   3.086
    2OCB    C19   40   1.656   0.896   3.370
    2OCB    C20   41   1.798   0.847   3.348
    2OCB     O6   42   1.827   1.007   3.173
    2OCB    C21   43   1.875   0.908   3.249
    2OCB    C22   44   2.039   0.273   3.179
    2OCB    C23   45   2.070   0.385   3.254
    2OCB    C24   46   2.003   0.859   3.225
    2OCB    C25   47   2.043   0.741   3.288
    2OCB     O7   48   2.177   0.459   3.215
    2OCB     O8   49   2.163   0.694   3.237
    2OCB    C26   50   2.153   0.585   3.144
    2OCB    C27   51   1.842   0.728   3.408
    2OCB    C28   52   1.965   0.670   3.381
    2OCB    C29   53   1.862   0.355   3.373
    2OCB    C30   54   2.016   0.540   3.445
    2OCB    C31   55   1.985   0.419   3.357
    2OCB    C32   56   1.745   0.977   3.058
    2OCB    C33   57   1.657   0.136   3.469
    2OCB    C34   58   1.754   0.041   3.534
    2OCB    C35   59   1.768  -0.091   3.472
    2OCB     O9   60   1.874  -0.132   3.431
    2OCB    C36   61   1.288   0.506   3.382
    2OCB    C37   62   1.160   0.419   3.406
    2OCB    C38   63   1.118   0.434   3.552
    2OCB    O10   64   1.102   0.330   3.614
    2OCB    C39   65   1.604   0.890   3.518
    2OCB    C40   66   1.458   0.940   3.519
    2OCB    C41   67   1.399   0.939   3.661
    2OCB    O11   68   1.421   1.035   3.731
    2OCB    C42   69   1.981   0.524   3.594
    2OCB    C43   70   2.048   0.636   3.681
    2OCB    C44   71   2.023   0.606   3.831
    2OCB    O12   72   1.915   0.580   3.880
    2OCB    C45   73   1.396   0.552   2.757
    2OCB    C46   74   1.389   0.541   2.477
    2OCB    C47   75   1.393   0.428   2.689
    2OCB    C48   76   1.408   0.667   2.682
    2OCB    C49   77   1.393   0.666   2.539
    2OCB    C50   78   1.393   0.424   2.551
    2OCB    C51   79   1.778   1.060   2.939
    2OCB    C52   80   1.871   1.176   2.697
    2OCB    C53   81   1.907   1.110   2.924
    2OCB    C54   82   1.698   1.076   2.832
    2OCB    C55   83   1.742   1.130   2.710
    2OCB    C56   84   1.951   1.173   2.814
    2OCB    C57   85   2.247   0.600   3.023
    2OCB    C58   86   2.403   0.641   2.792
    2OCB    C59   87   2.272   0.493   2.937
    2OCB    C60   88   2.304   0.719   3.003
    2OCB    C61   89   2.378   0.743   2.886
    2OCB    C62   90   2.355   0.513   2.827
    2OCB    C63   91   1.852   0.050   2.887
    2OCB    C64   92   1.926  -0.032   2.627
    2OCB    C65   93   1.984   0.040   2.851
    2OCB    C66   94   1.753   0.023   2.788
    2OCB    C67   95   1.796  -0.021   2.659
    2OCB    C68   96   2.021   0.006   2.722
    2OCB    O13   97   1.663   1.149   2.604
    2OCB    O14   98   2.422   0.870   2.845
    2OCB    O15   99   2.395   0.409   2.746
    2OCB    O16  100   1.400   0.778   2.462
    2OCB    O17  101   1.401   0.306   2.480
    2OCB    O18  102   2.153  -0.005   2.682
    2OCB    O19  103   1.703  -0.061   2.565
    2OCB    C69  104   2.356   0.994   2.881
    2OCB    C70  105   2.246   1.244   2.970
    2OCB    C71  106   2.242   1.048   2.815
    2OCB    C72  107   2.411   1.065   2.979
    2OCB    C73  108   2.359   1.183   3.033
    2OCB    C74  109   2.184   1.173   2.865
    2OCB    O20  110   2.074   1.228   2.802
    2OCB    C75  111   1.418   0.899   2.513
    2OCB    C76  112   1.423   1.149   2.623
    2OCB    C77  113   1.298   0.961   2.543
    2OCB    C78  114   1.542   0.957   2.542
    2OCB    C79  115   1.543   1.084   2.589
    2OCB    C80  116   1.299   1.093   2.587
    2OCB    C81  117   2.378   0.270   2.776
    2OCB    C82  118   2.358  -0.001   2.809
    2OCB    C83  119   2.474   0.201   2.851
    2OCB    C84  120   2.277   0.201   2.708
    2OCB    C85  121   2.260   0.066   2.736
    2OCB    C86  122   2.468   0.067   2.865
    2OCB    C87  123   2.576  -0.007   2.937
    2OCB    O21  124   2.666   0.049   2.992
    2OCB    C88  125   1.248  -0.073   2.743
    2OCB    O22  126   1.144  -0.024   2.754
    2OCB    C89  127   1.168   1.167   2.604
    2OCB    O23  128   1.065   1.112   2.574
    2OCB    O24  129   1.674  -0.168   3.490
    2OCB    O25  130   2.125   0.604   3.900
    2OCB    O26  131   1.304   0.872   3.681
    2OCB    C90  132   2.410   1.251   3.161
    2OCB    O27  133   2.364   1.356   3.199
    2OCB    O28  134   1.282  -0.173   2.803
    2OCB    O29  135   2.578  -0.129   2.930
    2OCB    O30  136   2.504   1.207   3.223
    2OCB    O31  137   1.171   1.284   2.648
    2OCB    O32  138   1.095   0.546   3.604
    2OCB    C91  139   1.424   0.184   2.538
    2OCB    C92  140   1.475  -0.070   2.632
    2OCB    C93  141   1.552   0.128   2.518
    2OCB    C94  142   1.324   0.119   2.612
    2OCB    C95  143   1.355  -0.011   2.655
    2OCB    C96  144   1.573  -0.002   2.571
    2OCB    C97  145   1.670   0.203   2.449
    2OCB    C98  146   1.669   0.888   2.501
    2OCB    C99  147   2.171   0.983   2.698
    2OCB      C  148   2.188   0.289   2.611
    2OCB     H1  149   1.523   0.660   3.387
    2OCB     H2  150   1.444   0.869   2.955
    2OCB     H3  151   1.252   0.516   3.184
    2OCB     H4  152   1.506   0.567   2.935
    2OCB     H5  153   1.529   0.367   3.372
    2OCB     H6  154   1.477   0.216   2.902
    2OCB     H7  155   1.734   0.060   3.284
    2OCB     H8  156   1.804   0.234   2.979
    2OCB     H9  157   1.650   1.003   3.349
    2OCB    H10  158   2.101   0.251   3.093
    2OCB    H11  159   2.064   0.907   3.149
    2OCB    H12  160   2.055   0.583   3.093
    2OCB    H13  161   1.778   0.674   3.477
    2OCB    H14  162   1.790   0.383   3.450
    2OCB    H15  163   2.124   0.558   3.444
    2OCB    H16  164   1.765   0.873   3.028
    2OCB    H17  165   1.659   0.236   3.513
    2OCB    H18  166   1.554   0.098   3.473
    2OCB    H19  167   1.847   0.096   3.550
    2OCB    H20  168   1.714   0.022   3.634
    2OCB    H21  169   1.259   0.608   3.405
    2OCB    H22  170   1.365   0.477   3.453
    2OCB    H23  171   1.077   0.455   3.344
    2OCB    H24  172   1.184   0.314   3.388
    2OCB    H25  173   1.593   0.785   3.547
    2OCB    H26  174   1.670   0.939   3.590
    2OCB    H27  175   1.455   1.044   3.485
    2OCB    H28  176   1.393   0.897   3.443
    2OCB    H29  177   1.873   0.520   3.606
    2OCB    H30  178   2.020   0.432   3.639
    2OCB    H31  179   2.155   0.643   3.662
    2OCB    H32  180   2.006   0.735   3.664
    2OCB    H33  181   1.397   0.528   2.370
    2OCB    H34  182   1.390   0.332   2.740
    2OCB    H35  183   1.418   0.764   2.730
    2OCB    H36  184   1.909   1.218   2.604
    2OCB    H37  185   1.979   1.102   3.005
    2OCB    H38  186   1.596   1.038   2.840
    2OCB    H39  187   2.460   0.664   2.703
    2OCB    H40  188   2.242   0.393   2.966
    2OCB    H41  189   2.264   0.803   3.059
    2OCB    H42  190   1.954  -0.067   2.528
    2OCB    H43  191   2.066   0.063   2.919
    2OCB    H44  192   1.650   0.040   2.817
    2OCB    H45  193   2.198   1.337   3.000
    2OCB    H46  194   2.489   1.012   3.034
    2OCB    H47  195   1.434   1.247   2.668
    2OCB    H48  196   1.209   0.917   2.499
    2OCB    H49  197   2.351  -0.109   2.817
    2OCB    H50  198   2.552   0.262   2.894
    2OCB    H51  199   1.491  -0.172   2.667
    2OCB    H52  200   1.227   0.164   2.631
    2OCB    H53  201   1.739   0.244   2.523
    2OCB    H54  202   1.719   0.148   2.368
    2OCB    H55  203   1.632   0.295   2.403
    2OCB    H56  204   1.756   0.929   2.554
    2OCB    H57  205   1.666   0.781   2.520
    2OCB    H58  206   1.689   0.914   2.397
    2OCB    H59  207   2.074   0.933   2.707
    2OCB    H60  208   2.158   1.046   2.610
    2OCB    H61  209   2.236   0.900   2.669
    2OCB    H62  210   2.230   0.385   2.580
    2OCB    H63  211   2.161   0.233   2.521
    2OCB    H64  212   2.103   0.310   2.676
    3Na+    Na+  213   2.958   3.288   1.990
    4Na+    Na+  214   0.034   0.027   0.684
    5Na+    Na+  215   3.474   2.767   1.448
    6Na+    Na+  216   0.935   1.306   2.604
    7Na+    Na+  217   0.902   0.187   4.007
    8Na+    Na+  218   0.866   1.807   3.785
    9Na+    Na+  219   2.471   2.316   0.874
   10Na+    Na+  220   3.644   0.346   2.709
   11Na+    Na+  221   1.461   2.613   1.654
   12HOH      O  222   0.645   2.965   0.869
   12HOH     H1  223   0.642   2.975   0.773
   12HOH     H2  224   0.620   3.051   0.902
   13HOH      O  225   2.436   2.423   3.447
   13HOH     H1  226   2.455   2.336   3.482
   13HOH     H2  227   2.507   2.478   3.478
   14HOH      O  228   3.577   3.623   3.966
   14HOH     H1  229   3.509   3.681   3.931
   14HOH     H2  230   3.653   3.680   3.978
   15HOH      O  231   0.417   0.630   3.240
   15HOH     H1  232   0.389   0.665   3.155
   15HOH     H2  233   0.507   0.600   3.225
   16HOH      O  234   0.625   3.420   1.837
   16HOH     H1  235   0.575   3.340   1.850
   16HOH     H2  236   0.699   3.412   1.898
   17HOH      O  237   0.790   4.028   3.919
   17HOH     H1  238   0.725   4.075   3.867
   17HOH     H2  239   0.769   3.936   3.906
   18HOH      O  240   3.112   3.463   2.859
   18HOH     H1  241   3.068   3.546   2.840
   18HOH     H2  242   3.073   3.400   2.799
   19HOH      O  243   3.477   0.440   1.135
   19HOH     H1  244   3.447   0.530   1.119
   19HOH     H2  245   3.571   0.448   1.148
   20HOH      O  246   3.013   2.467   0.296
   20HOH     H1  247   3.058   2.507   0.222
   20HOH     H2  248   2.970   2.389   0.260
   21HOH      O  249   2.968   2.437   1.590
   21HOH     H1  250   2.958   2.419   1.683
   21HOH     H2  251   2.961   2.532   1.583
   22HOH      O  252   3.727   1.859   3.554
   22HOH     H1  253   3.786   1.923   3.593
   22HOH     H2  254   3.659   1.845   3.621
   23HOH      O  255   1.447   2.226   2.817
   23HOH     H1  256   1.407   2.189   2.738
   23HOH     H2  257   1.503   2.297   2.784
   24HOH      O  258   3.432   2.737   3.849
   24HOH     H1  259   3.400   2.788   3.923
   24HOH     H2  260   3.362   2.743   3.784
   25HOH      O  261   3.195   3.677   0.076
   25HOH     H1  262   3.225   3.708   0.161
   25HOH     H2  263   3.251   3.722   0.013
   26HOH      O  264   0.635   3.254   3.466
   26HOH     H1  265   0.675   3.167   3.467
   26HOH     H2  266   0.636   3.279   3.373
   27HOH      O  267   1.594   1.643   1.767
   27HOH     H1  268   1.688   1.629   1.761
   27HOH     H2  269   1.569   1.673   1.679
   28HOH      O  270   1.649   3.162   2.587
   28HOH     H1  271   1.635   3.198   2.675
   28HOH     H2  272   1.667   3.070   2.602
   29HOH      O  273   2.107   2.989   1.741
   29HOH     H1  274   2.088   3.018   1.652
   29HOH     H2  275   2.021   2.981   1.783
   30HOH      O  276   1.961   1.273   3.846
   30HOH     H1  277   1.918   1.222   3.777
   30HOH     H2  278   2.053   1.246   3.841
   31HOH      O  279   0.164   1.702   1.900
   31HOH     H1  280   0.179   1.717   1.993
   31HOH     H2  281   0.244   1.659   1.869
   32HOH      O  282   2.213   3.208   2.253
   32HOH     H1  283   2.208   3.149   2.178
   32HOH     H2  284   2.122   3.220   2.280
   33HOH      O  285   0.903   3.639   3.971
   33HOH     H1  286   0.971   3.603   3.914
   33HOH     H2  287   0.847   3.691   3.912
   34HOH      O  288   0.454  -0.027   4.026
   34HOH     H1  289   0.400   0.044   4.062
   34HOH     H2  290   0.467  -0.002   3.935
   35HOH      O  291   3.947   1.057   2.262
   35HOH     H1  292   3.950   1.038   2.169
   35HOH     H2  293   4.027   1.109   2.279
   36HOH      O  294   0.303   1.956   2.374
   36HOH     H1  295   0.216   1.974   2.410
   36HOH     H2  296   0.320   2.030   2.316
   37HOH      O  297   3.295   2.481   3.184
   37HOH     H1  298   3.233   2.553   3.173
   37HOH     H2  299   3.325   2.489   3.274
   38HOH      O  300   1.072   1.660   3.765
   38HOH     H1  301   1.091   1.581   3.715
   38HOH     H2  302   1.158   1.695   3.789
   39HOH      O  303   0.376   0.491   1.971
   39HOH     H1  304   0.384   0.409   1.922
   39HOH     H2  305   0.292   0.483   2.017
   40HOH      O  306   2.456   0.783   0.593
   40HOH     H1  307   2.395   0.848   0.629
   40HOH     H2  308   2.399   0.720   0.548
   41HOH      O  309   3.921   3.779   2.344
   41HOH     H1  310   3.983   3.716   2.382
   41HOH     H2  311   3.972   3.830   2.282
   42HOH      O  312   2.576   3.222   0.692
   42HOH     H1  313   2.570   3.151   0.756
   42HOH     H2  314   2.487   3.231   0.658
   43HOH      O  315   2.493   1.062   1.294
   43HOH     H1  316   2.478   1.035   1.384
   43HOH     H2  317   2.418   1.027   1.246
   44HOH      O  318   2.051   3.246   0.113
   44HOH     H1  319   2.029   3.221   0.023
   44HOH     H2  320   2.147   3.243   0.116
   45HOH      O  321   2.134   3.885   3.822
   45HOH     H1  322   2.227   3.865   3.807
   45HOH     H2  323   2.088   3.836   3.754
   46HOH      O  324   0.561   2.429   0.314
   46HOH     H1  325   0.489   2.455   0.257
   46HOH     H2  326   0.604   2.357   0.267
   47HOH      O  327   3.072   2.583   1.213
   47HOH     H1  328   3.020   2.636   1.153
   47HOH     H2  329   3.131   2.534   1.156
   48HOH      O  330   3.488   0.058   1.128
   48HOH     H1  331   3.549   0.088   1.195
   48HOH     H2  332   3.403   0.052   1.172
   49HOH      O  333   2.625   1.803   1.290
   49HOH     H1  334   2.592   1.740   1.354
   49HOH     H2  335   2.630   1.886   1.339
   50HOH      O  336   3.686   0.383   0.464
   50HOH     H1  337   3.627   0.454   0.437
   50HOH     H2  338   3.763   0.428   0.499
   51HOH      O  339   1.166   1.340   1.043
   51HOH     H1  340   1.102   1.272   1.025
   51HOH     H2  341   1.247   1.309   1.000
   52HOH      O  342   1.718   0.386   1.218
   52HOH     H1  343   1.795   0.372   1.274
   52HOH     H2  344   1.644   0.360   1.273
   53HOH      O  345   1.035   4.040   2.062
   53HOH     H1  346   1.017   3.950   2.089
   53HOH     H2  347   1.057   4.086   2.143
   54HOH      O  348   1.165   0.659   1.580
   54HOH     H1  349   1.193   0.596   1.513
   54HOH     H2  350   1.167   0.744   1.535
   55HOH      O  351   1.594   0.985   0.419
   55HOH     H1  352   1.648   1.005   0.496
   55HOH     H2  353   1.652   0.938   0.360
   56HOH      O  354   2.410   3.504   0.574
   56HOH     H1  355   2.476   3.473   0.636
   56HOH     H2  356   2.366   3.576   0.620
   57HOH      O  357   0.641   2.331   1.834
   57HOH     H1  358   0.676   2.392   1.770
   57HOH     H2  359   0.586   2.271   1.783
   58HOH      O  360   0.931   1.906   0.794
   58HOH     H1  361   0.993   1.944   0.856
   58HOH     H2  362   0.976   1.827   0.761
   59HOH      O  363   0.297   0.460   0.239
   59HOH     H1  364   0.358   0.512   0.291
   59HOH     H2  365   0.327   0.369   0.250
   60HOH      O  366   3.060   2.197   0.391
   60HOH     H1  367   2.990   2.199   0.326
   60HOH     H2  368   3.024   2.146   0.463
   61HOH      O  369   0.712   2.379   3.159
   61HOH     H1  370   0.790   2.434   3.170
   61HOH     H2  371   0.689   2.351   3.247
   62HOH      O  372   2.537   0.845   1.606
   62HOH     H1  373   2.506   0.781   1.542
   62HOH     H2  374   2.468   0.912   1.607
   63HOH      O  375   3.266   2.140   3.106
   63HOH     H1  376   3.258   2.229   3.072
   63HOH     H2  377   3.356   2.115   3.088
   64HOH      O  378   1.218   3.572   0.346
   64HOH     H1  379   1.148   3.529   0.296
   64HOH     H2  380   1.295   3.516   0.332
   65HOH      O  381   3.318   3.203   3.301
   65HOH     H1  382   3.240   3.180   3.251
   65HOH     H2  383   3.321   3.299   3.297
   66HOH      O  384   3.096   2.503   3.421
   66HOH     H1  385   3.110   2.438   3.352
   66HOH     H2  386   3.003   2.495   3.443
   67HOH      O  387   0.480   3.003   2.088
   67HOH     H1  388   0.468   2.913   2.058
   67HOH     H2  389   0.550   2.997   2.153
   68HOH      O  390   4.051   3.375   0.129
   68HOH     H1  391   4.044   3.392   0.223
   68HOH     H2  392   3.974   3.323   0.109
   69HOH      O  393   1.683   3.526   0.188
   69HOH     H1  394   1.645   3.579   0.118
   69HOH     H2  395   1.608   3.487   0.232
   70HOH      O  396   1.653   0.322   0.836
   70HOH     H1  397   1.595   0.284   0.902
   70HOH     H2  398   1.675   0.248   0.778
   71HOH      O  399   3.596   0.029   3.459
   71HOH     H1  400   3.547  -0.054   3.458
   71HOH     H2  401   3.530   0.095   3.481
   72HOH      O  402   3.316  -0.017   2.908
   72HOH     H1  403   3.223   0.007   2.899
   72HOH     H2  404   3.342   0.020   2.992
   73HOH      O  405   0.971   2.496   3.054
   73HOH     H1  406   1.033   2.508   3.126
   73HOH     H2  407   1.026   2.487   2.976
   74HOH      O  408   3.785   1.395   2.984
   74HOH     H1  409   3.738   1.413   3.066
   74HOH     H2  410   3.730   1.332   2.939
   75HOH      O  411   0.190   2.344   1.977
   75HOH     H1  412   0.146   2.402   2.039
   75HOH     H2  413   0.168   2.380   1.891
   76HOH      O  414   2.373   2.969   0.762
   76HOH     H1  415   2.366   2.946   0.670
   76HOH     H2  416   2.467   2.969   0.779
   77HOH      O  417   2.028   0.166   1.291
   77HOH     H1  418   2.021   0.233   1.360
   77HOH     H2  419   1.939   0.132   1.282
   78HOH      O  420   0.913   3.414   2.019
   78HOH     H1  421   0.941   3.435   2.108
   78HOH     H2  422   0.990   3.373   1.979
   79HOH      O  423   1.162   1.150   1.879
   79HOH     H1  424   1.244   1.144   1.928
   79HOH     H2  425   1.113   1.071   1.904
   80HOH      O  426   3.050   2.378   2.545
   80HOH     H1  427   3.114   2.309   2.560
   80HOH     H2  428   3.001   2.383   2.627
   81HOH      O  429   0.498   2.687   3.178
   81HOH     H1  430   0.431   2.696   3.246
   81HOH     H2  431   0.580   2.703   3.223
   82HOH      O  432   1.361   2.826   1.694
   82HOH     H1  433   1.376   2.880   1.771
   82HOH     H2  434   1.325   2.887   1.629
   83HOH      O  435   1.498   2.801   1.996
   83HOH     H1  436   1.482   2.891   1.971
   83HOH     H2  437   1.510   2.804   2.091
   84HOH      O  438   1.075   0.871   0.198
   84HOH     H1  439   1.156   0.918   0.218
   84HOH     H2  440   1.024   0.932   0.145
   85HOH      O  441   3.155   0.460   1.845
   85HOH     H1  442   3.099   0.390   1.814
   85HOH     H2  443   3.123   0.538   1.800
   86HOH      O  444   0.687   3.037   2.621
   86HOH     H1  445   0.638   2.955   2.607
   86HOH     H2  446   0.621   3.106   2.615
   87HOH      O  447   3.893   0.928   2.531
   87HOH     H1  448   3.895   0.965   2.442
   87HOH     H2  449   3.985   0.927   2.558
   88HOH      O  450   0.532   1.738   0.048
   88HOH     H1  451   0.524   1.659  -0.006
   88HOH     H2  452   0.578   1.800  -0.008
   89HOH      O  453   2.324   3.029   1.567
   89HOH     H1  454   2.271   3.102   1.537
   89HOH     H2  455   2.319   3.034   1.663
   90HOH      O  456   2.602   2.771   2.678
   90HOH     H1  457   2.587   2.735   2.766
   90HOH     H2  458   2.575   2.702   2.618
   91HOH      O  459   2.075   1.495   1.549
   91HOH     H1  460   2.004   1.459   1.495
   91HOH     H2  461   2.139   1.527   1.485
   92HOH      O  462   3.787   2.954   0.471
   92HOH     H1  463   3.761   3.041   0.442
   92HOH     H2  464   3.879   2.963   0.497
   93HOH      O  465   0.272   2.679   1.132
   93HOH     H1  466   0.295   2.760   1.085
   93HOH     H2  467   0.234   2.708   1.215
   94HOH      O  468   0.299   2.423   0.200
   94HOH     H1  469   0.246   2.397   0.275
   94HOH     H2  470   0.322   2.340   0.157
   95HOH      O  471   2.245   2.063   2.441
   95HOH     H1  472   2.339   2.044   2.443
   95HOH     H2  473   2.204   1.983   2.474
   96HOH      O  474   3.100   3.721   1.767
   96HOH     H1  475   3.052   3.792   1.810
   96HOH     H2  476   3.181   3.714   1.817
   97HOH      O  477   3.172   1.339   2.770
   97HOH     H1  478   3.108   1.410   2.784
   97HOH     H2  479   3.134   1.287   2.699
   98HOH      O  480   3.065  -0.009   0.583
   98HOH     H1  481   3.079   0.081   0.553
   98HOH     H2  482   3.152  -0.042   0.603
   99HOH      O  483   0.439   1.023   2.341
   99HOH     H1  484   0.508   0.959   2.324
   99HOH     H2  485   0.478   1.085   2.402
  100HOH      O  486   2.367   1.868   0.812
  100HOH     H1  487   2.278   1.845   0.786
  100HOH     H2  488   2.393   1.798   0.871
  101HOH      O  489   1.547   2.980   1.262
  101HOH     H1  490   1.507   3.023   1.337
  101HOH     H2  491   1.557   2.888   1.290
  102HOH      O  492  -0.015   3.270   3.871
  102HOH     H1  493   0.028   3.226   3.944
  102HOH     H2  494   0.003   3.214   3.795
  103HOH      O  495   2.122   2.885   2.365
  103HOH     H1  496   2.093   2.805   2.408
  103HOH     H2  497   2.211   2.865   2.335
  104HOH      O  498   2.285   3.603   2.744
  104HOH     H1  499   2.313   3.559   2.664
  104HOH     H2  500   2.194   3.627   2.729
  105HOH      O  501   1.301   1.723   1.894
  105HOH     H1  502   1.387   1.682   1.882
  105HOH     H2  503   1.247   1.685   1.825
  106HOH      O  504   0.535   1.058   3.820
  106HOH     H1  505   0.556   1.119   3.891
  106HOH     H2  506   0.599   1.078   3.752
  107HOH      O  507   0.768   2.704   1.422
  107HOH     H1  508   0.835   2.638   1.405
  107HOH     H2  509   0.816   2.780   1.454
  108HOH      O  510   3.360   2.764   3.343
  108HOH     H1  511   3.273   2.800   3.359
  108HOH     H2  512   3.375   2.777   3.249
  109HOH      O  513   2.923   2.018   1.755
  109HOH     H1  514   2.984   1.968   1.809
  109HOH     H2  515   2.946   1.995   1.665
  110HOH      O  516   3.565   0.526   1.494
  110HOH     H1  517   3.547   0.620   1.490
  110HOH     H2  518   3.480   0.484   1.484
  111HOH      O  519   0.940   3.871   1.361
  111HOH     H1  520   0.992   3.813   1.306
  111HOH     H2  521   0.893   3.812   1.421
  112HOH      O  522   1.933   0.567   0.131
  112HOH     H1  523   1.884   0.646   0.154
  112HOH     H2  524   1.933   0.565   0.035
  113HOH      O  525   0.637   1.433   2.975
  113HOH     H1  526   0.594   1.518   2.973
  113HOH     H2  527   0.728   1.453   2.996
  114HOH      O  528   0.723   3.102   3.025
  114HOH     H1  529   0.705   3.188   2.988
  114HOH     H2  530   0.812   3.108   3.059
  115HOH      O  531   2.779   0.520   3.382
  115HOH     H1  532   2.766   0.613   3.364
  115HOH     H2  533   2.780   0.514   3.477
  116HOH      O  534   0.754   3.967   1.990
  116HOH     H1  535   0.751   3.909   1.914
  116HOH     H2  536   0.737   3.909   2.064
  117HOH      O  537   1.552   2.413   1.553
  117HOH     H1  538   1.498   2.338   1.527
  117HOH     H2  539   1.640   2.389   1.525
  118HOH      O  540   1.108   1.442   3.610
  118HOH     H1  541   1.084   1.506   3.544
  118HOH     H2  542   1.135   1.364   3.561
  119HOH      O  543   0.176   3.471   2.018
  119HOH     H1  544   0.228   3.548   2.040
  119HOH     H2  545   0.199   3.453   1.927
  120HOH      O  546   3.784   3.378   3.333
  120HOH     H1  547   3.833   3.326   3.396
  120HOH     H2  548   3.835   3.372   3.252
  121HOH      O  549   1.911   2.287   2.998
  121HOH     H1  550   1.994   2.291   2.950
  121HOH     H2  551   1.865   2.212   2.960
  122HOH      O  552   2.623   3.034   2.575
  122HOH     H1  553   2.547   3.054   2.629
  122HOH     H2  554   2.641   2.942   2.592
  123HOH      O  555   3.086   2.924   2.928
  123HOH     H1  556   3.153   2.950   2.866
  123HOH     H2  557   3.006   2.919   2.877
  124HOH      O  558   1.392   1.903   1.187
  124HOH     H1  559   1.435   1.823   1.219
  124HOH     H2  560   1.464   1.965   1.174
  125HOH      O  561   1.335   2.706   2.269
  125HOH     H1  562   1.262   2.706   2.330
  125HOH     H2  563   1.410   2.678   2.321
  126HOH      O  564   2.539   2.407   3.933
  126HOH     H1  565   2.562   2.413   4.026
  126HOH     H2  566   2.487   2.327   3.926
  127HOH      O  567   3.671   3.108   2.354
  127HOH     H1  568   3.704   3.197   2.339
  127HOH     H2  569   3.656   3.073   2.267
  128HOH      O  570   0.559   1.308   1.167
  128HOH     H1  571   0.567   1.380   1.229
  128HOH     H2  572   0.467   1.310   1.140
  129HOH      O  573   2.563   1.642   0.362
  129HOH     H1  574   2.481   1.594   0.352
  129HOH     H2  575   2.626   1.577   0.393
  130HOH      O  576   0.159   2.042   3.182
  130HOH     H1  577   0.247   2.051   3.220
  130HOH     H2  578   0.167   1.970   3.120
  131HOH      O  579   3.397   0.048   0.480
  131HOH     H1  580   3.339   0.121   0.501
  131HOH     H2  581   3.392  -0.009   0.557
  132HOH      O  582   3.749   0.488   0.163
  132HOH     H1  583   3.661   0.455   0.178
  132HOH     H2  584   3.782   0.510   0.250
  133HOH      O  585   0.887   2.859   2.028
  133HOH     H1  586   0.924   2.909   2.100
  133HOH     H2  587   0.963   2.834   1.975
  134HOH      O  588   2.182   3.831   3.037
  134HOH     H1  589   2.217   3.911   3.076
  134HOH     H2  590   2.250   3.765   3.053
  135HOH      O  591   2.443   2.350   2.146
  135HOH     H1  592   2.439   2.376   2.238
  135HOH     H2  593   2.472   2.429   2.100
  136HOH      O  594   1.235   3.297   1.279
  136HOH     H1  595   1.164   3.280   1.340
  136HOH     H2  596   1.206   3.256   1.197
  137HOH      O  597   1.495   2.541   0.809
  137HOH     H1  598   1.521   2.626   0.845
  137HOH     H2  599   1.426   2.510   0.867
  138HOH      O  600   2.211   2.632   1.979
  138HOH     H1  601   2.190   2.614   1.887
  138HOH     H2  602   2.158   2.570   2.028
  139HOH      O  603   3.845   3.389   2.978
  139HOH     H1  604   3.790   3.345   2.913
  139HOH     H2  605   3.803   3.475   2.990
  140HOH      O  606   2.743   3.166   0.226
  140HOH     H1  607   2.768   3.182   0.135
  140HOH     H2  608   2.763   3.249   0.271
  141HOH      O  609   0.008   3.910   1.811
  141HOH     H1  610   0.072   3.977   1.834
  141HOH     H2  611  -0.055   3.910   1.883
  142HOH      O  612   3.489   3.056   0.387
  142HOH     H1  613   3.458   2.971   0.419
  142HOH     H2  614   3.461   3.059   0.296
  143HOH      O  615   3.519   1.844   2.119
  143HOH     H1  616   3.606   1.882   2.132
  143HOH     H2  617   3.515   1.770   2.179
  144HOH      O  618   1.688   0.698   3.845
  144HOH     H1  619   1.720   0.788   3.837
  144HOH     H2  620   1.767   0.645   3.852
  145HOH      O  621   2.589   3.943   1.545
  145HOH     H1  622   2.521   3.903   1.491
  145HOH     H2  623   2.563   4.035   1.550
  146HOH      O  624   0.681   0.770   3.591
  146HOH     H1  625   0.718   0.685   3.565
  146HOH     H2  626   0.750   0.812   3.642
  147HOH      O  627   3.940   0.998   2.893
  147HOH     H1  628   3.994   1.041   2.960
  147HOH     H2  629   3.881   1.067   2.862
  148HOH      O  630   1.773   3.242   1.245
  148HOH     H1  631   1.720   3.167   1.218
  148HOH     H2  632   1.863   3.217   1.222
  149HOH      O  633   0.797   1.202   2.152
  149HOH     H1  634   0.785   1.113   2.119
  149HOH     H2  635   0.747   1.258   2.093
  150HOH      O  636   3.800   2.169   3.492
  150HOH     H1  637   3.853   2.151   3.415
  150HOH     H2  638   3.852   2.136   3.565
  151HOH      O  639   1.626   1.226   2.338
  151HOH     H1  640   1.721   1.215   2.345
  151HOH     H2  641   1.594   1.215   2.427
  152HOH      O  642   0.169   1.451   3.022
  152HOH     H1  643   0.226   1.527   3.022
  152HOH     H2  644   0.105   1.468   2.953
  153HOH      O  645   1.105   2.407   1.911
  153HOH     H1  646   1.078   2.470   1.978
  153HOH     H2  647   1.176   2.357   1.951
  154HOH      O  648   2.475   3.098   3.237
  154HOH     H1  649   2.481   3.045   3.157
  154HOH     H2  650   2.381   3.107   3.253
  155HOH      O  651   3.527   1.689   0.202
  155HOH     H1  652   3.445   1.721   0.239
  155HOH     H2  653   3.570   1.645   0.275
  156HOH      O  654   3.341   1.877   1.858
  156HOH     H1  655   3.429   1.870   1.893
  156HOH     H2  656   3.346   1.835   1.772
  157HOH      O  657   3.985   0.589   2.558
  157HOH     H1  658   4.003   0.512   2.612
  157HOH     H2  659   3.896   0.614   2.582
  158HOH      O  660   0.210   2.979   2.432
  158HOH     H1  661   0.169   2.965   2.517
  158HOH     H2  662   0.272   2.907   2.423
  159HOH      O  663   0.404   0.649   0.090
  159HOH     H1  664   0.366   0.654   0.002
  159HOH     H2  665   0.341   0.598   0.140
  160HOH      O  666   1.435   1.975   3.617
  160HOH     H1  667   1.530   1.963   3.625
  160HOH     H2  668   1.418   2.056   3.664
  161HOH      O  669   0.927   3.068   1.280
  161HOH     H1  670   0.943   3.010   1.206
  161HOH     H2  671   0.902   3.152   1.240
  162HOH      O  672   0.435   2.980   3.363
  162HOH     H1  673   0.530   2.979   3.350
  162HOH     H2  674   0.421   2.935   3.446
  163HOH      O  675   0.406   3.336   0.757
  163HOH     H1  676   0.364   3.422   0.766
  163HOH     H2  677   0.455   3.342   0.675
  164HOH      O  678   0.425   0.949   3.096
  164HOH     H1  679   0.511   0.908   3.096
  164HOH     H2  680   0.442   1.043   3.107
  165HOH      O  681   3.190   0.163   3.373
  165HOH     H1  682   3.193   0.178   3.278
  165HOH     H2  683   3.099   0.181   3.397
  166HOH      O  684   2.593   3.142   1.165
  166HOH     H1  685   2.603   3.152   1.259
  166HOH     H2  686   2.675   3.104   1.135
  167HOH      O  687   3.329   1.165   1.456
  167HOH     H1  688   3.329   1.259   1.475
  167HOH     H2  689   3.420   1.143   1.437
  168HOH      O  690   0.979   2.235   2.801
  168HOH     H1  691   1.004   2.265   2.714
  168HOH     H2  692   1.061   2.229   2.849
  169HOH      O  693   3.508   0.866   2.745
  169HOH     H1  694   3.526   0.959   2.758
  169HOH     H2  695   3.516   0.828   2.832
  170HOH      O  696   3.104   3.052   0.040
  170HOH     H1  697   3.107   2.960   0.017
  170HOH     H2  698   3.165   3.094  -0.020
  171HOH      O  699   2.196   2.688   0.678
  171HOH     H1  700   2.267   2.678   0.615
  171HOH     H2  701   2.173   2.599   0.703
  172HOH      O  702   1.745   0.080   0.074
  172HOH     H1  703   1.789   0.006   0.116
  172HOH     H2  704   1.770   0.155   0.127
  173HOH      O  705   0.035   2.234   0.782
  173HOH     H1  706   0.113   2.227   0.727
  173HOH     H2  707   0.070   2.247   0.870
  174HOH      O  708   3.545   2.525   3.744
  174HOH     H1  709   3.499   2.587   3.800
  174HOH     H2  710   3.552   2.571   3.660
  175HOH      O  711   3.103   3.774   3.033
  175HOH     H1  712   3.168   3.790   2.964
  175HOH     H2  713   3.026   3.824   3.006
  176HOH      O  714   3.474   3.772   1.066
  176HOH     H1  715   3.502   3.855   1.106
  176HOH     H2  716   3.379   3.773   1.073
  177HOH      O  717   3.737   1.259   1.971
  177HOH     H1  718   3.722   1.221   1.884
  177HOH     H2  719   3.810   1.320   1.957
  178HOH      O  720   2.320   1.802   0.528
  178HOH     H1  721   2.411   1.805   0.559
  178HOH     H2  722   2.305   1.709   0.509
  179HOH      O  723   3.738   1.482   0.805
  179HOH     H1  724   3.724   1.413   0.870
  179HOH     H2  725   3.655   1.529   0.802
  180HOH      O  726   0.803   1.392   1.054
  180HOH     H1  727   0.723   1.376   1.105
  180HOH     H2  728   0.842   1.305   1.044
  181HOH      O  729   0.844   0.761   3.982
  181HOH     H1  730   0.883   0.810   4.054
  181HOH     H2  731   0.817   0.828   3.919
  182HOH      O  732   2.190   0.104   0.705
  182HOH     H1  733   2.267   0.057   0.738
  182HOH     H2  734   2.150   0.141   0.784
  183HOH      O  735   0.434   2.989   0.119
  183HOH     H1  736   0.432   3.026   0.207
  183HOH     H2  737   0.360   2.928   0.117
  184HOH      O  738   2.408   3.386   0.893
  184HOH     H1  739   2.489   3.375   0.844
  184HOH     H2  740   2.437   3.411   0.981
  185HOH      O  741   1.113   0.095   3.829
  185HOH     H1  742   1.094   0.100   3.736
  185HOH     H2  743   1.175   0.166   3.845
  186HOH      O  744   2.078   3.689   2.593
  186HOH     H1  745   2.052   3.671   2.503
  186HOH     H2  746   1.999   3.726   2.633
  187HOH      O  747   3.168   2.870   0.459
  187HOH     H1  748   3.183   2.936   0.527
  187HOH     H2  749   3.256   2.842   0.433
  188HOH      O  750   3.544   0.497   2.555
  188HOH     H1  751   3.589   0.578   2.527
  188HOH     H2  752   3.532   0.448   2.474
  189HOH      O  753   2.407   0.802   1.969
  189HOH     H1  754   2.387   0.766   1.883
  189HOH     H2  755   2.448   0.729   2.016
  190HOH      O  756   2.111   0.613   2.633
  190HOH     H1  757   2.125   0.572   2.718
  190HOH     H2  758   2.038   0.564   2.595
  191HOH      O  759   3.109   3.825   1.386
  191HOH     H1  760   3.146   3.743   1.421
  191HOH     H2  761   3.142   3.893   1.445
  192HOH      O  762   1.413   1.993   2.089
  192HOH     H1  763   1.416   1.940   2.169
  192HOH     H2  764   1.476   1.951   2.030
  193HOH      O  765   0.791   3.716   3.556
  193HOH     H1  766   0.854   3.711   3.485
  193HOH     H2  767   0.756   3.805   3.551
  194HOH      O  768   3.803   3.345   0.959
  194HOH     H1  769   3.759   3.429   0.952
  194HOH     H2  770   3.820   3.334   1.053
  195HOH      O  771   2.768   3.250   2.511
  195HOH     H1  772   2.722   3.166   2.506
  195HOH     H2  773   2.791   3.259   2.604
  196HOH      O  774   0.804   3.611   1.194
  196HOH     H1  775   0.841   3.689   1.152
  196HOH     H2  776   0.868   3.587   1.260
  197HOH      O  777   3.834   4.002   0.668
  197HOH     H1  778   3.790   3.941   0.726
  197HOH     H2  779   3.765   4.061   0.637
  198HOH      O  780   2.763   0.435   1.198
  198HOH     H1  781   2.750   0.507   1.136
  198HOH     H2  782   2.715   0.362   1.160
  199HOH      O  783   0.925   1.724   1.734
  199HOH     H1  784   0.909   1.817   1.719
  199HOH     H2  785   0.841   1.682   1.715
  200HOH      O  786   3.191   3.279   2.365
  200HOH     H1  787   3.259   3.345   2.350
  200HOH     H2  788   3.236   3.195   2.354
  201HOH      O  789   1.672   3.297   1.876
  201HOH     H1  790   1.697   3.235   1.945
  201HOH     H2  791   1.611   3.248   1.821
  202HOH      O  792   2.165   2.060   0.026
  202HOH     H1  793   2.105   2.125  -0.010
  202HOH     H2  794   2.109   1.986   0.050
  203HOH      O  795   0.636   3.627   2.836
  203HOH     H1  796   0.611   3.650   2.925
  203HOH     H2  797   0.687   3.701   2.805
  204HOH      O  798   3.208   1.902   3.991
  204HOH     H1  799   3.287   1.876   4.038
  204HOH     H2  800   3.238   1.964   3.925
  205HOH      O  801   2.796   0.678   2.917
  205HOH     H1  802   2.772   0.623   2.992
  205HOH     H2  803   2.739   0.648   2.846
  206HOH      O  804   3.210   3.779   0.363
  206HOH     H1  805   3.118   3.805   0.378
  206HOH     H2  806   3.211   3.685   0.377
  207HOH      O  807   2.424   2.506   2.733
  207HOH     H1  808   2.492   2.441   2.717
  207HOH     H2  809   2.413   2.507   2.828
  208HOH      O  810   2.857   3.445   3.812
  208HOH     H1  811   2.777   3.439   3.760
  208HOH     H2  812   2.921   3.395   3.761
  209HOH      O  813   1.809   1.335   3.303
  209HOH     H1  814   1.817   1.378   3.218
  209HOH     H2  815   1.899   1.322   3.332
  210HOH      O  816   1.363   2.202   2.265
  210HOH     H1  817   1.347   2.146   2.189
  210HOH     H2  818   1.277   2.236   2.288
  211HOH      O  819   0.290   0.329   3.624
  211HOH     H1  820   0.324   0.389   3.690
  211HOH     H2  821   0.205   0.366   3.599
  212HOH      O  822   0.222   1.807   2.775
  212HOH     H1  823   0.148   1.868   2.773
  212HOH     H2  824   0.204   1.746   2.704
  213HOH      O  825   3.934   3.110   2.002
  213HOH     H1  826   4.000   3.126   2.069
  213HOH     H2  827   3.861   3.069   2.050
  214HOH      O  828   3.210   0.983   0.976
  214HOH     H1  829   3.197   0.975   0.881
  214HOH     H2  830   3.172   0.903   1.012
  215HOH      O  831   0.153   0.469   3.879
  215HOH     H1  832   0.061   0.467   3.905
  215HOH     H2  833   0.184   0.379   3.890
  216HOH      O  834   0.876   0.583   3.762
  216HOH     H1  835   0.909   0.672   3.779
  216HOH     H2  836   0.929   0.552   3.689
  217HOH      O  837   0.724   0.655   0.372
  217HOH     H1  838   0.817   0.669   0.393
  217HOH     H2  839   0.697   0.735   0.329
  218HOH      O  840   3.096   0.235   0.421
  218HOH     H1  841   3.143   0.251   0.503
  218HOH     H2  842   3.035   0.309   0.413
  219HOH      O  843   1.446   0.014   0.706
  219HOH     H1  844   1.451  -0.034   0.623
  219HOH     H2  845   1.531   0.058   0.713
  220HOH      O  846   2.678   2.558   1.161
  220HOH     H1  847   2.714   2.497   1.225
  220HOH     H2  848   2.634   2.625   1.214
  221HOH      O  849   2.160   1.909   3.125
  221HOH     H1  850   2.201   1.832   3.084
  221HOH     H2  851   2.067   1.885   3.134
  222HOH      O  852   0.718   1.974   3.798
  222HOH     H1  853   0.702   2.028   3.875
  222HOH     H2  854   0.654   2.003   3.734
  223HOH      O  855   1.405   0.368   2.176
  223HOH     H1  856   1.399   0.288   2.228
  223HOH     H2  857   1.498   0.375   2.153
  224HOH      O  858   2.451   1.997   1.714
  224HOH     H1  859   2.374   1.983   1.769
  224HOH     H2  860   2.522   2.011   1.776
  225HOH      O  861   2.392   2.663   1.481
  225HOH     H1  862   2.365   2.599   1.547
  225HOH     H2  863   2.486   2.650   1.471
  226HOH      O  864   1.525   0.455   1.623
  226HOH     H1  865   1.541   0.535   1.674
  226HOH     H2  866   1.445   0.418   1.660
  227HOH      O  867   3.582   1.031   3.953
  227HOH     H1  868   3.569   0.990   3.867
  227HOH     H2  869   3.676   1.030   3.966
  228HOH      O  870   3.809   1.138   1.226
  228HOH     H1  871   3.814   1.043   1.219
  228HOH     H2  872   3.727   1.155   1.273
  229HOH      O  873   1.055   3.308   1.524
  229HOH     H1  874   1.128   3.259   1.562
  229HOH     H2  875   0.980   3.288   1.580
  230HOH      O  876   2.647   0.387   0.478
  230HOH     H1  877   2.610   0.423   0.559
  230HOH     H2  878   2.632   0.292   0.485
  231HOH      O  879   3.208   0.636   2.581
  231HOH     H1  880   3.281   0.698   2.578
  231HOH     H2  881   3.198   0.605   2.491
  232HOH      O  882   0.805   1.706   3.983
  232HOH     H1  883   0.814   1.723   4.077
  232HOH     H2  884   0.832   1.615   3.972
  233HOH      O  885   3.392   1.204   0.776
  233HOH     H1  886   3.467   1.240   0.729
  233HOH     H2  887   3.430   1.149   0.844
  234HOH      O  888   0.372   0.079   3.591
  234HOH     H1  889   0.366   0.174   3.601
  234HOH     H2  890   0.358   0.064   3.498
  235HOH      O  891   2.797   3.112   2.957
  235HOH     H1  892   2.755   3.147   2.878
  235HOH     H2  893   2.872   3.170   2.971
  236HOH      O  894   2.712   0.053   1.177
  236HOH     H1  895   2.680  -0.032   1.147
  236HOH     H2  896   2.757   0.034   1.259
  237HOH      O  897   2.455   2.783   1.749
  237HOH     H1  898   2.491   2.698   1.723
  237HOH     H2  899   2.396   2.807   1.678
  238HOH      O  900   1.158   1.380   1.744
  238HOH     H1  901   1.162   1.307   1.806
  238HOH     H2  902   1.081   1.431   1.771
  239HOH      O  903   0.460   1.995   1.027
  239HOH     H1  904   0.546   2.018   0.993
  239HOH     H2  905   0.446   1.905   0.999
  240HOH      O  906   2.887   2.814   3.504
  240HOH     H1  907   2.908   2.757   3.578
  240HOH     H2  908   2.815   2.770   3.459
  241HOH      O  909   0.281   2.229   0.653
  241HOH     H1  910   0.341   2.301   0.638
  241HOH     H2  911   0.322   2.177   0.722
  242HOH      O  912   0.539   0.331   3.461
  242HOH     H1  913   0.459   0.347   3.512
  242HOH     H2  914   0.608   0.324   3.527
  243HOH      O  915   2.611   1.614   2.854
  243HOH     H1  916   2.648   1.685   2.907
  243HOH     H2  917   2.537   1.582   2.906
  244HOH      O  918   0.944   0.897   2.646
  244HOH     H1  919   1.006   0.876   2.716
  244HOH     H2  920   0.976   0.979   2.609
  245HOH      O  921   1.279   2.524   2.611
  245HOH     H1  922   1.313   2.614   2.614
  245HOH     H2  923   1.356   2.469   2.627
  246HOH      O  924   3.402   2.438   2.781
  246HOH     H1  925   3.431   2.404   2.866
  246HOH     H2  926   3.480   2.478   2.743
  247HOH      O  927   3.421   1.815   3.331
  247HOH     H1  928   3.391   1.835   3.420
  247HOH     H2  929   3.498   1.869   3.319
  248HOH      O  930   2.570   2.370   0.174
  248HOH     H1  931   2.537   2.376   0.263
  248HOH     H2  932   2.621   2.289   0.172
  249HOH      O  933   3.464   1.345   2.521
  249HOH     H1  934   3.429   1.411   2.462
  249HOH     H2  935   3.424   1.364   2.605
  250HOH      O  936   3.474   2.830   1.217
  250HOH     H1  937   3.397   2.835   1.162
  250HOH     H2  938   3.547   2.818   1.156
  251HOH      O  939   2.221   3.092   2.765
  251HOH     H1  940   2.198   3.001   2.783
  251HOH     H2  941   2.138   3.135   2.744
  252HOH      O  942   0.390   1.344   2.790
  252HOH     H1  943   0.402   1.399   2.713
  252HOH     H2  944   0.450   1.381   2.855
  253HOH      O  945   2.626   3.074   1.474
  253HOH     H1  946   2.657   3.160   1.503
  253HOH     H2  947   2.618   3.023   1.555
  254HOH      O  948   2.314   2.209   2.651
  254HOH     H1  949   2.242   2.246   2.702
  254HOH     H2  950   2.272   2.163   2.579
  255HOH      O  951   0.691   0.384   0.352
  255HOH     H1  952   0.694   0.479   0.345
  255HOH     H2  953   0.696   0.367   0.446
  256HOH      O  954   0.059   0.113   0.445
  256HOH     H1  955   0.012   0.076   0.369
  256HOH     H2  956   0.061   0.207   0.427
  257HOH      O  957   3.003   0.551   0.172
  257HOH     H1  958   2.960   0.485   0.117
  257HOH     H2  959   2.988   0.521   0.262
  258HOH      O  960   0.428   0.087   1.637
  258HOH     H1  961   0.431   0.181   1.620
  258HOH     H2  962   0.519   0.063   1.654
  259HOH      O  963   2.095   2.658   3.523
  259HOH     H1  964   2.145   2.577   3.528
  259HOH     H2  965   2.162   2.727   3.534
  260HOH      O  966   2.202   2.154   2.995
  260HOH     H1  967   2.178   2.066   3.026
  260HOH     H2  968   2.289   2.169   3.033
  261HOH      O  969   3.270   0.058   1.358
  261HOH     H1  970   3.274   0.154   1.351
  261HOH     H2  971   3.347   0.035   1.410
  262HOH      O  972   0.587   1.445   0.685
  262HOH     H1  973   0.585   1.539   0.703
  262HOH     H2  974   0.531   1.406   0.751
  263HOH      O  975   0.025   1.693   3.528
  263HOH     H1  976   0.065   1.760   3.472
  263HOH     H2  977   0.095   1.630   3.542
  264HOH      O  978   1.355   1.728   3.776
  264HOH     H1  979   1.398   1.809   3.802
  264HOH     H2  980   1.424   1.662   3.779
  265HOH      O  981   2.405   3.373   2.059
  265HOH     H1  982   2.378   3.359   2.150
  265HOH     H2  983   2.397   3.286   2.018
  266HOH      O  984   2.884   3.559   1.646
  266HOH     H1  985   2.956   3.617   1.669
  266HOH     H2  986   2.806   3.604   1.679
  267HOH      O  987   3.712   3.991   0.970
  267HOH     H1  988   3.661   4.067   0.998
  267HOH     H2  989   3.768   3.970   1.045
  268HOH      O  990   1.612   1.683   0.823
  268HOH     H1  991   1.702   1.684   0.856
  268HOH     H2  992   1.613   1.745   0.750
  269HOH      O  993   1.013   1.799   3.172
  269HOH     H1  994   1.073   1.779   3.100
  269HOH     H2  995   1.043   1.884   3.206
  270HOH      O  996   2.278   3.799   2.004
  270HOH     H1  997   2.255   3.752   2.085
  270HOH     H2  998   2.366   3.833   2.022
  271HOH      O  999   3.714   3.218   0.388
  271HOH     H1 1000   3.684   3.300   0.349
  271HOH     H2 1001   3.641   3.189   0.442
  272HOH      O 1002   3.925   0.419   3.207
  272HOH     H1 1003   3.860   0.376   3.262
  272HOH     H2 1004   3.969   0.348   3.161
  273HOH      O 1005   3.216   2.621   3.676
  273HOH     H1 1006   3.206   2.538   3.723
  273HOH     H2 1007   3.214   2.598   3.584
  274HOH      O 1008   0.135   0.767   1.959
  274HOH     H1 1009   0.205   0.737   2.018
  274HOH     H2 1010   0.123   0.695   1.898
  275HOH      O 1011   1.863   2.171   2.012
  275HOH     H1 1012   1.867   2.142   1.921
  275HOH     H2 1013   1.917   2.250   2.014
  276HOH      O 1014   2.273   2.467   1.651
  276HOH     H1 1015   2.200   2.524   1.676
  276HOH     H2 1016   2.283   2.408   1.725
  277HOH      O 1017   1.426   0.997   1.020
  277HOH     H1 1018   1.381   0.913   1.009
  277HOH     H2 1019   1.425   1.036   0.932
  278HOH      O 1020   1.077   2.931   3.767
  278HOH     H1 1021   1.091   2.883   3.849
  278HOH     H2 1022   1.047   3.018   3.795
  279HOH      O 1023   2.368   0.324   0.371
  279HOH     H1 1024   2.411   0.239   0.378
  279HOH     H2 1025   2.438   0.385   0.346
  280HOH      O 1026   2.959   1.053   2.786
  280HOH     H1 1027   2.953   0.958   2.775
  280HOH     H2 1028   3.044   1.067   2.827
  281HOH      O 1029   1.561   1.528   2.418
  281HOH     H1 1030   1.589   1.571   2.338
  281HOH     H2 1031   1.489   1.471   2.390
  282HOH      O 1032   3.627   3.536   1.259
  282HOH     H1 1033   3.697   3.580   1.211
  282HOH     H2 1034   3.554   3.531   1.197
  283HOH      O 1035   3.112   0.621   2.831
  283HOH     H1 1036   3.022   0.654   2.834
  283HOH     H2 1037   3.133   0.618   2.738
  284HOH      O 1038   2.118   2.087   1.820
  284HOH     H1 1039   2.130   2.003   1.865
  284HOH     H2 1040   2.192   2.141   1.849
  285HOH      O 1041   1.766   3.051   0.897
  285HOH     H1 1042   1.746   3.080   0.808
  285HOH     H2 1043   1.860   3.036   0.897
  286HOH      O 1044   2.671   1.069   0.662
  286HOH     H1 1045   2.656   1.124   0.585
  286HOH     H2 1046   2.639   0.982   0.636
  287HOH      O 1047   1.641   3.836   3.051
  287HOH     H1 1048   1.711   3.812   3.112
  287HOH     H2 1049   1.653   3.929   3.035
  288HOH      O 1050   1.400   0.994   1.759
  288HOH     H1 1051   1.409   0.930   1.688
  288HOH     H2 1052   1.384   1.077   1.714
  289HOH      O 1053   2.583   1.945   3.913
  289HOH     H1 1054   2.659   1.962   3.969
  289HOH     H2 1055   2.620   1.904   3.834
  290HOH      O 1056   1.075   2.327   2.560
  290HOH     H1 1057   1.128   2.394   2.603
  290HOH     H2 1058   1.102   2.330   2.468
  291HOH      O 1059   3.881   3.194   1.285
  291HOH     H1 1060   3.935   3.123   1.252
  291HOH     H2 1061   3.801   3.190   1.232
  292HOH      O 1062   1.127   1.979   2.719
  292HOH     H1 1063   1.089   1.896   2.689
  292HOH     H2 1064   1.051   2.037   2.729
  293HOH      O 1065   2.821   1.282   2.759
  293HOH     H1 1066   2.741   1.249   2.717
  293HOH     H2 1067   2.880   1.206   2.760
  294HOH      O 1068   0.380   3.771   0.167
  294HOH     H1 1069   0.437   3.696   0.149
  294HOH     H2 1070   0.400   3.834   0.098
  295HOH      O 1071   0.211   3.258   0.443
  295HOH     H1 1072   0.119   3.280   0.427
  295HOH     H2 1073   0.254   3.343   0.454
  296HOH      O 1074   0.539   1.866   3.221
  296HOH     H1 1075   0.625   1.863   3.179
  296HOH     H2 1076   0.490   1.930   3.169
  297HOH      O 1077   1.596   2.349   2.136
  297HOH     H1 1078   1.613   2.280   2.072
  297HOH     H2 1079   1.517   2.320   2.182
  298HOH      O 1080   2.146   1.162   0.267
  298HOH     H1 1081   2.158   1.243   0.316
  298HOH     H2 1082   2.230   1.147   0.223
  299HOH      O 1083   2.982   1.948   1.002
  299HOH     H1 1084   2.987   2.031   1.050
  299HOH     H2 1085   3.068   1.908   1.015
  300HOH      O 1086   0.454   2.196   1.663
  300HOH     H1 1087   0.376   2.234   1.621
  300HOH     H2 1088   0.432   2.104   1.674
  301HOH      O 1089   3.401   1.601   1.258
  301HOH     H1 1090   3.397   1.545   1.180
  301HOH     H2 1091   3.361   1.549   1.327
  302HOH      O 1092   2.773   2.189   2.388
  302HOH     H1 1093   2.716   2.198   2.465
  302HOH     H2 1094   2.854   2.151   2.422
  303HOH      O 1095   0.414   3.536   2.340
  303HOH     H1 1096   0.467   3.567   2.267
  303HOH     H2 1097   0.369   3.459   2.306
  304HOH      O 1098   1.492   0.308   1.360
  304HOH     H1 1099   1.494   0.360   1.440
  304HOH     H2 1100   1.423   0.243   1.375
  305HOH      O 1101   3.728   2.073   3.876
  305HOH     H1 1102   3.664   2.111   3.936
  305HOH     H2 1103   3.730   2.133   3.802
  306HOH      O 1104   2.616   3.802   2.697
  306HOH     H1 1105   2.544   3.831   2.641
  306HOH     H2 1106   2.593   3.832   2.785
  307HOH      O 1107   1.926   3.303   2.228
  307HOH     H1 1108   1.893   3.314   2.317
  307HOH     H2 1109   1.904   3.212   2.205
  308HOH      O 1110   1.085   3.165   0.696
  308HOH     H1 1111   1.002   3.196   0.659
  308HOH     H2 1112   1.152   3.219   0.655
  309HOH      O 1113   0.588   3.212   0.949
  309HOH     H1 1114   0.520   3.250   0.893
  309HOH     H2 1115   0.616   3.284   1.005
  310HOH      O 1116   0.378   0.960   0.070
  310HOH     H1 1117   0.305   0.994   0.018
  310HOH     H2 1118   0.393   0.872   0.035
  311HOH      O 1119   3.770   1.727   2.312
  311HOH     H1 1120   3.761   1.817   2.342
  311HOH     H2 1121   3.690   1.684   2.342
  312HOH      O 1122   0.386   1.409   1.410
  312HOH     H1 1123   0.405   1.493   1.368
  312HOH     H2 1124   0.291   1.400   1.405
  313HOH      O 1125   1.197   0.756   0.573
  313HOH     H1 1126   1.205   0.850   0.557
  313HOH     H2 1127   1.281   0.719   0.544
  314HOH      O 1128   3.464   1.310   2.154
  314HOH     H1 1129   3.463   1.405   2.167
  314HOH     H2 1130   3.554   1.290   2.130
  315HOH      O 1131   1.385   1.203   2.035
  315HOH     H1 1132   1.472   1.165   2.019
  315HOH     H2 1133   1.403   1.293   2.062
  316HOH      O 1134   2.336   3.177   1.870
  316HOH     H1 1135   2.372   3.233   1.802
  316HOH     H2 1136   2.241   3.194   1.867
  317HOH      O 1137   3.874   3.392   0.701
  317HOH     H1 1138   3.793   3.409   0.654
  317HOH     H2 1139   3.847   3.358   0.786
  318HOH      O 1140   1.954   0.005   0.552
  318HOH     H1 1141   2.029   0.044   0.599
  318HOH     H2 1142   1.929   0.071   0.488
  319HOH      O 1143   1.961   0.886   0.928
  319HOH     H1 1144   1.985   0.975   0.902
  319HOH     H2 1145   1.901   0.857   0.859
  320HOH      O 1146   3.340   0.546   3.517
  320HOH     H1 1147   3.388   0.502   3.447
  320HOH     H2 1148   3.254   0.566   3.479
  321HOH      O 1149   1.101   0.183   1.174
  321HOH     H1 1150   1.150   0.223   1.103
  321HOH     H2 1151   1.097   0.090   1.151
  322HOH      O 1152   3.124   1.030   1.835
  322HOH     H1 1153   3.161   1.090   1.900
  322HOH     H2 1154   3.110   1.085   1.758
  323HOH      O 1155   0.927   3.578   1.446
  323HOH     H1 1156   1.017   3.546   1.453
  323HOH     H2 1157   0.875   3.498   1.438
  324HOH      O 1158   3.642   2.556   2.752
  324HOH     H1 1159   3.632   2.544   2.847
  324HOH     H2 1160   3.722   2.508   2.730
  325HOH      O 1161   2.990   0.074   0.129
  325HOH     H1 1162   3.004  -0.020   0.120
  325HOH     H2 1163   3.042   0.099   0.205
  326HOH      O 1164   1.711   3.767   3.754
  326HOH     H1 1165   1.700   3.850   3.799
  326HOH     H2 1166   1.711   3.790   3.661
  327HOH      O 1167   0.541   3.353   0.061
  327HOH     H1 1168   0.454   3.393   0.060
  327HOH     H2 1169   0.558   3.334   0.154
  328HOH      O 1170   1.247   0.615   2.164
  328HOH     H1 1171   1.216   0.616   2.074
  328HOH     H2 1172   1.308   0.542   2.169
  329HOH      O 1173   2.179   1.230   2.271
  329HOH     H1 1174   2.253   1.202   2.326
  329HOH     H2 1175   2.151   1.150   2.227
  330HOH      O 1176   2.415   1.550   2.113
  330HOH     H1 1177   2.446   1.486   2.049
  330HOH     H2 1178   2.494   1.596   2.142
  331HOH      O 1179   3.499   1.675   2.415
  331HOH     H1 1180   3.485   1.724   2.497
  331HOH     H2 1181   3.411   1.651   2.386
  332HOH      O 1182   0.442   1.267   2.157
  332HOH     H1 1183   0.506   1.220   2.105
  332HOH     H2 1184   0.493   1.309   2.227
  333HOH      O 1185   2.204   3.114   3.615
  333HOH     H1 1186   2.219   3.151   3.702
  333HOH     H2 1187   2.202   3.019   3.629
  334HOH      O 1188   0.624   0.548   1.731
  334HOH     H1 1189   0.634   0.495   1.810
  334HOH     H2 1190   0.714   0.563   1.701
  335HOH      O 1191   0.071   3.824   0.644
  335HOH     H1 1192   0.096   3.749   0.590
  335HOH     H2 1193   0.004   3.791   0.704
  336HOH      O 1194   2.279   2.915   2.003
  336HOH     H1 1195   2.251   2.843   1.946
  336HOH     H2 1196   2.242   2.993   1.963
  337HOH      O 1197   3.493   1.845   4.023
  337HOH     H1 1198   3.503   1.769   4.081
  337HOH     H2 1199   3.516   1.812   3.936
  338HOH      O 1200   0.917   1.706   2.031
  338HOH     H1 1201   0.851   1.774   2.045
  338HOH     H2 1202   0.926   1.701   1.935
  339HOH      O 1203   3.626   3.329   2.795
  339HOH     H1 1204   3.614   3.420   2.767
  339HOH     H2 1205   3.545   3.308   2.842
  340HOH      O 1206   0.343   3.054   3.841
  340HOH     H1 1207   0.424   3.093   3.808
  340HOH     H2 1208   0.354   3.051   3.936
  341HOH      O 1209   1.499   1.666   2.673
  341HOH     H1 1210   1.578   1.715   2.696
  341HOH     H2 1211   1.526   1.610   2.600
  342HOH      O 1212   1.478   3.559   3.108
  342HOH     H1 1213   1.550   3.527   3.162
  342HOH     H2 1214   1.520   3.616   3.043
  343HOH      O 1215   1.975   1.686   0.544
  343HOH     H1 1216   1.918   1.746   0.495
  343HOH     H2 1217   1.926   1.604   0.547
  344HOH      O 1218   3.460   3.366   4.014
  344HOH     H1 1219   3.379   3.384   3.966
  344HOH     H2 1220   3.509   3.448   4.010
  345HOH      O 1221   2.150   2.345   2.833
  345HOH     H1 1222   2.166   2.268   2.887
  345HOH     H2 1223   2.188   2.418   2.883
  346HOH      O 1224   2.478   2.116   0.589
  346HOH     H1 1225   2.529   2.042   0.555
  346HOH     H2 1226   2.490   2.111   0.684
  347HOH      O 1227   1.161   1.030   0.578
  347HOH     H1 1228   1.228   1.064   0.519
  347HOH     H2 1229   1.101   1.103   0.593
  348HOH      O 1230   0.637   3.325   3.199
  348HOH     H1 1231   0.578   3.400   3.201
  348HOH     H2 1232   0.647   3.305   3.106
  349HOH      O 1233   2.051   3.041   2.092
  349HOH     H1 1234   2.106   2.963   2.099
  349HOH     H2 1235   1.971   3.017   2.140
  350HOH      O 1236   1.194   3.239   0.065
  350HOH     H1 1237   1.179   3.334   0.075
  350HOH     H2 1238   1.240   3.231  -0.018
  351HOH      O 1239   3.636   1.731   2.993
  351HOH     H1 1240   3.562   1.671   3.002
  351HOH     H2 1241   3.685   1.721   3.075
  352HOH      O 1242   3.364   1.879   2.900
  352HOH     H1 1243   3.319   1.955   2.861
  352HOH     H2 1244   3.456   1.903   2.897
  353HOH      O 1245   2.672   3.703   1.725
  353HOH     H1 1246   2.620   3.781   1.709
  353HOH     H2 1247   2.608   3.635   1.749
  354HOH      O 1248   3.935   1.717   2.077
  354HOH     H1 1249   3.870   1.711   2.146
  354HOH     H2 1250   4.019   1.707   2.121
  355HOH      O 1251   1.632   0.017   1.829
  355HOH     H1 1252   1.710   0.062   1.798
  355HOH     H2 1253   1.565   0.035   1.763
  356HOH      O 1254   1.032   2.067   3.155
  356HOH     H1 1255   0.954   2.066   3.100
  356HOH     H2 1256   1.103   2.090   3.095
  357HOH      O 1257   2.837   1.062   2.116
  357HOH     H1 1258   2.826   1.030   2.205
  357HOH     H2 1259   2.855   0.983   2.064
  358HOH      O 1260   3.341   2.857   0.067
  358HOH     H1 1261   3.347   2.950   0.091
  358HOH     H2 1262   3.405   2.814   0.124
  359HOH      O 1263   2.721   1.429   0.541
  359HOH     H1 1264   2.808   1.434   0.580
  359HOH     H2 1265   2.716   1.339   0.507
  360HOH      O 1266   0.387   2.707   2.093
  360HOH     H1 1267   0.418   2.617   2.088
  360HOH     H2 1268   0.345   2.723   2.009
  361HOH      O 1269   3.535   2.646   3.495
  361HOH     H1 1270   3.586   2.603   3.426
  361HOH     H2 1271   3.464   2.690   3.448
  362HOH      O 1272   0.119   0.220   1.170
  362HOH     H1 1273   0.177   0.278   1.121
  362HOH     H2 1274   0.155   0.219   1.258
  363HOH      O 1275   2.865   3.897   2.965
  363HOH     H1 1276   2.827   3.830   2.908
  363HOH     H2 1277   2.796   3.962   2.975
  364HOH      O 1278   0.728   2.291   0.963
  364HOH     H1 1279   0.699   2.200   0.968
  364HOH     H2 1280   0.822   2.285   0.947
  365HOH      O 1281   1.554   1.746   1.515
  365HOH     H1 1282   1.502   1.700   1.449
  365HOH     H2 1283   1.643   1.748   1.479
  366HOH      O 1284   3.632   1.409   3.926
  366HOH     H1 1285   3.709   1.418   3.983
  366HOH     H2 1286   3.661   1.351   3.856
  367HOH      O 1287   1.176   3.368   3.562
  367HOH     H1 1288   1.155   3.385   3.470
  367HOH     H2 1289   1.271   3.375   3.567
  368HOH      O 1290   3.697   1.250   0.966
  368HOH     H1 1291   3.636   1.178   0.958
  368HOH     H2 1292   3.749   1.229   1.044
  369HOH      O 1293   1.755   2.574   2.141
  369HOH     H1 1294   1.690   2.510   2.112
  369HOH     H2 1295   1.787   2.539   2.224
  370HOH      O 1296   4.037   3.517   3.685
  370HOH     H1 1297   3.978   3.591   3.696
  370HOH     H2 1298   4.000   3.447   3.738
  371HOH      O 1299   3.770   0.737   3.926
  371HOH     H1 1300   3.831   0.679   3.880
  371HOH     H2 1301   3.737   0.795   3.857
  372HOH      O 1302   1.798   3.090   0.543
  372HOH     H1 1303   1.833   3.082   0.454
  372HOH     H2 1304   1.839   3.169   0.578
  373HOH      O 1305   0.724   2.737   3.333
  373HOH     H1 1306   0.710   2.674   3.404
  373HOH     H2 1307   0.818   2.753   3.334
  374HOH      O 1308   3.922   2.552   1.602
  374HOH     H1 1309   3.863   2.538   1.528
  374HOH     H2 1310   3.931   2.647   1.608
  375HOH      O 1311   4.014   1.952   1.066
  375HOH     H1 1312   4.083   1.952   1.000
  375HOH     H2 1313   3.933   1.942   1.017
  376HOH      O 1314   0.446   1.857   0.537
  376HOH     H1 1315   0.396   1.860   0.618
  376HOH     H2 1316   0.422   1.773   0.497
  377HOH      O 1317   3.738   2.329   2.324
  377HOH     H1 1318   3.790   2.374   2.391
  377HOH     H2 1319   3.708   2.400   2.266
  378HOH      O 1320   1.656   1.618   3.417
  378HOH     H1 1321   1.602   1.539   3.421
  378HOH     H2 1322   1.717   1.608   3.490
  379HOH      O 1323   0.371   0.434   0.581
  379HOH     H1 1324   0.379   0.502   0.515
  379HOH     H2 1325   0.283   0.447   0.618
  380HOH      O 1326   3.918   0.098   3.637
  380HOH     H1 1327   3.994   0.080   3.692
  380HOH     H2 1328   3.885   0.011   3.612
  381HOH      O 1329   0.721   3.777   3.814
  381HOH     H1 1330   0.751   3.730   3.737
  381HOH     H2 1331   0.640   3.820   3.786
  382HOH      O 1332   3.738   0.084   1.834
  382HOH     H1 1333   3.662   0.126   1.875
  382HOH     H2 1334   3.807   0.150   1.837
  383HOH      O 1335   0.121   4.048   3.739
  383HOH     H1 1336   0.107   3.955   3.757
  383HOH     H2 1337   0.207   4.052   3.698
  384HOH      O 1338   0.984   3.809   2.880
  384HOH     H1 1339   1.039   3.882   2.851
  384HOH     H2 1340   1.036   3.731   2.861
  385HOH      O 1341   2.496   0.294   1.315
  385HOH     H1 1342   2.572   0.250   1.352
  385HOH     H2 1343   2.506   0.284   1.220
  386HOH      O 1344   0.163   2.189   2.624
  386HOH     H1 1345   0.256   2.173   2.639
  386HOH     H2 1346   0.130   2.106   2.589
  387HOH      O 1347   2.225   1.256   1.606
  387HOH     H1 1348   2.162   1.327   1.609
  387HOH     H2 1349   2.285   1.273   1.679
  388HOH      O 1350   3.217   2.319   0.613
  388HOH     H1 1351   3.237   2.405   0.577
  388HOH     H2 1352   3.161   2.278   0.548
  389HOH      O 1353   1.549   1.595   0.371
  389HOH     H1 1354   1.517   1.515   0.329
  389HOH     H2 1355   1.477   1.621   0.430
  390HOH      O 1356   1.876   0.656   0.750
  390HOH     H1 1357   1.909   0.591   0.687
  390HOH     H2 1358   1.845   0.604   0.824
  391HOH      O 1359   2.394   2.999   4.005
  391HOH     H1 1360   2.474   3.021   3.959
  391HOH     H2 1361   2.373   3.078   4.055
  392HOH      O 1362   1.560   3.092   1.701
  392HOH     H1 1363   1.502   3.115   1.629
  392HOH     H2 1364   1.634   3.048   1.658
  393HOH      O 1365   3.645   1.335   0.238
  393HOH     H1 1366   3.554   1.333   0.208
  393HOH     H2 1367   3.656   1.253   0.286
  394HOH      O 1368   0.853   0.628   2.183
  394HOH     H1 1369   0.827   0.655   2.095
  394HOH     H2 1370   0.876   0.535   2.173
  395HOH      O 1371   0.995   3.044   3.081
  395HOH     H1 1372   1.030   2.970   3.131
  395HOH     H2 1373   1.065   3.109   3.082
  396HOH      O 1374   2.634   3.825   3.202
  396HOH     H1 1375   2.673   3.748   3.163
  396HOH     H2 1376   2.613   3.882   3.128
  397HOH      O 1377   4.034   3.405   1.283
  397HOH     H1 1378   3.998   3.317   1.293
  397HOH     H2 1379   3.960   3.463   1.303
  398HOH      O 1380   3.819   0.285   1.036
  398HOH     H1 1381   3.784   0.265   0.949
  398HOH     H2 1382   3.914   0.286   1.024
  399HOH      O 1383   0.162   2.219   0.386
  399HOH     H1 1384   0.074   2.247   0.410
  399HOH     H2 1385   0.207   2.206   0.470
  400HOH      O 1386   3.749   2.105   2.159
  400HOH     H1 1387   3.747   2.191   2.201
  400HOH     H2 1388   3.680   2.108   2.094
  401HOH      O 1389   3.985   0.121   1.418
  401HOH     H1 1390   3.992   0.211   1.449
  401HOH     H2 1391   4.073   0.084   1.431
  402HOH      O 1392   0.389   1.179   0.398
  402HOH     H1 1393   0.307   1.199   0.444
  402HOH     H2 1394   0.451   1.158   0.468
  403HOH      O 1395   2.888   0.872   1.917
  403HOH     H1 1396   2.835   0.805   1.874
  403HOH     H2 1397   2.914   0.932   1.847
  404HOH      O 1398   2.139   1.515   2.317
  404HOH     H1 1399   2.139   1.423   2.291
  404HOH     H2 1400   2.231   1.541   2.313
  405HOH      O 1401   3.867   3.871   0.413
  405HOH     H1 1402   3.820   3.931   0.471
  405HOH     H2 1403   3.834   3.785   0.436
  406HOH      O 1404   0.818   0.049   2.468
  406HOH     H1 1405   0.846   0.135   2.501
  406HOH     H2 1406   0.900   0.005   2.446
  407HOH      O 1407   1.809   3.939   1.013
  407HOH     H1 1408   1.773   3.982   1.090
  407HOH     H2 1409   1.887   3.894   1.044
  408HOH      O 1410   1.003   1.562   0.552
  408HOH     H1 1411   0.909   1.559   0.538
  408HOH     H2 1412   1.040   1.587   0.468
  409HOH      O 1413   1.508   0.763   2.172
  409HOH     H1 1414   1.436   0.734   2.229
  409HOH     H2 1415   1.464   0.804   2.097
  410HOH      O 1416   0.118   2.001   4.028
  410HOH     H1 1417   0.125   1.980   3.935
  410HOH     H2 1418   0.040   2.055   4.035
  411HOH      O 1419   1.687   3.480   2.203
  411HOH     H1 1420   1.773   3.436   2.200
  411HOH     H2 1421   1.659   3.470   2.293
  412HOH      O 1422   1.808   1.928   2.440
  412HOH     H1 1423   1.782   2.018   2.459
  412HOH     H2 1424   1.821   1.927   2.345
  413HOH      O 1425   1.676   3.474   3.688
  413HOH     H1 1426   1.696   3.495   3.596
  413HOH     H2 1427   1.714   3.547   3.737
  414HOH      O 1428   1.766   2.034   1.514
  414HOH     H1 1429   1.693   2.059   1.457
  414HOH     H2 1430   1.805   1.958   1.471
  415HOH      O 1431   0.887   1.604   0.912
  415HOH     H1 1432   0.850   1.517   0.896
  415HOH     H2 1433   0.970   1.604   0.863
  416HOH      O 1434   2.904   2.284   1.847
  416HOH     H1 1435   2.914   2.205   1.794
  416HOH     H2 1436   2.874   2.252   1.932
  417HOH      O 1437   0.633   0.231   2.669
  417HOH     H1 1438   0.716   0.261   2.706
  417HOH     H2 1439   0.614   0.293   2.599
  418HOH      O 1440   1.837   0.794   1.784
  418HOH     H1 1441   1.921   0.752   1.802
  418HOH     H2 1442   1.823   0.854   1.856
  419HOH      O 1443   0.593   3.704   2.469
  419HOH     H1 1444   0.573   3.780   2.414
  419HOH     H2 1445   0.560   3.629   2.419
  420HOH      O 1446   1.951   3.510   0.098
  420HOH     H1 1447   1.870   3.487   0.144
  420HOH     H2 1448   2.005   3.431   0.105
  421HOH      O 1449   3.501   2.677   0.171
  421HOH     H1 1450   3.485   2.585   0.149
  421HOH     H2 1451   3.596   2.686   0.163
  422HOH      O 1452   2.853   3.066   3.611
  422HOH     H1 1453   2.838   2.983   3.656
  422HOH     H2 1454   2.861   3.043   3.519
  423HOH      O 1455   0.847   2.537   1.780
  423HOH     H1 1456   0.783   2.556   1.848
  423HOH     H2 1457   0.902   2.468   1.817
  424HOH      O 1458   3.205   0.876   3.804
  424HOH     H1 1459   3.242   0.929   3.875
  424HOH     H2 1460   3.113   0.901   3.801
  425HOH      O 1461   0.457   2.450   2.025
  425HOH     H1 1462   0.523   2.422   1.962
  425HOH     H2 1463   0.374   2.433   1.982
  426HOH      O 1464   3.104   0.138   3.699
  426HOH     H1 1465   3.022   0.181   3.673
  426HOH     H2 1466   3.157   0.208   3.735
  427HOH      O 1467   1.274   1.656   2.509
  427HOH     H1 1468   1.347   1.653   2.571
  427HOH     H2 1469   1.277   1.572   2.464
  428HOH      O 1470   3.208   1.962   2.589
  428HOH     H1 1471   3.192   2.027   2.658
  428HOH     H2 1472   3.289   1.992   2.548
  429HOH      O 1473   3.652   1.517   3.206
  429HOH     H1 1474   3.604   1.435   3.220
  429HOH     H2 1475   3.655   1.558   3.293
  430HOH      O 1476   0.786   3.130   1.987
  430HOH     H1 1477   0.827   3.164   2.066
  430HOH     H2 1478   0.794   3.035   1.995
  431HOH      O 1479   0.351   2.260   3.698
  431HOH     H1 1480   0.373   2.324   3.766
  431HOH     H2 1481   0.429   2.205   3.691
  432HOH      O 1482   2.148   2.390   3.506
  432HOH     H1 1483   2.198   2.351   3.578
  432HOH     H2 1484   2.164   2.332   3.432
  433HOH      O 1485   2.728   0.621   2.288
  433HOH     H1 1486   2.707   0.713   2.270
  433HOH     H2 1487   2.663   0.594   2.353
  434HOH      O 1488   2.615   2.503   1.766
  434HOH     H1 1489   2.702   2.510   1.805
  434HOH     H2 1490   2.555   2.519   1.838
  435HOH      O 1491   3.158   2.248   1.421
  435HOH     H1 1492   3.233   2.232   1.477
  435HOH     H2 1493   3.120   2.329   1.454
  436HOH      O 1494   0.955   3.292   2.901
  436HOH     H1 1495   0.916   3.357   2.844
  436HOH     H2 1496   1.029   3.337   2.942
  437HOH      O 1497   0.639   2.755   3.751
  437HOH     H1 1498   0.655   2.740   3.844
  437HOH     H2 1499   0.719   2.799   3.720
  438HOH      O 1500   0.849   1.245   3.358
  438HOH     H1 1501   0.904   1.287   3.292
  438HOH     H2 1502   0.906   1.178   3.396
  439HOH      O 1503   2.204   0.622   1.223
  439HOH     H1 1504   2.122   0.638   1.176
  439HOH     H2 1505   2.180   0.626   1.315
  440HOH      O 1506   3.828   1.918   2.875
  440HOH     H1 1507   3.757   1.887   2.931
  440HOH     H2 1508   3.862   1.838   2.834
  441HOH      O 1509   0.047   1.805   0.649
  441HOH     H1 1510   0.057   1.784   0.556
  441HOH     H2 1511  -0.028   1.865   0.653
  442HOH      O 1512   3.902   1.528   0.585
  442HOH     H1 1513   3.861   1.520   0.671
  442HOH     H2 1514   3.996   1.521   0.602
  443HOH      O 1515   2.587   1.151   2.712
  443HOH     H1 1516   2.564   1.106   2.793
  443HOH     H2 1517   2.556   1.092   2.643
  444HOH      O 1518   0.032   2.967   0.482
  444HOH     H1 1519   0.076   3.043   0.521
  444HOH     H2 1520   0.103   2.906   0.461
  445HOH      O 1521   2.409   1.287   1.886
  445HOH     H1 1522   2.494   1.251   1.910
  445HOH     H2 1523   2.346   1.236   1.936
  446HOH      O 1524   0.346   3.315   2.167
  446HOH     H1 1525   0.262   3.322   2.122
  446HOH     H2 1526   0.356   3.222   2.184
  447HOH      O 1527   0.492   3.193   1.256
  447HOH     H1 1528   0.554   3.261   1.233
  447HOH     H2 1529   0.537   3.111   1.235
  448HOH      O 1530   2.781   0.099   1.810
  448HOH     H1 1531   2.827   0.015   1.816
  448HOH     H2 1532   2.762   0.123   1.900
  449HOH      O 1533   3.040   3.016   1.123
  449HOH     H1 1534   3.093   2.942   1.094
  449HOH     H2 1535   2.987   2.981   1.194
  450HOH      O 1536   3.352   2.091   2.149
  450HOH     H1 1537   3.352   2.157   2.080
  450HOH     H2 1538   3.404   2.018   2.113
  451HOH      O 1539   2.429   1.723   3.841
  451HOH     H1 1540   2.477   1.772   3.908
  451HOH     H2 1541   2.497   1.682   3.788
  452HOH      O 1542   1.372   1.042   1.407
  452HOH     H1 1543   1.357   1.131   1.375
  452HOH     H2 1544   1.444   1.009   1.354
  453HOH      O 1545   2.539   0.566   2.489
  453HOH     H1 1546   2.488   0.509   2.431
  453HOH     H2 1547   2.562   0.510   2.563
  454HOH      O 1548   3.597   2.898   3.612
  454HOH     H1 1549   3.521   2.851   3.646
  454HOH     H2 1550   3.620   2.852   3.531
  455HOH      O 1551   2.968   3.473   1.417
  455HOH     H1 1552   2.923   3.517   1.490
  455HOH     H2 1553   3.057   3.508   1.419
  456HOH      O 1554   1.287   2.447   1.654
  456HOH     H1 1555   1.246   2.389   1.590
  456HOH     H2 1556   1.250   2.420   1.738
  457HOH      O 1557   1.578   3.812   2.345
  457HOH     H1 1558   1.609   3.860   2.421
  457HOH     H2 1559   1.483   3.825   2.345
  458HOH      O 1560   3.737   0.947   1.535
  458HOH     H1 1561   3.768   0.938   1.625
  458HOH     H2 1562   3.769   0.869   1.490
  459HOH      O 1563   2.995   0.303   1.230
  459HOH     H1 1564   2.977   0.273   1.319
  459HOH     H2 1565   2.915   0.348   1.202
  460HOH      O 1566   3.170   1.420   0.564
  460HOH     H1 1567   3.261   1.421   0.537
  460HOH     H2 1568   3.129   1.491   0.515
  461HOH      O 1569   0.611   1.577   1.230
  461HOH     H1 1570   0.577   1.627   1.156
  461HOH     H2 1571   0.699   1.613   1.245
  462HOH      O 1572   0.066   1.953   2.516
  462HOH     H1 1573   0.119   1.876   2.493
  462HOH     H2 1574  -0.006   1.953   2.453
  463HOH      O 1575   2.558   2.894   3.565
  463HOH     H1 1576   2.533   2.985   3.555
  463HOH     H2 1577   2.625   2.894   3.632
  464HOH      O 1578   2.771   0.920   1.234
  464HOH     H1 1579   2.776   1.006   1.193
  464HOH     H2 1580   2.681   0.913   1.265
  465HOH      O 1581   1.890   1.066   0.232
  465HOH     H1 1582   1.981   1.083   0.257
  465HOH     H2 1583   1.869   1.134   0.169
  466HOH      O 1584   1.401   1.387   0.724
  466HOH     H1 1585   1.426   1.355   0.811
  466HOH     H2 1586   1.432   1.319   0.664
  467HOH      O 1587   1.842   2.582   3.638
  467HOH     H1 1588   1.924   2.605   3.594
  467HOH     H2 1589   1.841   2.637   3.717
  468HOH      O 1590   1.823   2.167   0.283
  468HOH     H1 1591   1.803   2.136   0.195
  468HOH     H2 1592   1.739   2.166   0.329
  469HOH      O 1593   1.074   0.078   3.547
  469HOH     H1 1594   1.076   0.169   3.575
  469HOH     H2 1595   1.146   0.070   3.485
  470HOH      O 1596   3.352   3.281   2.888
  470HOH     H1 1597   3.336   3.224   2.962
  470HOH     H2 1598   3.284   3.349   2.894
  471HOH      O 1599   0.585   1.870   3.473
  471HOH     H1 1600   0.679   1.878   3.458
  471HOH     H2 1601   0.547   1.871   3.385
  472HOH      O 1602   2.970   0.790   0.111
  472HOH     H1 1603   2.915   0.754   0.040
  472HOH     H2 1604   3.024   0.715   0.139
  473HOH      O 1605   0.342   1.330   3.975
  473HOH     H1 1606   0.278   1.394   4.006
  473HOH     H2 1607   0.318   1.313   3.884
  474HOH      O 1608   3.562   3.299   1.918
  474HOH     H1 1609   3.624   3.369   1.940
  474HOH     H2 1610   3.603   3.251   1.847
  475HOH      O 1611   0.427   1.310   0.840
  475HOH     H1 1612   0.449   1.261   0.919
  475HOH     H2 1613   0.410   1.242   0.774
  476HOH      O 1614   1.658   2.643   2.851
  476HOH     H1 1615   1.663   2.600   2.936
  476HOH     H2 1616   1.704   2.726   2.862
  477HOH      O 1617   3.674   3.073   2.100
  477HOH     H1 1618   3.619   3.013   2.050
  477HOH     H2 1619   3.637   3.160   2.082
  478HOH      O 1620   2.191   3.621   1.379
  478HOH     H1 1621   2.153   3.708   1.365
  478HOH     H2 1622   2.250   3.632   1.454
  479HOH      O 1623   1.545   2.883   3.617
  479HOH     H1 1624   1.464   2.930   3.635
  479HOH     H2 1625   1.584   2.929   3.543
  480HOH      O 1626   2.830   2.600   2.238
  480HOH     H1 1627   2.901   2.571   2.296
  480HOH     H2 1628   2.770   2.525   2.235
  481HOH      O 1629   3.276   3.142   3.873
  481HOH     H1 1630   3.238   3.117   3.788
  481HOH     H2 1631   3.284   3.237   3.868
  482HOH      O 1632   1.498   3.893   3.274
  482HOH     H1 1633   1.522   3.873   3.184
  482HOH     H2 1634   1.568   3.855   3.327
  483HOH      O 1635   0.788   0.096   0.466
  483HOH     H1 1636   0.706   0.143   0.485
  483HOH     H2 1637   0.857   0.157   0.491
  484HOH      O 1638   1.515   3.891   0.436
  484HOH     H1 1639   1.587   3.955   0.442
  484HOH     H2 1640   1.472   3.911   0.353
  485HOH      O 1641   2.472   0.974   2.507
  485HOH     H1 1642   2.426   1.005   2.429
  485HOH     H2 1643   2.415   0.906   2.543
  486HOH      O 1644   1.734   3.094   3.512
  486HOH     H1 1645   1.817   3.117   3.469
  486HOH     H2 1646   1.759   3.063   3.598
  487HOH      O 1647   2.705   3.318   3.459
  487HOH     H1 1648   2.667   3.230   3.461
  487HOH     H2 1649   2.661   3.365   3.529
  488HOH      O 1650   1.012   3.745   3.366
  488HOH     H1 1651   0.983   3.782   3.282
  488HOH     H2 1652   1.105   3.727   3.352
  489HOH      O 1653   0.170   0.468   0.770
  489HOH     H1 1654   0.153   0.559   0.790
  489HOH     H2 1655   0.218   0.435   0.846
  490HOH      O 1656   1.474   0.109   0.965
  490HOH     H1 1657   1.462   0.062   1.048
  490HOH     H2 1658   1.462   0.041   0.898
  491HOH      O 1659   0.867   0.396   2.697
  491HOH     H1 1660   0.913   0.472   2.660
  491HOH     H2 1661   0.894   0.394   2.789
  492HOH      O 1662   0.202   1.010   1.276
  492HOH     H1 1663   0.219   0.991   1.368
  492HOH     H2 1664   0.107   1.004   1.267
  493HOH      O 1665   1.885   3.236   1.698
  493HOH     H1 1666   1.952   3.247   1.766
  493HOH     H2 1667   1.812   3.290   1.727
  494HOH      O 1668   0.831   3.463   2.708
  494HOH     H1 1669   0.778   3.397   2.664
  494HOH     H2 1670   0.768   3.513   2.760
  495HOH      O 1671   0.523   2.346   0.555
  495HOH     H1 1672   0.522   2.367   0.461
  495HOH     H2 1673   0.537   2.251   0.557
  496HOH      O 1674   1.876   1.694   3.634
  496HOH     H1 1675   1.956   1.671   3.587
  496HOH     H2 1676   1.885   1.788   3.652
  497HOH      O 1677   1.812   2.310   1.559
  497HOH     H1 1678   1.807   2.220   1.527
  497HOH     H2 1679   1.889   2.346   1.514
  498HOH      O 1680   1.949   3.757   0.612
  498HOH     H1 1681   1.922   3.741   0.522
  498HOH     H2 1682   1.950   3.852   0.621
  499HOH      O 1683   0.045   3.408   2.237
  499HOH     H1 1684   0.080   3.402   2.149
  499HOH     H2 1685   0.013   3.497   2.245
  500HOH      O 1686   1.025   3.214   3.757
  500HOH     H1 1687   0.942   3.263   3.748
  500HOH     H2 1688   1.089   3.269   3.712
  501HOH      O 1689   0.404   3.442   3.535
  501HOH     H1 1690   0.464   3.369   3.526
  501HOH     H2 1691   0.426   3.501   3.463
  502HOH      O 1692   0.077   3.588   0.507
  502HOH     H1 1693   0.156   3.558   0.461
  502HOH     H2 1694   0.007   3.533   0.471
  503HOH      O 1695   2.212   1.114   3.804
  503HOH     H1 1696   2.218   1.055   3.729
  503HOH     H2 1697   2.168   1.062   3.872
  504HOH      O 1698   2.416   3.676   2.961
  504HOH     H1 1699   2.468   3.757   2.956
  504HOH     H2 1700   2.373   3.670   2.875
  505HOH      O 1701   1.102   1.688   0.763
  505HOH     H1 1702   1.085   1.657   0.674
  505HOH     H2 1703   1.197   1.688   0.771
  506HOH      O 1704   2.410   3.314   2.820
  506HOH     H1 1705   2.377   3.399   2.789
  506HOH     H2 1706   2.354   3.250   2.777
  507HOH      O 1707   1.330   3.752   0.556
  507HOH     H1 1708   1.396   3.796   0.502
  507HOH     H2 1709   1.281   3.698   0.495
  508HOH      O 1710   0.824   0.930   2.957
  508HOH     H1 1711   0.832   0.886   2.873
  508HOH     H2 1712   0.762   1.001   2.941
  509HOH      O 1713   3.298   2.403   2.295
  509HOH     H1 1714   3.286   2.488   2.336
  509HOH     H2 1715   3.209   2.368   2.286
  510HOH      O 1716   1.906   1.561   0.142
  510HOH     H1 1717   1.826   1.605   0.111
  510HOH     H2 1718   1.927   1.605   0.224
  511HOH      O 1719   1.296   2.369   0.648
  511HOH     H1 1720   1.231   2.384   0.579
  511HOH     H2 1721   1.377   2.407   0.614
  512HOH      O 1722   0.698   1.427   3.515
  512HOH     H1 1723   0.621   1.452   3.463
  512HOH     H2 1724   0.731   1.348   3.472
  513HOH      O 1725   0.215   2.601   2.349
  513HOH     H1 1726   0.160   2.661   2.398
  513HOH     H2 1727   0.221   2.639   2.262
  514HOH      O 1728   2.910   3.238   0.591
  514HOH     H1 1729   2.862   3.285   0.523
  514HOH     H2 1730   2.879   3.147   0.584
  515HOH      O 1731   0.480   0.860   2.809
  515HOH     H1 1732   0.527   0.942   2.825
  515HOH     H2 1733   0.387   0.883   2.818
  516HOH      O 1734   0.220   2.212   2.237
  516HOH     H1 1735   0.142   2.158   2.232
  516HOH     H2 1736   0.228   2.252   2.150
  517HOH      O 1737   3.104   1.258   3.762
  517HOH     H1 1738   3.190   1.234   3.726
  517HOH     H2 1739   3.119   1.344   3.802
  518HOH      O 1740   2.361   1.040   1.540
  518HOH     H1 1741   2.334   1.132   1.545
  518HOH     H2 1742   2.281   0.992   1.520
  519HOH      O 1743   1.847   3.216   2.884
  519HOH     H1 1744   1.853   3.309   2.906
  519HOH     H2 1745   1.908   3.173   2.944
  520HOH      O 1746   1.550   3.618   1.637
  520HOH     H1 1747   1.611   3.678   1.681
  520HOH     H2 1748   1.598   3.589   1.559
  521HOH      O 1749   0.962   2.862   3.392
  521HOH     H1 1750   0.991   2.952   3.404
  521HOH     H2 1751   1.028   2.809   3.437
  522HOH      O 1752   2.237   2.224   0.251
  522HOH     H1 1753   2.215   2.167   0.177
  522HOH     H2 1754   2.152   2.259   0.279
  523HOH      O 1755   2.919   2.455   2.789
  523HOH     H1 1756   2.883   2.498   2.867
  523HOH     H2 1757   2.850   2.466   2.723
  524HOH      O 1758   2.879   2.856   2.768
  524HOH     H1 1759   2.870   2.768   2.803
  524HOH     H2 1760   2.789   2.881   2.742
  525HOH      O 1761   0.168   3.186   3.647
  525HOH     H1 1762   0.176   3.099   3.686
  525HOH     H2 1763   0.251   3.229   3.667
  526HOH      O 1764   3.514   2.094   0.441
  526HOH     H1 1765   3.602   2.107   0.406
  526HOH     H2 1766   3.459   2.154   0.392
  527HOH      O 1767   2.644   0.895   2.299
  527HOH     H1 1768   2.602   0.935   2.223
  527HOH     H2 1769   2.586   0.915   2.372
  528HOH      O 1770   0.618   3.791   1.334
  528HOH     H1 1771   0.525   3.772   1.345
  528HOH     H2 1772   0.663   3.721   1.383
  529HOH      O 1773   1.012   1.500   2.483
  529HOH     H1 1774   0.981   1.492   2.393
  529HOH     H2 1775   1.102   1.530   2.475
  530HOH      O 1776   2.708   0.338   4.000
  530HOH     H1 1777   2.682   0.357   3.909
  530HOH     H2 1778   2.671   0.410   4.051
  531HOH      O 1779   3.538   2.830   2.789
  531HOH     H1 1780   3.560   2.742   2.757
  531HOH     H2 1781   3.619   2.879   2.783
  532HOH      O 1782   3.666   3.677   2.379
  532HOH     H1 1783   3.611   3.712   2.449
  532HOH     H2 1784   3.748   3.726   2.386
  533HOH      O 1785   3.505   3.502   1.641
  533HOH     H1 1786   3.580   3.445   1.622
  533HOH     H2 1787   3.496   3.556   1.563
  534HOH      O 1788   3.290   3.221   1.231
  534HOH     H1 1789   3.242   3.239   1.150
  534HOH     H2 1790   3.286   3.126   1.241
  535HOH      O 1791   2.253   2.970   1.193
  535HOH     H1 1792   2.184   3.028   1.160
  535HOH     H2 1793   2.299   3.022   1.259
  536HOH      O 1794   0.796   1.861   2.745
  536HOH     H1 1795   0.837   1.831   2.827
  536HOH     H2 1796   0.702   1.866   2.766
  537HOH      O 1797   1.816   3.481   2.758
  537HOH     H1 1798   1.777   3.489   2.845
  537HOH     H2 1799   1.890   3.541   2.759
  538HOH      O 1800   3.950   1.491   2.363
  538HOH     H1 1801   3.882   1.424   2.370
  538HOH     H2 1802   3.904   1.569   2.334
  539HOH      O 1803   3.020   1.386   1.802
  539HOH     H1 1804   3.092   1.447   1.785
  539HOH     H2 1805   2.970   1.428   1.872
  540HOH      O 1806   3.324   1.432   1.491
  540HOH     H1 1807   3.288   1.475   1.569
  540HOH     H2 1808   3.418   1.431   1.506
  541HOH      O 1809   0.126   0.671   0.554
  541HOH     H1 1810   0.145   0.706   0.641
  541HOH     H2 1811   0.192   0.710   0.497
  542HOH      O 1812   2.053   2.492   1.431
  542HOH     H1 1813   2.117   2.517   1.364
  542HOH     H2 1814   2.107   2.465   1.505
  543HOH      O 1815   0.637   3.111   0.629
  543HOH     H1 1816   0.717   3.119   0.577
  543HOH     H2 1817   0.605   3.201   0.639
  544HOH      O 1818   3.939   2.028   1.361
  544HOH     H1 1819   4.033   2.008   1.362
  544HOH     H2 1820   3.914   2.018   1.269
  545HOH      O 1821   3.167   3.994   2.516
  545HOH     H1 1822   3.195   4.083   2.538
  545HOH     H2 1823   3.071   3.999   2.513
  546HOH      O 1824   0.195   3.099   1.730
  546HOH     H1 1825   0.161   3.030   1.788
  546HOH     H2 1826   0.220   3.053   1.650
  547HOH      O 1827   1.256   3.646   3.320
  547HOH     H1 1828   1.329   3.675   3.376
  547HOH     H2 1829   1.286   3.664   3.231
  548HOH      O 1830   2.500   1.564   1.478
  548HOH     H1 1831   2.478   1.562   1.571
  548HOH     H2 1832   2.576   1.506   1.471
  549HOH      O 1833   2.978   1.211   3.532
  549HOH     H1 1834   2.888   1.235   3.552
  549HOH     H2 1835   3.027   1.236   3.610
  550HOH      O 1836   2.993   3.839   0.074
  550HOH     H1 1837   3.063   3.778   0.050
  550HOH     H2 1838   2.912   3.795   0.047
  551HOH      O 1839   1.463   0.570   3.956
  551HOH     H1 1840   1.540   0.615   3.922
  551HOH     H2 1841   1.402   0.566   3.882
  552HOH      O 1842   2.782   3.912   2.461
  552HOH     H1 1843   2.727   3.893   2.536
  552HOH     H2 1844   2.828   3.993   2.484
  553HOH      O 1845   0.251   3.213   0.999
  553HOH     H1 1846   0.261   3.190   0.906
  553HOH     H2 1847   0.216   3.303   0.998
  554HOH      O 1848   2.642   3.564   0.733
  554HOH     H1 1849   2.688   3.523   0.806
  554HOH     H2 1850   2.571   3.613   0.774
  555HOH      O 1851   1.583   1.729   3.156
  555HOH     H1 1852   1.549   1.815   3.183
  555HOH     H2 1853   1.621   1.692   3.236
  556HOH      O 1854   2.546   1.811   1.920
  556HOH     H1 1855   2.550   1.732   1.974
  556HOH     H2 1856   2.590   1.787   1.839
  557HOH      O 1857   0.700   1.929   2.425
  557HOH     H1 1858   0.734   2.000   2.480
  557HOH     H2 1859   0.759   1.926   2.350
  558HOH      O 1860   0.443   2.140   2.689
  558HOH     H1 1861   0.477   2.076   2.752
  558HOH     H2 1862   0.517   2.159   2.632
  559HOH      O 1863   3.939   2.624   3.485
  559HOH     H1 1864   3.952   2.587   3.573
  559HOH     H2 1865   3.928   2.718   3.501
  560HOH      O 1866   3.701   3.631   3.086
  560HOH     H1 1867   3.642   3.696   3.049
  560HOH     H2 1868   3.751   3.679   3.152
  561HOH      O 1869   1.105   1.641   2.229
  561HOH     H1 1870   1.105   1.545   2.226
  561HOH     H2 1871   1.057   1.667   2.151
  562HOH      O 1872   3.316   0.459   1.578
  562HOH     H1 1873   3.243   0.521   1.568
  562HOH     H2 1874   3.289   0.382   1.530
  563HOH      O 1875   1.362   0.676   1.204
  563HOH     H1 1876   1.363   0.692   1.110
  563HOH     H2 1877   1.339   0.583   1.212
  564HOH      O 1878   1.582   3.178   2.313
  564HOH     H1 1879   1.600   3.201   2.404
  564HOH     H2 1880   1.519   3.105   2.318
  565HOH      O 1881   2.314   1.849   1.223
  565HOH     H1 1882   2.403   1.853   1.257
  565HOH     H2 1883   2.325   1.831   1.130
  566HOH      O 1884   1.608   2.404   0.123
  566HOH     H1 1885   1.520   2.411   0.162
  566HOH     H2 1886   1.606   2.323   0.074
  567HOH      O 1887   0.582   3.587   0.350
  567HOH     H1 1888   0.614   3.592   0.260
  567HOH     H2 1889   0.622   3.661   0.395
  568HOH      O 1890   3.301   1.021  -0.019
  568HOH     H1 1891   3.316   1.016   0.075
  568HOH     H2 1892   3.388   1.036  -0.056
  569HOH      O 1893   2.667   2.631   0.201
  569HOH     H1 1894   2.643   2.538   0.207
  569HOH     H2 1895   2.604   2.669   0.140
  570HOH      O 1896   1.901   0.109   1.802
  570HOH     H1 1897   1.947   0.178   1.850
  570HOH     H2 1898   1.931   0.028   1.843
  571HOH      O 1899   3.624   0.013   3.854
  571HOH     H1 1900   3.535  -0.000   3.822
  571HOH     H2 1901   3.621   0.098   3.898
  572HOH      O 1902   1.041   1.611   3.379
  572HOH     H1 1903   1.136   1.620   3.385
  572HOH     H2 1904   1.019   1.655   3.296
  573HOH      O 1905   0.639   3.632   0.100
  573HOH     H1 1906   0.681   3.705   0.056
  573HOH     H2 1907   0.655   3.557   0.043
  574HOH      O 1908   1.152   3.188   1.018
  574HOH     H1 1909   1.147   3.154   0.928
  574HOH     H2 1910   1.077   3.247   1.026
  575HOH      O 1911   1.861   1.950   1.206
  575HOH     H1 1912   1.954   1.944   1.227
  575HOH     H2 1913   1.853   1.905   1.122
  576HOH      O 1914   0.607   0.913   0.276
  576HOH     H1 1915   0.638   1.003   0.285
  576HOH     H2 1916   0.525   0.920   0.228
  577HOH      O 1917   2.821   3.480   0.188
  577HOH     H1 1918   2.774   3.538   0.129
  577HOH     H2 1919   2.896   3.449   0.138
  578HOH      O 1920   1.157   2.900   2.857
  578HOH     H1 1921   1.097   2.845   2.907
  578HOH     H2 1922   1.103   2.969   2.820
  579HOH      O 1923   2.447   2.723   0.078
  579HOH     H1 1924   2.424   2.813   0.056
  579HOH     H2 1925   2.380   2.696   0.141
  580HOH      O 1926   3.367   0.379   3.128
  580HOH     H1 1927   3.367   0.411   3.038
  580HOH     H2 1928   3.357   0.458   3.181
  581HOH      O 1929   3.076   3.113   3.156
  581HOH     H1 1930   3.048   3.041   3.099
  581HOH     H2 1931   3.050   3.192   3.108
  582HOH      O 1932   3.832   3.897   1.993
  582HOH     H1 1933   3.810   3.960   1.924
  582HOH     H2 1934   3.747   3.866   2.025
  583HOH      O 1935   3.059   3.624   3.259
  583HOH     H1 1936   3.049   3.669   3.175
  583HOH     H2 1937   2.980   3.571   3.268
  584HOH      O 1938   2.730   1.387   1.384
  584HOH     H1 1939   2.728   1.341   1.468
  584HOH     H2 1940   2.743   1.318   1.319
  585HOH      O 1941   3.504   3.825   2.987
  585HOH     H1 1942   3.429   3.871   2.949
  585HOH     H2 1943   3.574   3.890   2.989
  586HOH      O 1944   0.200   1.977   0.249
  586HOH     H1 1945   0.204   2.072   0.260
  586HOH     H2 1946   0.167   1.965   0.160
  587HOH      O 1947   1.008   1.125   3.056
  587HOH     H1 1948   1.055   1.065   3.115
  587HOH     H2 1949   0.964   1.068   2.994
  588HOH      O 1950   2.539   3.613   2.098
  588HOH     H1 1951   2.623   3.579   2.067
  588HOH     H2 1952   2.477   3.542   2.081
  589HOH      O 1953   1.577   2.817   4.002
  589HOH     H1 1954   1.494   2.861   4.022
  589HOH     H2 1955   1.552   2.741   3.950
  590HOH      O 1956   1.449   1.293   0.987
  590HOH     H1 1957   1.494   1.346   1.054
  590HOH     H2 1958   1.457   1.203   1.017
  591HOH      O 1959   2.243   3.841   1.739
  591HOH     H1 1960   2.228   3.808   1.828
  591HOH     H2 1961   2.249   3.936   1.749
  592HOH      O 1962   3.183   0.403   1.021
  592HOH     H1 1963   3.131   0.407   1.101
  592HOH     H2 1964   3.268   0.367   1.049
  593HOH      O 1965   1.036   1.100   1.172
  593HOH     H1 1966   1.064   1.011   1.152
  593HOH     H2 1967   0.955   1.112   1.124
  594HOH      O 1968   1.210   1.407   3.149
  594HOH     H1 1969   1.232   1.316   3.170
  594HOH     H2 1970   1.221   1.412   3.054
  595HOH      O 1971   0.840   0.074   0.170
  595HOH     H1 1972   0.866  -0.014   0.145
  595HOH     H2 1973   0.822   0.069   0.264
  596HOH      O 1974   0.262   3.777   3.400
  596HOH     H1 1975   0.197   3.717   3.436
  596HOH     H2 1976   0.346   3.733   3.413
  597HOH      O 1977   2.619   2.111   0.245
  597HOH     H1 1978   2.546   2.056   0.274
  597HOH     H2 1979   2.674   2.052   0.194
  598HOH      O 1980   3.103   1.341   0.212
  598HOH     H1 1981   3.030   1.400   0.232
  598HOH     H2 1982   3.068   1.283   0.143
  599HOH      O 1983   2.098   0.441   0.714
  599HOH     H1 1984   2.146   0.502   0.769
  599HOH     H2 1985   2.129   0.355   0.740
  600HOH      O 1986   1.570   3.715   2.065
  600HOH     H1 1987   1.553   3.621   2.073
  600HOH     H2 1988   1.611   3.739   2.148
  601HOH      O 1989   0.169   0.146   1.900
  601HOH     H1 1990   0.172   0.218   1.837
  601HOH     H2 1991   0.205   0.184   1.980
  602HOH      O 1992   0.892   0.555   1.641
  602HOH     H1 1993   0.959   0.624   1.639
  602HOH     H2 1994   0.939   0.475   1.617
  603HOH      O 1995   0.476   3.962   3.322
  603HOH     H1 1996   0.410   3.895   3.304
  603HOH     H2 1997   0.426   4.043   3.329
  604HOH      O 1998   0.772   0.353   1.893
  604HOH     H1 1999   0.741   0.290   1.958
  604HOH     H2 2000   0.827   0.302   1.834
  605HOH      O 2001   1.018   2.311   0.994
  605HOH     H1 2002   1.031   2.243   1.060
  605HOH     H2 2003   1.077   2.382   1.020
  606HOH      O 2004   3.759   2.508   1.181
  606HOH     H1 2005   3.847   2.518   1.143
  606HOH     H2 2006   3.700   2.530   1.109
  607HOH      O 2007   1.763   0.885   0.666
  607HOH     H1 2008   1.798   0.801   0.697
  607HOH     H2 2009   1.837   0.926   0.621
  608HOH      O 2010   1.236   1.909   0.536
  608HOH     H1 2011   1.285   1.834   0.571
  608HOH     H2 2012   1.210   1.958   0.614
  609HOH      O 2013   1.681   1.659   0.038
  609HOH     H1 2014   1.691   1.618  -0.048
  609HOH     H2 2015   1.608   1.613   0.079
  610HOH      O 2016   3.709   1.652   1.669
  610HOH     H1 2017   3.706   1.621   1.759
  610HOH     H2 2018   3.751   1.738   1.674
  611HOH      O 2019   3.575   1.451   3.573
  611HOH     H1 2020   3.563   1.380   3.636
  611HOH     H2 2021   3.666   1.477   3.583
  612HOH      O 2022   1.198   2.227   2.987
  612HOH     H1 2023   1.279   2.230   2.936
  612HOH     H2 2024   1.180   2.318   3.008
  613HOH      O 2025   0.758   1.205   0.253
  613HOH     H1 2026   0.782   1.295   0.233
  613HOH     H2 2027   0.747   1.205   0.348
  614HOH      O 2028   2.004   3.442   3.323
  614HOH     H1 2029   1.964   3.506   3.381
  614HOH     H2 2030   2.077   3.489   3.281
  615HOH      O 2031   0.070   2.638   1.319
  615HOH     H1 2032   0.035   2.566   1.268
  615HOH     H2 2033  -0.007   2.690   1.344
  616HOH      O 2034   0.466   2.422   3.890
  616HOH     H1 2035   0.562   2.420   3.890
  616HOH     H2 2036   0.444   2.503   3.935
  617HOH      O 2037   1.528   2.579   2.412
  617HOH     H1 2038   1.498   2.544   2.496
  617HOH     H2 2039   1.622   2.564   2.412
  618HOH      O 2040   2.225   0.863   0.726
  618HOH     H1 2041   2.207   0.912   0.805
  618HOH     H2 2042   2.206   0.772   0.749
  619HOH      O 2043   0.838   3.286   1.160
  619HOH     H1 2044   0.887   3.285   1.077
  619HOH     H2 2045   0.763   3.342   1.143
  620HOH      O 2046   2.268   1.098   1.038
  620HOH     H1 2047   2.290   1.039   1.110
  620HOH     H2 2048   2.238   1.178   1.081
  621HOH      O 2049   0.588   0.958   2.038
  621HOH     H1 2050   0.546   0.881   1.999
  621HOH     H2 2051   0.606   0.932   2.128
  622HOH      O 2052   2.872   0.734   0.468
  622HOH     H1 2053   2.913   0.804   0.417
  622HOH     H2 2054   2.794   0.710   0.417
  623HOH      O 2055   4.009   0.932   0.618
  623HOH     H1 2056   4.038   0.878   0.545
  623HOH     H2 2057   3.967   1.008   0.577
  624HOH      O 2058   0.907   3.626   0.614
  624HOH     H1 2059   0.946   3.712   0.596
  624HOH     H2 2060   0.980   3.573   0.646
  625HOH      O 2061   1.768   1.720   2.607
  625HOH     H1 2062   1.752   1.800   2.558
  625HOH     H2 2063   1.806   1.659   2.542
  626HOH      O 2064   3.431   2.945   2.022
  626HOH     H1 2065   3.404   2.861   2.060
  626HOH     H2 2066   3.396   3.010   2.083
  627HOH      O 2067   3.185   3.810   1.097
  627HOH     H1 2068   3.140   3.857   1.168
  627HOH     H2 2069   3.139   3.726   1.092
  628HOH      O 2070   0.853   3.333   0.591
  628HOH     H1 2071   0.812   3.329   0.505
  628HOH     H2 2072   0.834   3.421   0.623
  629HOH      O 2073   1.445   3.392   0.299
  629HOH     H1 2074   1.515   3.391   0.364
  629HOH     H2 2075   1.406   3.304   0.305
  630HOH      O 2076   3.796   3.183   1.786
  630HOH     H1 2077   3.855   3.161   1.858
  630HOH     H2 2078   3.756   3.100   1.761
  631HOH      O 2079   1.040   1.981   3.865
  631HOH     H1 2080   1.068   2.022   3.783
  631HOH     H2 2081   1.044   2.052   3.930
  632HOH      O 2082   0.730   2.168   2.609
  632HOH     H1 2083   0.814   2.123   2.612
  632HOH     H2 2084   0.724   2.212   2.694
  633HOH      O 2085   3.125   2.623   0.039
  633HOH     H1 2086   3.200   2.675   0.066
  633HOH     H2 2087   3.061   2.688   0.009
  634HOH      O 2088   3.914   2.107   1.803
  634HOH     H1 2089   3.949   2.151   1.726
  634HOH     H2 2090   3.888   2.178   1.862
  635HOH      O 2091   0.706   2.606   2.261
  635HOH     H1 2092   0.641   2.538   2.280
  635HOH     H2 2093   0.770   2.599   2.331
  636HOH      O 2094   2.367   0.078   2.381
  636HOH     H1 2095   2.372   0.010   2.448
  636HOH     H2 2096   2.289   0.056   2.330
  637HOH      O 2097   0.078   2.672   3.891
  637HOH     H1 2098   0.056   2.590   3.848
  637HOH     H2 2099   0.097   2.648   3.982
  638HOH      O 2100   1.800   2.853   2.555
  638HOH     H1 2101   1.868   2.786   2.547
  638HOH     H2 2102   1.782   2.856   2.649
  639HOH      O 2103   2.461   1.450   0.027
  639HOH     H1 2104   2.453   1.443  -0.068
  639HOH     H2 2105   2.434   1.540   0.047
  640HOH      O 2106   1.256   0.372   3.822
  640HOH     H1 2107   1.305   0.448   3.790
  640HOH     H2 2108   1.207   0.341   3.746
  641HOH      O 2109   2.021   3.534   1.625
  641HOH     H1 2110   1.962   3.463   1.599
  641HOH     H2 2111   1.981   3.613   1.588
  642HOH      O 2112   1.353   0.889   1.997
  642HOH     H1 2113   1.257   0.888   1.995
  642HOH     H2 2114   1.378   0.937   1.918
  643HOH      O 2115   3.409   3.985   3.684
  643HOH     H1 2116   3.368   3.911   3.640
  643HOH     H2 2117   3.374   4.062   3.640
  644HOH      O 2118   2.930   3.219   1.534
  644HOH     H1 2119   2.954   3.230   1.627
  644HOH     H2 2120   2.953   3.303   1.494
  645HOH      O 2121   1.532   2.505   0.531
  645HOH     H1 2122   1.584   2.582   0.510
  645HOH     H2 2123   1.516   2.512   0.625
  646HOH      O 2124   0.705   3.728   3.205
  646HOH     H1 2125   0.668   3.776   3.131
  646HOH     H2 2126   0.799   3.721   3.185
  647HOH      O 2127   1.806   0.340   2.091
  647HOH     H1 2128   1.862   0.329   2.168
  647HOH     H2 2129   1.767   0.426   2.102
  648HOH      O 2130   2.391   3.863   1.345
  648HOH     H1 2131   2.326   3.934   1.346
  648HOH     H2 2132   2.412   3.852   1.252
  649HOH      O 2133   1.485   3.366   2.832
  649HOH     H1 2134   1.509   3.360   2.924
  649HOH     H2 2135   1.524   3.449   2.803
  650HOH      O 2136   3.864   3.183   0.126
  650HOH     H1 2137   3.800   3.159   0.193
  650HOH     H2 2138   3.922   3.108   0.120
  651HOH      O 2139   0.779   3.854   2.728
  651HOH     H1 2140   0.838   3.855   2.803
  651HOH     H2 2141   0.836   3.843   2.652
  652HOH      O 2142   2.750   2.882   3.119
  652HOH     H1 2143   2.786   2.944   3.057
  652HOH     H2 2144   2.748   2.930   3.202
  653HOH      O 2145   2.720   3.506   2.414
  653HOH     H1 2146   2.756   3.514   2.326
  653HOH     H2 2147   2.732   3.414   2.437
  654HOH      O 2148   2.059   3.343   2.627
  654HOH     H1 2149   2.040   3.273   2.564
  654HOH     H2 2150   1.973   3.369   2.661
  655HOH      O 2151   2.921   2.825   2.105
  655HOH     H1 2152   2.896   2.739   2.140
  655HOH     H2 2153   2.975   2.864   2.173
  656HOH      O 2154   3.964   3.898   1.538
  656HOH     H1 2155   3.930   3.975   1.492
  656HOH     H2 2156   3.978   3.928   1.628
  657HOH      O 2157   3.005   1.684   3.209
  657HOH     H1 2158   3.092   1.678   3.170
  657HOH     H2 2159   3.009   1.625   3.285
  658HOH      O 2160   0.579   0.069   2.325
  658HOH     H1 2161   0.637   0.052   2.398
  658HOH     H2 2162   0.561  -0.017   2.287
  659HOH      O 2163   2.107   2.365   2.348
  659HOH     H1 2164   2.053   2.387   2.424
  659HOH     H2 2165   2.054   2.302   2.298
  660HOH      O 2166   2.311   0.594   0.480
  660HOH     H1 2167   2.310   0.499   0.489
  660HOH     H2 2168   2.227   0.616   0.441
  661HOH      O 2169   0.047   2.463   3.740
  661HOH     H1 2170   0.080   2.413   3.665
  661HOH     H2 2171  -0.024   2.408   3.775
  662HOH      O 2172   0.165   2.005   3.764
  662HOH     H1 2173   0.228   1.936   3.742
  662HOH     H2 2174   0.208   2.086   3.738
  663HOH      O 2175   1.305   1.690   3.502
  663HOH     H1 2176   1.317   1.708   3.595
  663HOH     H2 2177   1.295   1.776   3.462
  664HOH      O 2178   3.017   0.470   3.757
  664HOH     H1 2179   3.055   0.460   3.845
  664HOH     H2 2180   3.079   0.527   3.711
  665HOH      O 2181   3.099   0.675   0.848
  665HOH     H1 2182   3.018   0.674   0.797
  665HOH     H2 2183   3.069   0.681   0.939
  666HOH      O 2184   3.652   1.016   3.017
  666HOH     H1 2185   3.713   1.037   3.088
  666HOH     H2 2186   3.668   1.083   2.951
  667HOH      O 2187   1.464   1.458   0.024
  667HOH     H1 2188   1.485   1.417  -0.060
  667HOH     H2 2189   1.463   1.386   0.087
  668HOH      O 2190   0.835   0.147   3.213
  668HOH     H1 2191   0.799   0.091   3.145
  668HOH     H2 2192   0.898   0.092   3.259
  669HOH      O 2193   0.754   3.382   1.434
  669HOH     H1 2194   0.778   3.321   1.364
  669HOH     H2 2195   0.675   3.344   1.473
  670HOH      O 2196   2.742   0.222   2.042
  670HOH     H1 2197   2.706   0.310   2.056
  670HOH     H2 2198   2.686   0.165   2.094
  671HOH      O 2199   0.149   1.598   3.991
  671HOH     H1 2200   0.108   1.514   3.968
  671HOH     H2 2201   0.081   1.644   4.040
  672HOH      O 2202   0.696   0.053   1.620
  672HOH     H1 2203   0.722   0.080   1.532
  672HOH     H2 2204   0.749   0.107   1.679
  673HOH      O 2205   3.219   1.514   2.464
  673HOH     H1 2206   3.191   1.580   2.528
  673HOH     H2 2207   3.166   1.437   2.483
  674HOH      O 2208   0.353   0.886   3.433
  674HOH     H1 2209   0.378   0.795   3.448
  674HOH     H2 2210   0.407   0.914   3.359
  675HOH      O 2211   2.594   2.199   2.616
  675HOH     H1 2212   2.499   2.189   2.627
  675HOH     H2 2213   2.632   2.141   2.683
  676HOH      O 2214   0.883   3.708   2.422
  676HOH     H1 2215   0.805   3.740   2.467
  676HOH     H2 2216   0.894   3.618   2.454
  677HOH      O 2217   3.028   2.316   2.256
  677HOH     H1 2218   2.957   2.256   2.234
  677HOH     H2 2219   3.019   2.331   2.350
  678HOH      O 2220   3.298   0.359   2.057
  678HOH     H1 2221   3.346   0.427   2.105
  678HOH     H2 2222   3.246   0.407   1.993
  679HOH      O 2223   0.467   3.647   1.660
  679HOH     H1 2224   0.457   3.723   1.717
  679HOH     H2 2225   0.475   3.573   1.720
  680HOH      O 2226   1.771   1.313   3.582
  680HOH     H1 2227   1.686   1.277   3.606
  680HOH     H2 2228   1.771   1.311   3.486
  681HOH      O 2229   2.128   0.389   0.301
  681HOH     H1 2230   2.140   0.392   0.206
  681HOH     H2 2231   2.214   0.365   0.335
  682HOH      O 2232   3.983   3.588   3.986
  682HOH     H1 2233   4.015   3.500   4.006
  682HOH     H2 2234   3.907   3.573   3.930
  683HOH      O 2235   3.232   2.688   1.420
  683HOH     H1 2236   3.220   2.603   1.378
  683HOH     H2 2237   3.189   2.680   1.504
  684HOH      O 2238   1.585   1.862   0.628
  684HOH     H1 2239   1.570   1.954   0.651
  684HOH     H2 2240   1.665   1.863   0.575
  685HOH      O 2241   1.274   3.792   3.056
  685HOH     H1 2242   1.344   3.853   3.080
  685HOH     H2 2243   1.263   3.804   2.962
  686HOH      O 2244   0.618   1.606   0.283
  686HOH     H1 2245   0.578   1.621   0.197
  686HOH     H2 2246   0.579   1.524   0.313
  687HOH      O 2247   0.324   0.584   3.505
  687HOH     H1 2248   0.234   0.555   3.490
  687HOH     H2 2249   0.368   0.569   3.421
  688HOH      O 2250   3.663   1.780   0.498
  688HOH     H1 2251   3.570   1.770   0.515
  688HOH     H2 2252   3.692   1.695   0.465
  689HOH      O 2253   2.602   2.534   3.645
  689HOH     H1 2254   2.560   2.582   3.717
  689HOH     H2 2255   2.648   2.462   3.688
  690HOH      O 2256   0.835   2.407   1.190
  690HOH     H1 2257   0.892   2.340   1.152
  690HOH     H2 2258   0.755   2.403   1.138
  691HOH      O 2259   2.212   3.691   0.684
  691HOH     H1 2260   2.122   3.698   0.650
  691HOH     H2 2261   2.200   3.682   0.779
  692HOH      O 2262   0.294   1.549   3.570
  692HOH     H1 2263   0.303   1.592   3.655
  692HOH     H2 2264   0.330   1.461   3.583
  693HOH      O 2265   1.973   2.823   3.061
  693HOH     H1 2266   1.984   2.816   3.156
  693HOH     H2 2267   1.932   2.741   3.036
  694HOH      O 2268   1.857   1.716   2.907
  694HOH     H1 2269   1.873   1.681   2.819
  694HOH     H2 2270   1.769   1.755   2.901
  695HOH      O 2271   2.942   2.099   3.709
  695HOH     H1 2272   2.996   2.063   3.638
  695HOH     H2 2273   2.958   2.041   3.783
  696HOH      O 2274   3.328   0.445   2.783
  696HOH     H1 2275   3.255   0.506   2.793
  696HOH     H2 2276   3.386   0.488   2.720
  697HOH      O 2277   2.410   2.619   0.527
  697HOH     H1 2278   2.468   2.694   0.539
  697HOH     H2 2279   2.469   2.547   0.502
  698HOH      O 2280   3.484   0.385   0.179
  698HOH     H1 2281   3.441   0.471   0.180
  698HOH     H2 2282   3.412   0.322   0.184
  699HOH      O 2283   0.032   1.463   1.242
  699HOH     H1 2284   0.052   1.547   1.202
  699HOH     H2 2285   0.055   1.474   1.334
  700HOH      O 2286   2.008   1.962   3.648
  700HOH     H1 2287   2.077   1.940   3.711
  700HOH     H2 2288   2.055   1.976   3.566
  701HOH      O 2289   3.860   3.704   0.708
  701HOH     H1 2290   3.861   3.609   0.715
  701HOH     H2 2291   3.790   3.724   0.646
  702HOH      O 2292   4.037   1.228   1.082
  702HOH     H1 2293   3.969   1.177   1.126
  702HOH     H2 2294   4.033   1.314   1.123
  703HOH      O 2295   0.944   3.103   0.061
  703HOH     H1 2296   0.872   3.137   0.009
  703HOH     H2 2297   1.014   3.168   0.051
  704HOH      O 2298   1.044   3.473   2.534
  704HOH     H1 2299   1.106   3.517   2.592
  704HOH     H2 2300   0.977   3.436   2.592
  705HOH      O 2301   1.196   2.922   2.141
  705HOH     H1 2302   1.262   2.857   2.165
  705HOH     H2 2303   1.195   2.984   2.215
  706HOH      O 2304   2.310   1.656   0.108
  706HOH     H1 2305   2.235   1.621   0.060
  706HOH     H2 2306   2.272   1.699   0.185
  707HOH      O 2307   2.911   3.898   1.018
  707HOH     H1 2308   2.964   3.975   1.036
  707HOH     H2 2309   2.974   3.834   0.983
  708HOH      O 2310   0.320   3.513   0.378
  708HOH     H1 2311   0.410   3.544   0.387
  708HOH     H2 2312   0.305   3.508   0.284
  709HOH      O 2313   2.593   3.298   3.078
  709HOH     H1 2314   2.647   3.252   3.014
  709HOH     H2 2315   2.552   3.229   3.128
  710HOH      O 2316   1.600   0.505   3.647
  710HOH     H1 2317   1.663   0.471   3.711
  710HOH     H2 2318   1.575   0.591   3.681
  711HOH      O 2319   1.048   0.215   0.552
  711HOH     H1 2320   1.079   0.304   0.567
  711HOH     H2 2321   1.127   0.161   0.556
  712HOH      O 2322   0.519   1.698   1.019
  712HOH     H1 2323   0.432   1.678   0.983
  712HOH     H2 2324   0.577   1.697   0.943
  713HOH      O 2325   2.817   0.959   1.668
  713HOH     H1 2326   2.737   0.908   1.658
  713HOH     H2 2327   2.790   1.050   1.657
  714HOH      O 2328   1.852   3.457   3.049
  714HOH     H1 2329   1.808   3.462   3.134
  714HOH     H2 2330   1.935   3.413   3.068
  715HOH      O 2331   0.652   0.849   2.290
  715HOH     H1 2332   0.621   0.818   2.375
  715HOH     H2 2333   0.738   0.809   2.280
  716HOH      O 2334   3.238   1.245   1.067
  716HOH     H1 2335   3.168   1.298   1.029
  716HOH     H2 2336   3.198   1.159   1.079
  717HOH      O 2337   3.080   1.566   2.880
  717HOH     H1 2338   3.015   1.521   2.934
  717HOH     H2 2339   3.153   1.582   2.940
  718HOH      O 2340   2.880   1.538   2.126
  718HOH     H1 2341   2.896   1.572   2.038
  718HOH     H2 2342   2.789   1.560   2.145
  719HOH      O 2343   1.791   2.608   0.447
  719HOH     H1 2344   1.850   2.672   0.488
  719HOH     H2 2345   1.805   2.528   0.497
  720HOH      O 2346   1.174   2.821   3.164
  720HOH     H1 2347   1.162   2.750   3.227
  720HOH     H2 2348   1.206   2.778   3.085
  721HOH      O 2349   3.420   0.582   0.499
  721HOH     H1 2350   3.370   0.502   0.480
  721HOH     H2 2351   3.469   0.561   0.578
  722HOH      O 2352   2.808   0.247   2.845
  722HOH     H1 2353   2.877   0.279   2.904
  722HOH     H2 2354   2.770   0.172   2.892
  723HOH      O 2355   3.361   0.097   3.154
  723HOH     H1 2356   3.390   0.095   3.245
  723HOH     H2 2357   3.377   0.187   3.125
  724HOH      O 2358   2.048   0.301   1.977
  724HOH     H1 2359   2.120   0.326   1.920
  724HOH     H2 2360   1.980   0.367   1.961
  725HOH      O 2361   2.496   0.729   1.129
  725HOH     H1 2362   2.577   0.730   1.077
  725HOH     H2 2363   2.461   0.641   1.116
  726HOH      O 2364   2.953   0.786   2.664
  726HOH     H1 2365   2.861   0.778   2.641
  726HOH     H2 2366   3.000   0.774   2.582
  727HOH      O 2367   3.667   3.307   3.629
  727HOH     H1 2368   3.738   3.287   3.690
  727HOH     H2 2369   3.620   3.224   3.619
  728HOH      O 2370   2.750   0.976   0.169
  728HOH     H1 2371   2.827   0.920   0.181
  728HOH     H2 2372   2.783   1.064   0.183
  729HOH      O 2373   2.980   0.738   3.547
  729HOH     H1 2374   3.021   0.665   3.501
  729HOH     H2 2375   2.905   0.762   3.492
  730HOH      O 2376   3.018   2.857   2.504
  730HOH     H1 2377   3.004   2.846   2.598
  730HOH     H2 2378   2.989   2.774   2.466
  731HOH      O 2379   1.267   3.626   1.645
  731HOH     H1 2380   1.334   3.617   1.712
  731HOH     H2 2381   1.184   3.619   1.693
  732HOH      O 2382   2.028   0.225   4.015
  732HOH     H1 2383   2.015   0.172   3.937
  732HOH     H2 2384   1.943   0.264   4.032
  733HOH      O 2385   3.741   0.490   1.198
  733HOH     H1 2386   3.828   0.528   1.204
  733HOH     H2 2387   3.756   0.403   1.161
  734HOH      O 2388   3.898   1.192   2.697
  734HOH     H1 2389   3.896   1.124   2.629
  734HOH     H2 2390   3.900   1.274   2.648
  735HOH      O 2391   0.051   3.138   2.239
  735HOH     H1 2392   0.110   3.089   2.296
  735HOH     H2 2393   0.058   3.229   2.270
  736HOH      O 2394   1.162   0.071   3.174
  736HOH     H1 2395   1.215   0.149   3.160
  736HOH     H2 2396   1.208   0.023   3.242
  737HOH      O 2397   3.744   2.311   3.740
  737HOH     H1 2398   3.749   2.311   3.644
  737HOH     H2 2399   3.675   2.374   3.760
  738HOH      O 2400   3.044   2.981   1.451
  738HOH     H1 2401   3.006   3.062   1.485
  738HOH     H2 2402   2.973   2.940   1.402
  739HOH      O 2403   3.283   3.905   0.671
  739HOH     H1 2404   3.213   3.866   0.722
  739HOH     H2 2405   3.361   3.895   0.726
  740HOH      O 2406   0.138   0.813   2.595
  740HOH     H1 2407   0.077   0.741   2.574
  740HOH     H2 2408   0.161   0.798   2.686
  741HOH      O 2409   3.123   3.460   2.029
  741HOH     H1 2410   3.163   3.495   2.109
  741HOH     H2 2411   3.195   3.456   1.966
  742HOH      O 2412   1.783   1.528   3.823
  742HOH     H1 2413   1.816   1.584   3.753
  742HOH     H2 2414   1.829   1.445   3.811
  743HOH      O 2415   3.468   3.697   1.422
  743HOH     H1 2416   3.442   3.778   1.378
  743HOH     H2 2417   3.535   3.659   1.366
  744HOH      O 2418   1.810   3.359   2.472
  744HOH     H1 2419   1.764   3.312   2.541
  744HOH     H2 2420   1.771   3.447   2.473
  745HOH      O 2421   3.667   2.686   3.052
  745HOH     H1 2422   3.731   2.744   3.012
  745HOH     H2 2423   3.583   2.729   3.037
  746HOH      O 2424   2.784   2.823   3.782
  746HOH     H1 2425   2.822   2.740   3.753
  746HOH     H2 2426   2.706   2.797   3.831
  747HOH      O 2427   2.823   3.554   2.168
  747HOH     H1 2428   2.904   3.522   2.208
  747HOH     H2 2429   2.849   3.631   2.118
  748HOH      O 2430   1.055   0.977   2.242
  748HOH     H1 2431   1.073   0.898   2.293
  748HOH     H2 2432   1.017   0.944   2.160
  749HOH      O 2433   0.221   1.760   1.564
  749HOH     H1 2434   0.145   1.742   1.620
  749HOH     H2 2435   0.266   1.676   1.556
  750HOH      O 2436   3.316   2.182   0.818
  750HOH     H1 2437   3.367   2.121   0.764
  750HOH     H2 2438   3.260   2.228   0.756
  751HOH      O 2439   1.362   1.634   0.919
  751HOH     H1 2440   1.451   1.669   0.917
  751HOH     H2 2441   1.362   1.565   0.853
  752HOH      O 2442   3.628   3.854   2.710
  752HOH     H1 2443   3.650   3.855   2.803
  752HOH     H2 2444   3.694   3.911   2.670
  753HOH      O 2445   1.824   1.928   2.173
  753HOH     H1 2446   1.871   1.845   2.174
  753HOH     H2 2447   1.892   1.995   2.162
  754HOH      O 2448   0.547   4.042   0.296
  754HOH     H1 2449   0.490   3.965   0.293
  754HOH     H2 2450   0.571   4.057   0.204
  755HOH      O 2451   3.136   2.890   3.388
  755HOH     H1 2452   3.058   2.879   3.441
  755HOH     H2 2453   3.132   2.981   3.358
  756HOH      O 2454   0.553   2.581   3.503
  756HOH     H1 2455   0.475   2.599   3.451
  756HOH     H2 2456   0.530   2.611   3.591
  757HOH      O 2457   3.123   2.362   2.951
  757HOH     H1 2458   3.054   2.399   2.896
  757HOH     H2 2459   3.096   2.383   3.041
  758HOH      O 2460   0.489   1.840   2.745
  758HOH     H1 2461   0.394   1.844   2.755
  758HOH     H2 2462   0.503   1.806   2.657
  759HOH      O 2463   3.633   0.131   0.562
  759HOH     H1 2464   3.549   0.095   0.533
  759HOH     H2 2465   3.652   0.202   0.499
  760HOH      O 2466   1.391   1.571   2.929
  760HOH     H1 2467   1.430   1.597   2.846
  760HOH     H2 2468   1.458   1.517   2.971
  761HOH      O 2469   2.680   3.456   0.973
  761HOH     H1 2470   2.707   3.460   1.065
  761HOH     H2 2471   2.701   3.367   0.946
  762HOH      O 2472   1.532   1.521   3.734
  762HOH     H1 2473   1.491   1.437   3.757
  762HOH     H2 2474   1.624   1.510   3.758
  763HOH      O 2475   0.107   4.022   2.401
  763HOH     H1 2476   0.052   4.023   2.323
  763HOH     H2 2477   0.170   3.951   2.386
  764HOH      O 2478   1.431   3.056   1.957
  764HOH     H1 2479   1.459   3.102   1.877
  764HOH     H2 2480   1.388   3.123   2.010
  765HOH      O 2481   3.394   0.613   1.806
  765HOH     H1 2482   3.396   0.589   1.714
  765HOH     H2 2483   3.315   0.571   1.840
  766HOH      O 2484   1.582   3.306   3.421
  766HOH     H1 2485   1.505   3.302   3.477
  766HOH     H2 2486   1.640   3.238   3.455
  767HOH      O 2487   3.338   3.594   0.607
  767HOH     H1 2488   3.313   3.559   0.521
  767HOH     H2 2489   3.328   3.689   0.597
  768HOH      O 2490   2.200   3.706   0.297
  768HOH     H1 2491   2.172   3.615   0.309
  768HOH     H2 2492   2.183   3.725   0.204
  769HOH      O 2493   1.546   0.965   3.955
  769HOH     H1 2494   1.492   0.971   3.876
  769HOH     H2 2495   1.634   0.945   3.922
  770HOH      O 2496   3.531   2.177   2.406
  770HOH     H1 2497   3.604   2.229   2.373
  770HOH     H2 2498   3.476   2.161   2.330
  771HOH      O 2499   3.484   1.856   1.290
  771HOH     H1 2500   3.517   1.868   1.201
  771HOH     H2 2501   3.454   1.765   1.293
  772HOH      O 2502   1.135   2.200   3.370
  772HOH     H1 2503   1.103   2.170   3.285
  772HOH     H2 2504   1.124   2.295   3.367
  773HOH      O 2505   1.003   2.366   0.680
  773HOH     H1 2506   0.952   2.287   0.692
  773HOH     H2 2507   1.036   2.388   0.767
  774HOH      O 2508   3.744   3.876   3.691
  774HOH     H1 2509   3.679   3.888   3.622
  774HOH     H2 2510   3.729   3.950   3.751
  775HOH      O 2511   3.342   0.602   0.913
  775HOH     H1 2512   3.262   0.637   0.874
  775HOH     H2 2513   3.317   0.515   0.945
  776HOH      O 2514   0.877   1.020   0.661
  776HOH     H1 2515   0.972   1.012   0.653
  776HOH     H2 2516   0.850   0.939   0.703
  777HOH      O 2517   2.727   1.343   0.109
  777HOH     H1 2518   2.638   1.374   0.125
  777HOH     H2 2519   2.751   1.381   0.024
  778HOH      O 2520   3.448   1.448   0.475
  778HOH     H1 2521   3.429   1.413   0.389
  778HOH     H2 2522   3.494   1.377   0.521
  779HOH      O 2523   0.984   0.711   0.419
  779HOH     H1 2524   1.037   0.745   0.491
  779HOH     H2 2525   0.999   0.772   0.347
  780HOH      O 2526   3.337   3.498   3.367
  780HOH     H1 2527   3.345   3.554   3.289
  780HOH     H2 2528   3.427   3.489   3.399
  781HOH      O 2529   2.549   2.772   2.974
  781HOH     H1 2530   2.616   2.794   3.038
  781HOH     H2 2531   2.496   2.851   2.966
  782HOH      O 2532   2.359   1.697   2.713
  782HOH     H1 2533   2.289   1.752   2.748
  782HOH     H2 2534   2.313   1.627   2.666
  783HOH      O 2535   0.817   1.067   1.638
  783HOH     H1 2536   0.764   1.099   1.565
  783HOH     H2 2537   0.906   1.063   1.603
  784HOH      O 2538   1.334   1.294   3.853
  784HOH     H1 2539   1.362   1.209   3.818
  784HOH     H2 2540   1.250   1.311   3.810
  785HOH      O 2541   1.727   1.398   2.067
  785HOH     H1 2542   1.674   1.330   2.109
  785HOH     H2 2543   1.693   1.480   2.102
  786HOH      O 2544   1.160   0.596   1.862
  786HOH     H1 2545   1.175   0.505   1.889
  786HOH     H2 2546   1.200   0.602   1.775
  787HOH      O 2547   2.058   3.210   1.494
  787HOH     H1 2548   2.018   3.264   1.426
  787HOH     H2 2549   2.008   3.229   1.573
  788HOH      O 2550   1.635   0.674   1.389
  788HOH     H1 2551   1.727   0.701   1.391
  788HOH     H2 2552   1.625   0.632   1.303
  789HOH      O 2553   1.028   3.121   3.431
  789HOH     H1 2554   1.013   3.189   3.366
  789HOH     H2 2555   1.077   3.164   3.500
  790HOH      O 2556   1.350   1.030   0.346
  790HOH     H1 2557   1.441   1.015   0.372
  790HOH     H2 2558   1.350   1.018   0.251
  791HOH      O 2559   3.386   2.791   3.070
  791HOH     H1 2560   3.372   2.823   2.981
  791HOH     H2 2561   3.316   2.728   3.085
  792HOH      O 2562   3.017   0.482   1.467
  792HOH     H1 2563   3.000   0.410   1.527
  792HOH     H2 2564   2.930   0.516   1.446
  793HOH      O 2565   3.320   1.840   0.301
  793HOH     H1 2566   3.321   1.838   0.396
  793HOH     H2 2567   3.340   1.931   0.278
  794HOH      O 2568   0.568   0.921   1.473
  794HOH     H1 2569   0.570   1.016   1.458
  794HOH     H2 2570   0.629   0.907   1.546
  795HOH      O 2571   1.090   2.777   2.417
  795HOH     H1 2572   1.048   2.854   2.455
  795HOH     H2 2573   1.105   2.719   2.492
  796HOH      O 2574   3.171   1.696   2.652
  796HOH     H1 2575   3.180   1.791   2.651
  796HOH     H2 2576   3.108   1.678   2.722
  797HOH      O 2577   1.160   2.728   1.238
  797HOH     H1 2578   1.090   2.771   1.287
  797HOH     H2 2579   1.167   2.778   1.156
  798HOH      O 2580   2.211   2.993   0.255
  798HOH     H1 2581   2.271   3.060   0.225
  798HOH     H2 2582   2.141   2.993   0.190
  799HOH      O 2583   3.241   2.523   1.969
  799HOH     H1 2584   3.314   2.500   1.911
  799HOH     H2 2585   3.227   2.446   2.023
  800HOH      O 2586   0.707   1.123   3.644
  800HOH     H1 2587   0.698   1.113   3.549
  800HOH     H2 2588   0.779   1.184   3.655
  801HOH      O 2589   3.347   3.604   2.080
  801HOH     H1 2590   3.343   3.638   1.990
  801HOH     H2 2591   3.434   3.565   2.087
  802HOH      O 2592   3.651   0.725   2.935
  802HOH     H1 2593   3.674   0.816   2.954
  802HOH     H2 2594   3.734   0.678   2.940
  803HOH      O 2595   0.368   1.955   1.716
  803HOH     H1 2596   0.331   2.005   1.789
  803HOH     H2 2597   0.291   1.916   1.673
  804HOH      O 2598   0.473   3.883   3.731
  804HOH     H1 2599   0.422   3.930   3.665
  804HOH     H2 2600   0.430   3.798   3.738
  805HOH      O 2601   0.466   2.692  -0.005
  805HOH     H1 2602   0.518   2.650   0.063
  805HOH     H2 2603   0.522   2.762  -0.038
  806HOH      O 2604   3.198   1.448   0.847
  806HOH     H1 2605   3.160   1.434   0.761
  806HOH     H2 2606   3.263   1.378   0.857
  807HOH      O 2607   2.014   2.858   0.843
  807HOH     H1 2608   1.995   2.768   0.869
  807HOH     H2 2609   2.097   2.853   0.796
  808HOH      O 2610   3.088   0.169   1.758
  808HOH     H1 2611   3.142   0.096   1.728
  808HOH     H2 2612   3.053   0.140   1.842
  809HOH      O 2613   2.865   2.263   0.835
  809HOH     H1 2614   2.908   2.336   0.791
  809HOH     H2 2615   2.782   2.299   0.866
  810HOH      O 2616   2.197   1.507   0.991
  810HOH     H1 2617   2.187   1.467   0.904
  810HOH     H2 2618   2.159   1.443   1.051
  811HOH      O 2619   2.408   1.510   1.711
  811HOH     H1 2620   2.421   1.439   1.774
  811HOH     H2 2621   2.330   1.556   1.743
  812HOH      O 2622   2.625   0.110   2.276
  812HOH     H1 2623   2.531   0.123   2.276
  812HOH     H2 2624   2.649   0.107   2.369
  813HOH      O 2625   1.894   2.545   3.043
  813HOH     H1 2626   1.893   2.449   3.034
  813HOH     H2 2627   1.804   2.568   3.065
  814HOH      O 2628   3.380   2.585   0.756
  814HOH     H1 2629   3.292   2.550   0.742
  814HOH     H2 2630   3.438   2.515   0.728
  815HOH      O 2631   3.960   2.212   1.565
  815HOH     H1 2632   3.875   2.256   1.572
  815HOH     H2 2633   3.954   2.162   1.483
  816HOH      O 2634   2.573   3.119   3.839
  816HOH     H1 2635   2.659   3.156   3.861
  816HOH     H2 2636   2.561   3.141   3.747
  817HOH      O 2637   0.293   3.503   0.090
  817HOH     H1 2638   0.204   3.471   0.104
  817HOH     H2 2639   0.290   3.545   0.004
  818HOH      O 2640   1.133   2.262   1.521
  818HOH     H1 2641   1.118   2.170   1.541
  818HOH     H2 2642   1.045   2.296   1.501
  819HOH      O 2643   0.241   0.133   1.454
  819HOH     H1 2644   0.330   0.099   1.467
  819HOH     H2 2645   0.225   0.188   1.531
  820HOH      O 2646   0.436   0.141   0.941
  820HOH     H1 2647   0.425   0.236   0.951
  820HOH     H2 2648   0.525   0.130   0.908
  821HOH      O 2649   3.933   1.593   3.763
  821HOH     H1 2650   3.930   1.672   3.817
  821HOH     H2 2651   3.950   1.624   3.675
  822HOH      O 2652   1.493   2.125   3.970
  822HOH     H1 2653   1.407   2.140   4.009
  822HOH     H2 2654   1.494   2.031   3.950
  823HOH      O 2655   2.829   1.875   3.354
  823HOH     H1 2656   2.758   1.813   3.365
  823HOH     H2 2657   2.868   1.853   3.269
  824HOH      O 2658   2.078   1.832   2.470
  824HOH     H1 2659   1.986   1.860   2.471
  824HOH     H2 2660   2.075   1.745   2.430
  825HOH      O 2661   2.063   2.010   2.220
  825HOH     H1 2662   2.112   2.026   2.301
  825HOH     H2 2663   2.105   2.065   2.155
  826HOH      O 2664   0.173   1.404   2.435
  826HOH     H1 2665   0.198   1.329   2.380
  826HOH     H2 2666   0.092   1.435   2.396
  827HOH      O 2667   3.326   4.007   0.243
  827HOH     H1 2668   3.288   3.929   0.283
  827HOH     H2 2669   3.359   4.058   0.317
  828HOH      O 2670   1.859   2.189   1.042
  828HOH     H1 2671   1.896   2.132   1.109
  828HOH     H2 2672   1.848   2.273   1.085
  829HOH      O 2673   2.640   2.700   3.410
  829HOH     H1 2674   2.619   2.781   3.457
  829HOH     H2 2675   2.640   2.633   3.478
  830HOH      O 2676   3.957   0.684   3.179
  830HOH     H1 2677   4.016   0.723   3.243
  830HOH     H2 2678   3.937   0.597   3.213
  831HOH      O 2679   1.641   0.116   2.083
  831HOH     H1 2680   1.707   0.185   2.076
  831HOH     H2 2681   1.636   0.078   1.996
  832HOH      O 2682   2.111   3.499   2.073
  832HOH     H1 2683   2.123   3.593   2.088
  832HOH     H2 2684   2.117   3.460   2.160
  833HOH      O 2685   1.211   1.191   2.261
  833HOH     H1 2686   1.163   1.108   2.271
  833HOH     H2 2687   1.273   1.173   2.190
  834HOH      O 2688   1.291   1.419   2.407
  834HOH     H1 2689   1.276   1.382   2.495
  834HOH     H2 2690   1.267   1.348   2.348
  835HOH      O 2691   1.800   0.328   0.162
  835HOH     H1 2692   1.854   0.402   0.189
  835HOH     H2 2693   1.712   0.364   0.154
  836HOH      O 2694   1.302   1.161   3.222
  836HOH     H1 2695   1.396   1.152   3.236
  836HOH     H2 2696   1.282   1.096   3.155
  837HOH      O 2697   0.274   0.123   3.314
  837HOH     H1 2698   0.310   0.203   3.276
  837HOH     H2 2699   0.180   0.140   3.320
  838HOH      O 2700   2.015   2.663   2.540
  838HOH     H1 2701   2.029   2.568   2.530
  838HOH     H2 2702   2.096   2.695   2.581
  839HOH      O 2703   3.583   3.144   1.453
  839HOH     H1 2704   3.621   3.165   1.367
  839HOH     H2 2705   3.587   3.048   1.458
  840HOH      O 2706   1.708   1.420   2.809
  840HOH     H1 2707   1.760   1.341   2.815
  840HOH     H2 2708   1.622   1.395   2.843
  841HOH      O 2709   0.223   0.189   3.957
  841HOH     H1 2710   0.194   0.130   4.027
  841HOH     H2 2711   0.226   0.133   3.879
  842HOH      O 2712   1.536   2.562   3.917
  842HOH     H1 2713   1.554   2.508   3.994
  842HOH     H2 2714   1.594   2.526   3.849
  843HOH      O 2715   2.434   1.818   3.227
  843HOH     H1 2716   2.482   1.857   3.154
  843HOH     H2 2717   2.342   1.832   3.206
  844HOH      O 2718   0.662   1.692   0.795
  844HOH     H1 2719   0.749   1.674   0.831
  844HOH     H2 2720   0.679   1.741   0.715
  845HOH      O 2721   2.837   3.314   1.780
  845HOH     H1 2722   2.749   3.293   1.811
  845HOH     H2 2723   2.827   3.400   1.738
  846HOH      O 2724   3.686   3.865   0.035
  846HOH     H1 2725   3.779   3.889   0.029
  846HOH     H2 2726   3.642   3.929  -0.020
  847HOH      O 2727   2.247   0.395   4.008
  847HOH     H1 2728   2.175   0.334   4.019
  847HOH     H2 2729   2.207   0.473   3.969
  848HOH      O 2730   1.515   3.079   1.007
  848HOH     H1 2731   1.533   3.041   1.093
  848HOH     H2 2732   1.601   3.085   0.965
  849HOH      O 2733   3.591   3.957   1.675
  849HOH     H1 2734   3.648   3.890   1.637
  849HOH     H2 2735   3.650   4.014   1.724
  850HOH      O 2736   0.908   1.462   3.017
  850HOH     H1 2737   0.980   1.482   2.958
  850HOH     H2 2738   0.948   1.411   3.087
  851HOH      O 2739   1.375   1.650   0.605
  851HOH     H1 2740   1.380   1.561   0.642
  851HOH     H2 2741   1.452   1.694   0.640
  852HOH      O 2742   1.371   0.059   3.927
  852HOH     H1 2743   1.352   0.071   4.020
  852HOH     H2 2744   1.412   0.142   3.900
  853HOH      O 2745   3.429   1.746   1.612
  853HOH     H1 2746   3.426   1.789   1.526
  853HOH     H2 2747   3.520   1.718   1.622
  854HOH      O 2748   0.495   2.447   2.305
  854HOH     H1 2749   0.482   2.381   2.236
  854HOH     H2 2750   0.407   2.481   2.321
  855HOH      O 2751   1.698   0.350   2.799
  855HOH     H1 2752   1.663   0.265   2.774
  855HOH     H2 2753   1.688   0.404   2.721
  856HOH      O 2754   3.894   1.179   0.536
  856HOH     H1 2755   3.963   1.240   0.511
  856HOH     H2 2756   3.872   1.133   0.455
  857HOH      O 2757   0.670   1.319   1.937
  857HOH     H1 2758   0.626   1.255   1.880
  857HOH     H2 2759   0.635   1.403   1.909
  858HOH      O 2760   0.157   0.084   2.824
  858HOH     H1 2761   0.192   0.002   2.789
  858HOH     H2 2762   0.206   0.153   2.778
  859HOH      O 2763   2.883   3.613   2.825
  859HOH     H1 2764   2.818   3.585   2.761
  859HOH     H2 2765   2.841   3.594   2.910
  860HOH      O 2766   0.961   0.414   1.184
  860HOH     H1 2767   0.920   0.437   1.100
  860HOH     H2 2768   0.963   0.318   1.184
  861HOH      O 2769   3.975   1.327   3.707
  861HOH     H1 2770   3.983   1.422   3.717
  861HOH     H2 2771   3.891   1.315   3.662
  862HOH      O 2772   0.040   0.017   0.949
  862HOH     H1 2773   0.016   0.099   0.993
  862HOH     H2 2774   0.132   0.003   0.972
  863HOH      O 2775   2.028   0.429   1.410
  863HOH     H1 2776   2.088   0.495   1.445
  863HOH     H2 2777   1.947   0.443   1.458
  864HOH      O 2778   0.819   3.485   3.689
  864HOH     H1 2779   0.821   3.574   3.651
  864HOH     H2 2780   0.735   3.450   3.662
  865HOH      O 2781   3.727   0.899   3.459
  865HOH     H1 2782   3.748   0.922   3.369
  865HOH     H2 2783   3.680   0.816   3.453
  866HOH      O 2784   2.467   3.783   0.278
  866HOH     H1 2785   2.378   3.779   0.313
  866HOH     H2 2786   2.464   3.852   0.211
  867HOH      O 2787   1.179   3.936   1.124
  867HOH     H1 2788   1.135   3.862   1.166
  867HOH     H2 2789   1.255   3.897   1.080
  868HOH      O 2790   2.889   0.998   0.823
  868HOH     H1 2791   2.809   1.032   0.784
  868HOH     H2 2792   2.954   1.067   0.808
  869HOH      O 2793   2.325   0.736   2.482
  869HOH     H1 2794   2.266   0.688   2.539
  869HOH     H2 2795   2.405   0.683   2.480
  870HOH      O 2796   3.883   1.841   1.809
  870HOH     H1 2797   3.867   1.933   1.829
  870HOH     H2 2798   3.917   1.804   1.890
  871HOH      O 2799   0.435   2.161   3.153
  871HOH     H1 2800   0.495   2.215   3.204
  871HOH     H2 2801   0.389   2.223   3.096
  872HOH      O 2802   3.007   1.424   3.313
  872HOH     H1 2803   2.994   1.407   3.406
  872HOH     H2 2804   2.945   1.364   3.269
  873HOH      O 2805   3.396   3.750   1.837
  873HOH     H1 2806   3.437   3.830   1.805
  873HOH     H2 2807   3.434   3.681   1.783
  874HOH      O 2808   3.847   1.409   0.081
  874HOH     H1 2809   3.849   1.504   0.086
  874HOH     H2 2810   3.776   1.383   0.139
  875HOH      O 2811   2.761   0.459   3.662
  875HOH     H1 2812   2.766   0.368   3.634
  875HOH     H2 2813   2.845   0.477   3.703
  876HOH      O 2814   0.867   3.110   2.250
  876HOH     H1 2815   0.949   3.103   2.298
  876HOH     H2 2816   0.800   3.082   2.312
  877HOH      O 2817   2.393   2.998   0.465
  877HOH     H1 2818   2.428   3.084   0.441
  877HOH     H2 2819   2.326   2.981   0.399
  878HOH      O 2820   2.204   0.306   3.523
  878HOH     H1 2821   2.204   0.251   3.601
  878HOH     H2 2822   2.135   0.269   3.468
  879HOH      O 2823   1.682   1.175   1.418
  879HOH     H1 2824   1.717   1.115   1.485
  879HOH     H2 2825   1.679   1.122   1.338
  880HOH      O 2826   2.961   1.585   3.945
  880HOH     H1 2827   2.911   1.532   3.883
  880HOH     H2 2828   3.039   1.532   3.964
  881HOH      O 2829   3.004   0.949   0.306
  881HOH     H1 2830   3.022   0.913   0.219
  881HOH     H2 2831   3.019   1.043   0.297
  882HOH      O 2832   0.245   1.292   3.268
  882HOH     H1 2833   0.167   1.251   3.307
  882HOH     H2 2834   0.210   1.359   3.210
  883HOH      O 2835   0.154   2.474   1.746
  883HOH     H1 2836   0.197   2.526   1.678
  883HOH     H2 2837   0.061   2.478   1.723
  884HOH      O 2838   0.778   2.123   2.010
  884HOH     H1 2839   0.702   2.158   1.963
  884HOH     H2 2840   0.850   2.131   1.947
  885HOH      O 2841   3.906   1.672   0.084
  885HOH     H1 2842   3.871   1.714   0.162
  885HOH     H2 2843   3.895   1.737   0.015
  886HOH      O 2844   0.444   3.168   2.725
  886HOH     H1 2845   0.370   3.222   2.695
  886HOH     H2 2846   0.405   3.082   2.743
  887HOH      O 2847   3.057   3.266   1.060
  887HOH     H1 2848   3.080   3.234   0.972
  887HOH     H2 2849   3.038   3.186   1.110
  888HOH      O 2850   0.730   1.877   2.108
  888HOH     H1 2851   0.735   1.969   2.083
  888HOH     H2 2852   0.642   1.850   2.082
  889HOH      O 2853   2.831   1.761   3.015
  889HOH     H1 2854   2.889   1.725   3.082
  889HOH     H2 2855   2.827   1.855   3.035
  890HOH      O 2856   0.118   3.642   2.429
  890HOH     H1 2857   0.155   3.554   2.428
  890HOH     H2 2858   0.095   3.657   2.520
  891HOH      O 2859   0.152   2.306   3.506
  891HOH     H1 2860   0.227   2.311   3.565
  891HOH     H2 2861   0.137   2.213   3.495
  892HOH      O 2862   2.599   0.560   0.671
  892HOH     H1 2863   2.675   0.597   0.716
  892HOH     H2 2864   2.542   0.635   0.655
  893HOH      O 2865   1.236   3.179   1.652
  893HOH     H1 2866   1.224   3.148   1.742
  893HOH     H2 2867   1.239   3.099   1.599
  894HOH      O 2868   1.639   2.635   3.125
  894HOH     H1 2869   1.642   2.725   3.159
  894HOH     H2 2870   1.670   2.581   3.197
  895HOH      O 2871   1.425   0.057   1.693
  895HOH     H1 2872   1.411   0.151   1.675
  895HOH     H2 2873   1.336   0.021   1.701
  896HOH      O 2874   0.659   0.826   3.143
  896HOH     H1 2875   0.662   0.736   3.178
  896HOH     H2 2876   0.715   0.824   3.066
  897HOH      O 2877   3.232   0.186   2.261
  897HOH     H1 2878   3.313   0.135   2.257
  897HOH     H2 2879   3.233   0.238   2.180
  898HOH      O 2880   1.860   2.311   3.388
  898HOH     H1 2881   1.949   2.334   3.416
  898HOH     H2 2882   1.868   2.222   3.355
  899HOH      O 2883   2.324   3.450   3.087
  899HOH     H1 2884   2.344   3.535   3.048
  899HOH     H2 2885   2.343   3.387   3.017
  900HOH      O 2886   0.592   1.710   2.972
  900HOH     H1 2887   0.648   1.771   3.020
  900HOH     H2 2888   0.576   1.752   2.888
  901HOH      O 2889   2.491   2.624   2.433
  901HOH     H1 2890   2.477   2.668   2.349
  901HOH     H2 2891   2.424   2.557   2.437
  902HOH      O 2892   1.788   2.633   0.170
  902HOH     H1 2893   1.721   2.570   0.144
  902HOH     H2 2894   1.774   2.646   0.264
  903HOH      O 2895   0.750   1.979   0.991
  903HOH     H1 2896   0.787   1.942   0.910
  903HOH     H2 2897   0.743   1.904   1.050
  904HOH      O 2898   3.395   0.927   3.088
  904HOH     H1 2899   3.489   0.927   3.069
  904HOH     H2 2900   3.384   0.994   3.155
  905HOH      O 2901   1.777   1.877   0.455
  905HOH     H1 2902   1.722   1.906   0.383
  905HOH     H2 2903   1.862   1.919   0.439
  906HOH      O 2904   0.093   2.493   2.729
  906HOH     H1 2905   0.179   2.523   2.756
  906HOH     H2 2906   0.110   2.423   2.667
  907HOH      O 2907   1.528   1.242   3.610
  907HOH     H1 2908   1.457   1.300   3.581
  907HOH     H2 2909   1.485   1.176   3.664
  908HOH      O 2910   0.409   0.725   1.694
  908HOH     H1 2911   0.471   0.653   1.692
  908HOH     H2 2912   0.432   0.775   1.773
  909HOH      O 2913   3.625   3.804   2.149
  909HOH     H1 2914   3.599   3.738   2.085
  909HOH     H2 2915   3.647   3.753   2.227
  910HOH      O 2916   1.031   2.610   2.163
  910HOH     H1 2917   1.003   2.693   2.125
  910HOH     H2 2918   1.054   2.631   2.253
  911HOH      O 2919   1.293   3.891   2.333
  911HOH     H1 2920   1.238   3.878   2.411
  911HOH     H2 2921   1.286   3.808   2.285
  912HOH      O 2922   1.928   0.990   3.602
  912HOH     H1 2923   2.024   0.988   3.595
  912HOH     H2 2924   1.897   0.970   3.514
  913HOH      O 2925   3.938   2.033   3.685
  913HOH     H1 2926   3.888   2.005   3.762
  913HOH     H2 2927   4.030   2.022   3.711
  914HOH      O 2928   1.306   0.034   3.404
  914HOH     H1 2929   1.346   0.037   3.491
  914HOH     H2 2930   1.362  -0.026   3.354
  915HOH      O 2931   0.749   1.908   1.420
  915HOH     H1 2932   0.701   1.987   1.394
  915HOH     H2 2933   0.682   1.840   1.424
  916HOH      O 2934   2.167   2.838   2.878
  916HOH     H1 2935   2.183   2.750   2.844
  916HOH     H2 2936   2.109   2.825   2.953
  917HOH      O 2937   1.060   0.866   1.964
  917HOH     H1 2938   1.081   0.781   1.926
  917HOH     H2 2939   0.968   0.859   1.991
  918HOH      O 2940   0.531   0.734   2.557
  918HOH     H1 2941   0.603   0.672   2.546
  918HOH     H2 2942   0.535   0.759   2.650
  919HOH      O 2943   1.139   2.191   3.681
  919HOH     H1 2944   1.120   2.170   3.589
  919HOH     H2 2945   1.230   2.219   3.681
  920HOH      O 2946   0.915   0.144   1.793
  920HOH     H1 2947   0.997   0.183   1.763
  920HOH     H2 2948   0.941   0.086   1.865
  921HOH      O 2949   2.912   0.214   1.530
  921HOH     H1 2950   2.959   0.198   1.611
  921HOH     H2 2951   2.904   0.127   1.489
  922HOH      O 2952   1.030   0.596   2.569
  922HOH     H1 2953   1.108   0.542   2.560
  922HOH     H2 2954   1.036   0.660   2.499
  923HOH      O 2955   2.709   2.443   2.562
  923HOH     H1 2956   2.663   2.359   2.560
  923HOH     H2 2957   2.648   2.505   2.523
  924HOH      O 2958   2.095   0.258   0.916
  924HOH     H1 2959   2.017   0.260   0.971
  924HOH     H2 2960   2.168   0.274   0.976
  925HOH      O 2961   2.571   1.673   3.611
  925HOH     H1 2962   2.623   1.671   3.530
  925HOH     H2 2963   2.510   1.746   3.598
  926HOH      O 2964   1.252   2.537   3.957
  926HOH     H1 2965   1.249   2.571   4.046
  926HOH     H2 2966   1.343   2.548   3.930
  927HOH      O 2967   1.289   0.139   1.361
  927HOH     H1 2968   1.238   0.086   1.423
  927HOH     H2 2969   1.226   0.164   1.294
  928HOH      O 2970   2.281   2.691   2.594
  928HOH     H1 2971   2.327   2.621   2.641
  928HOH     H2 2972   2.351   2.738   2.547
  929HOH      O 2973   0.413   2.940   1.061
  929HOH     H1 2974   0.475   2.936   0.989
  929HOH     H2 2975   0.384   3.032   1.062
  930HOH      O 2976   0.725   3.694   1.574
  930HOH     H1 2977   0.781   3.618   1.559
  930HOH     H2 2978   0.645   3.658   1.611
  931HOH      O 2979   1.166   3.878   3.903
  931HOH     H1 2980   1.156   3.846   3.814
  931HOH     H2 2981   1.135   3.969   3.900
  932HOH      O 2982   1.677   2.879   3.258
  932HOH     H1 2983   1.668   2.963   3.213
  932HOH     H2 2984   1.635   2.892   3.343
  933HOH      O 2985   1.089   2.631   3.746
  933HOH     H1 2986   1.067   2.706   3.801
  933HOH     H2 2987   1.125   2.566   3.807
  934HOH      O 2988   3.337   3.454   0.849
  934HOH     H1 2989   3.248   3.420   0.858
  934HOH     H2 2990   3.331   3.517   0.777
  935HOH      O 2991   0.093   1.737   1.193
  935HOH     H1 2992   0.117   1.800   1.261
  935HOH     H2 2993   0.033   1.784   1.136
  936HOH      O 2994   3.233   1.863   1.085
  936HOH     H1 2995   3.254   1.858   1.178
  936HOH     H2 2996   3.197   1.777   1.063
  937HOH      O 2997   1.775   0.341   1.515
  937HOH     H1 2998   1.753   0.252   1.542
  937HOH     H2 2999   1.703   0.395   1.549
  938HOH      O 3000   3.145   3.218   1.733
  938HOH     H1 3001   3.188   3.221   1.648
  938HOH     H2 3002   3.201   3.271   1.790
  939HOH      O 3003   0.612   0.287   0.613
  939HOH     H1 3004   0.620   0.272   0.707
  939HOH     H2 3005   0.529   0.333   0.603
  940HOH      O 3006   2.354   0.017   0.953
  940HOH     H1 3007   2.422  -0.049   0.947
  940HOH     H2 3008   2.400   0.100   0.946
  941HOH      O 3009   2.718   1.945   3.658
  941HOH     H1 3010   2.742   1.913   3.571
  941HOH     H2 3011   2.795   1.993   3.687
  942HOH      O 3012   0.071   3.784   3.812
  942HOH     H1 3013   0.153   3.736   3.801
  942HOH     H2 3014   0.018   3.728   3.870
  943HOH      O 3015   3.208   2.518   0.959
  943HOH     H1 3016   3.212   2.424   0.973
  943HOH     H2 3017   3.137   2.530   0.895
  944HOH      O 3018   2.462   1.216   2.360
  944HOH     H1 3019   2.540   1.257   2.324
  944HOH     H2 3020   2.452   1.255   2.447
  945HOH      O 3021   3.015   2.011   1.456
  945HOH     H1 3022   3.062   2.094   1.455
  945HOH     H2 3023   2.959   2.015   1.379
  946HOH      O 3024   0.212   2.271   1.531
  946HOH     H1 3025   0.235   2.361   1.509
  946HOH     H2 3026   0.119   2.274   1.553
  947HOH      O 3027   2.341   1.153   3.452
  947HOH     H1 3028   2.363   1.244   3.471
  947HOH     H2 3029   2.414   1.121   3.399
  948HOH      O 3030   2.126   3.864   1.489
  948HOH     H1 3031   2.164   3.856   1.577
  948HOH     H2 3032   2.164   3.944   1.454
  949HOH      O 3033   2.566   1.939   2.991
  949HOH     H1 3034   2.636   2.004   2.979
  949HOH     H2 3035   2.533   1.923   2.902
  950HOH      O 3036   2.606   1.951   2.157
  950HOH     H1 3037   2.701   1.941   2.164
  950HOH     H2 3038   2.584   1.906   2.075
  951HOH      O 3039   2.284   2.850   3.585
  951HOH     H1 3040   2.380   2.851   3.588
  951HOH     H2 3041   2.257   2.845   3.676
  952HOH      O 3042   1.589   2.248   1.854
  952HOH     H1 3043   1.572   2.262   1.761
  952HOH     H2 3044   1.651   2.175   1.856
  953HOH      O 3045   1.744   2.038   3.216
  953HOH     H1 3046   1.706   2.014   3.301
  953HOH     H2 3047   1.705   2.123   3.196
  954HOH      O 3048   3.814   1.888   0.266
  954HOH     H1 3049   3.750   1.916   0.200
  954HOH     H2 3050   3.761   1.859   0.340
  955HOH      O 3051   0.758   3.249   0.269
  955HOH     H1 3052   0.766   3.158   0.298
  955HOH     H2 3053   0.827   3.258   0.203
  956HOH      O 3054   1.154   3.618   2.768
  956HOH     H1 3055   1.208   3.697   2.775
  956HOH     H2 3056   1.184   3.563   2.841
  957HOH      O 3057   3.109   0.564   3.387
  957HOH     H1 3058   3.075   0.475   3.384
  957HOH     H2 3059   3.131   0.585   3.296
  958HOH      O 3060   3.819   3.548   1.449
  958HOH     H1 3061   3.825   3.479   1.514
  958HOH     H2 3062   3.745   3.524   1.394
  959HOH      O 3063   3.603   3.601   0.905
  959HOH     H1 3064   3.545   3.630   0.975
  959HOH     H2 3065   3.558   3.526   0.866
  960HOH      O 3066   1.210   3.724   2.049
  960HOH     H1 3067   1.266   3.786   2.002
  960HOH     H2 3068   1.147   3.694   1.984
  961HOH      O 3069   3.115   3.406   0.018
  961HOH     H1 3070   3.168   3.371  -0.054
  961HOH     H2 3071   3.152   3.492   0.037
  962HOH      O 3072   4.033   3.708   2.689
  962HOH     H1 3073   4.096   3.770   2.728
  962HOH     H2 3074   3.952   3.758   2.684
  963HOH      O 3075   2.968   1.844   3.925
  963HOH     H1 3076   2.954   1.749   3.923
  963HOH     H2 3077   3.060   1.854   3.951
  964HOH      O 3078   0.557   1.062   1.047
  964HOH     H1 3079   0.573   1.141   1.099
  964HOH     H2 3080   0.463   1.048   1.053
  965HOH      O 3081   3.596   3.462   0.611
  965HOH     H1 3082   3.510   3.456   0.653
  965HOH     H2 3083   3.603   3.554   0.586
  966HOH      O 3084   1.849   3.738   1.950
  966HOH     H1 3085   1.791   3.772   2.018
  966HOH     H2 3086   1.878   3.653   1.984
  967HOH      O 3087   2.520   1.107   0.916
  967HOH     H1 3088   2.523   1.091   0.822
  967HOH     H2 3089   2.427   1.118   0.936
  968HOH      O 3090   2.987   2.087   0.648
  968HOH     H1 3091   3.047   2.040   0.706
  968HOH     H2 3092   2.924   2.128   0.708
  969HOH      O 3093   0.834   0.776   0.790
  969HOH     H1 3094   0.811   0.777   0.883
  969HOH     H2 3095   0.917   0.727   0.786
  970HOH      O 3096   1.192   1.706   1.627
  970HOH     H1 3097   1.208   1.798   1.648
  970HOH     H2 3098   1.098   1.694   1.637
  971HOH      O 3099   1.206   0.451   0.492
  971HOH     H1 3100   1.190   0.528   0.437
  971HOH     H2 3101   1.295   0.464   0.526
  972HOH      O 3102   3.648   2.592   2.241
  972HOH     H1 3103   3.656   2.631   2.328
  972HOH     H2 3104   3.725   2.621   2.194
  973HOH      O 3105   2.111   3.741   0.047
  973HOH     H1 3106   2.059   3.661   0.045
  973HOH     H2 3107   2.103   3.778  -0.041
  974HOH      O 3108   0.299   1.559   0.901
  974HOH     H1 3109   0.322   1.467   0.888
  974HOH     H2 3110   0.208   1.556   0.930
  975HOH      O 3111   1.790   2.886   2.849
  975HOH     H1 3112   1.725   2.949   2.881
  975HOH     H2 3113   1.858   2.887   2.916
  976HOH      O 3114   1.366   2.656   1.409
  976HOH     H1 3115   1.457   2.654   1.379
  976HOH     H2 3116   1.316   2.687   1.334
  977HOH      O 3117   0.684   0.558   3.147
  977HOH     H1 3118   0.656   0.515   3.067
  977HOH     H2 3119   0.722   0.488   3.200
  978HOH      O 3120   2.365   3.641   1.612
  978HOH     H1 3121   2.353   3.585   1.689
  978HOH     H2 3122   2.328   3.726   1.638
  979HOH      O 3123   3.760   1.350   2.500
  979HOH     H1 3124   3.707   1.408   2.553
  979HOH     H2 3125   3.698   1.312   2.437
  980HOH      O 3126   3.911   0.298   1.814
  980HOH     H1 3127   3.897   0.390   1.790
  980HOH     H2 3128   3.984   0.270   1.759
  981HOH      O 3129   0.988   1.184   3.915
  981HOH     H1 3130   0.942   1.227   3.843
  981HOH     H2 3131   1.061   1.138   3.873
  982HOH      O 3132   1.804   1.749   1.416
  982HOH     H1 3133   1.884   1.788   1.382
  982HOH     H2 3134   1.832   1.697   1.491
  983HOH      O 3135   2.190   0.963   3.555
  983HOH     H1 3136   2.244   0.884   3.549
  983HOH     H2 3137   2.248   1.033   3.525
  984HOH      O 3138   0.701   2.112  -0.027
  984HOH     H1 3139   0.714   2.207  -0.033
  984HOH     H2 3140   0.678   2.097   0.065
  985HOH      O 3141   3.388   1.320   3.860
  985HOH     H1 3142   3.400   1.280   3.774
  985HOH     H2 3143   3.474   1.359   3.881
  986HOH      O 3144   2.460   1.362   2.580
  986HOH     H1 3145   2.474   1.294   2.646
  986HOH     H2 3146   2.387   1.414   2.613
  987HOH      O 3147   1.218   3.514   4.029
  987HOH     H1 3148   1.170   3.531   3.948
  987HOH     H2 3149   1.280   3.586   4.036
  988HOH      O 3150   0.068   3.002   2.697
  988HOH     H1 3151  -0.012   3.021   2.649
  988HOH     H2 3152   0.056   3.046   2.782
  989HOH      O 3153   1.635   3.878   1.399
  989HOH     H1 3154   1.559   3.868   1.457
  989HOH     H2 3155   1.611   3.829   1.320
  990HOH      O 3156   1.017   0.598   0.116
  990HOH     H1 3157   0.958   0.623   0.045
  990HOH     H2 3158   1.015   0.672   0.176
  991HOH      O 3159   0.528   3.268   1.568
  991HOH     H1 3160   0.498   3.182   1.595
  991HOH     H2 3161   0.448   3.321   1.564
  992HOH      O 3162   3.650   2.753   0.600
  992HOH     H1 3163   3.666   2.844   0.575
  992HOH     H2 3164   3.703   2.740   0.678
  993HOH      O 3165   3.062   0.051   2.922
  993HOH     H1 3166   3.034   0.133   2.963
  993HOH     H2 3167   2.993  -0.011   2.944
  994HOH      O 3168   0.952   2.896   1.084
  994HOH     H1 3169   1.025   2.893   1.023
  994HOH     H2 3170   0.883   2.843   1.043
  995HOH      O 3171   2.939   1.982   2.519
  995HOH     H1 3172   3.031   1.963   2.537
  995HOH     H2 3173   2.890   1.926   2.580
  996HOH      O 3174   3.047   1.340   1.332
  996HOH     H1 3175   3.004   1.424   1.320
  996HOH     H2 3176   3.121   1.358   1.390
  997HOH      O 3177   2.193   1.824   1.909
  997HOH     H1 3178   2.196   1.732   1.881
  997HOH     H2 3179   2.222   1.821   2.001
  998HOH      O 3180   3.407   1.028   0.225
  998HOH     H1 3181   3.498   1.041   0.250
  998HOH     H2 3182   3.373   0.964   0.288
  999HOH      O 3183   0.925   3.737   2.127
  999HOH     H1 3184   0.898   3.709   2.215
  999HOH     H2 3185   1.021   3.739   2.131
 1000HOH      O 3186   0.259   0.466   1.038
 1000HOH     H1 3187   0.270   0.496   1.128
 1000HOH     H2 3188   0.329   0.509   0.990
 1001HOH      O 3189   1.405   3.399   1.777
 1001HOH     H1 3190   1.484   3.452   1.794
 1001HOH     H2 3191   1.397   3.399   1.682
 1002HOH      O 3192   2.427   0.949   4.009
 1002HOH     H1 3193   2.484   1.001   3.952
 1002HOH     H2 3194   2.384   0.887   3.949
 1003HOH      O 3195   2.319   1.535   0.438
 1003HOH     H1 3196   2.346   1.468   0.501
 1003HOH     H2 3197   2.245   1.496   0.392
 1004HOH      O 3198   0.117   0.969   3.121
 1004HOH     H1 3199   0.118   1.034   3.191
 1004HOH     H2 3200   0.191   0.911   3.141
 1005HOH      O 3201   3.114   1.105   0.712
 1005HOH     H1 3202   3.081   1.146   0.632
 1005HOH     H2 3203   3.195   1.151   0.731
 1006HOH      O 3204   0.908   1.556   1.228
 1006HOH     H1 3205   0.982   1.609   1.199
 1006HOH     H2 3206   0.877   1.513   1.149
 1007HOH      O 3207   2.924   1.601   0.239
 1007HOH     H1 3208   2.882   1.678   0.275
 1007HOH     H2 3209   2.901   1.602   0.146
 1008HOH      O 3210   3.225   3.863   3.296
 1008HOH     H1 3211   3.220   3.892   3.205
 1008HOH     H2 3212   3.187   3.775   3.295
 1009HOH      O 3213   2.119   3.977   0.327
 1009HOH     H1 3214   2.053   3.983   0.396
 1009HOH     H2 3215   2.140   3.884   0.322
 1010HOH      O 3216   3.020   1.268   2.155
 1010HOH     H1 3217   2.973   1.350   2.169
 1010HOH     H2 3218   2.952   1.204   2.135
 1011HOH      O 3219   2.853   3.184   4.018
 1011HOH     H1 3220   2.928   3.131   4.045
 1011HOH     H2 3221   2.881   3.224   3.936
 1012HOH      O 3222   2.110   0.222   1.594
 1012HOH     H1 3223   2.083   0.309   1.567
 1012HOH     H2 3224   2.030   0.180   1.624
 1013HOH      O 3225   2.444   3.461   3.320
 1013HOH     H1 3226   2.414   3.450   3.230
 1013HOH     H2 3227   2.483   3.376   3.342
 1014HOH      O 3228   1.829   3.626   3.456
 1014HOH     H1 3229   1.806   3.718   3.440
 1014HOH     H2 3230   1.860   3.624   3.546
 1015HOH      O 3231   2.158   1.915   1.602
 1015HOH     H1 3232   2.176   1.831   1.644
 1015HOH     H2 3233   2.149   1.976   1.675
 1016HOH      O 3234   0.315   2.717   3.385
 1016HOH     H1 3235   0.247   2.660   3.349
 1016HOH     H2 3236   0.280   2.806   3.372
 1017HOH      O 3237   0.143   1.227   2.786
 1017HOH     H1 3238   0.230   1.266   2.800
 1017HOH     H2 3239   0.084   1.302   2.779
 1018HOH      O 3240   2.327   0.118   1.440
 1018HOH     H1 3241   2.388   0.187   1.415
 1018HOH     H2 3242   2.265   0.161   1.500
 1019HOH      O 3243   3.887   0.449   3.952
 1019HOH     H1 3244   3.834   0.379   3.912
 1019HOH     H2 3245   3.849   0.462   4.038
 1020HOH      O 3246   0.511   2.804   2.552
 1020HOH     H1 3247   0.535   2.712   2.541
 1020HOH     H2 3248   0.427   2.802   2.597
 1021HOH      O 3249   1.615   3.769   0.871
 1021HOH     H1 3250   1.660   3.842   0.914
 1021HOH     H2 3251   1.683   3.705   0.853
 1022HOH      O 3252   1.057   2.837   0.003
 1022HOH     H1 3253   0.987   2.894   0.034
 1022HOH     H2 3254   1.061   2.767   0.069
 1023HOH      O 3255   0.455   1.068   0.659
 1023HOH     H1 3256   0.379   1.052   0.716
 1023HOH     H2 3257   0.525   1.017   0.698
 1024HOH      O 3258   0.535   0.466   0.873
 1024HOH     H1 3259   0.517   0.542   0.928
 1024HOH     H2 3260   0.526   0.498   0.783
 1025HOH      O 3261   2.946   1.292   1.068
 1025HOH     H1 3262   2.881   1.225   1.090
 1025HOH     H2 3263   2.986   1.315   1.152
 1026HOH      O 3264   1.470   3.341   0.915
 1026HOH     H1 3265   1.432   3.408   0.971
 1026HOH     H2 3266   1.461   3.260   0.964
 1027HOH      O 3267   2.804   3.827   2.139
 1027HOH     H1 3268   2.769   3.819   2.228
 1027HOH     H2 3269   2.851   3.910   2.140
 1028HOH      O 3270   0.565   1.209   2.495
 1028HOH     H1 3271   0.659   1.193   2.497
 1028HOH     H2 3272   0.555   1.289   2.444
 1029HOH      O 3273   3.005   1.215   0.497
 1029HOH     H1 3274   3.045   1.294   0.461
 1029HOH     H2 3275   2.925   1.203   0.447
 1030HOH      O 3276   3.858   3.900   2.578
 1030HOH     H1 3277   3.872   3.993   2.561
 1030HOH     H2 3278   3.890   3.855   2.500
 1031HOH      O 3279   0.148   1.526   0.364
 1031HOH     H1 3280   0.200   1.606   0.357
 1031HOH     H2 3281   0.057   1.556   0.357
 1032HOH      O 3282   3.404   2.213   3.537
 1032HOH     H1 3283   3.335   2.159   3.498
 1032HOH     H2 3284   3.460   2.238   3.464
 1033HOH      O 3285   3.239   0.240   2.598
 1033HOH     H1 3286   3.208   0.313   2.545
 1033HOH     H2 3287   3.285   0.281   2.671
 1034HOH      O 3288   1.952   2.448   1.155
 1034HOH     H1 3289   1.967   2.409   1.241
 1034HOH     H2 3290   2.039   2.462   1.119
 1035HOH      O 3291   3.527   2.096   2.769
 1035HOH     H1 3292   3.558   2.173   2.720
 1035HOH     H2 3293   3.577   2.098   2.850
 1036HOH      O 3294   2.516   0.513   3.582
 1036HOH     H1 3295   2.609   0.514   3.604
 1036HOH     H2 3296   2.508   0.448   3.513
 1037HOH      O 3297   2.236   0.615   0.883
 1037HOH     H1 3298   2.166   0.622   0.948
 1037HOH     H2 3299   2.317   0.615   0.934
 1038HOH      O 3300   2.593   2.821   0.533
 1038HOH     H1 3301   2.545   2.898   0.503
 1038HOH     H2 3302   2.667   2.814   0.473
 1039HOH      O 3303   1.042   2.184   1.226
 1039HOH     H1 3304   0.996   2.152   1.303
 1039HOH     H2 3305   1.130   2.205   1.257
 1040HOH      O 3306   3.664   1.216   3.721
 1040HOH     H1 3307   3.622   1.154   3.662
 1040HOH     H2 3308   3.707   1.162   3.787
 1041HOH      O 3309   2.787   1.811   0.272
 1041HOH     H1 3310   2.698   1.783   0.295
 1041HOH     H2 3311   2.818   1.858   0.350
 1042HOH      O 3312   3.705   3.988   2.940
 1042HOH     H1 3313   3.754   3.993   3.022
 1042HOH     H2 3314   3.755   4.042   2.879
 1043HOH      O 3315   2.584   3.454   1.848
 1043HOH     H1 3316   2.538   3.391   1.792
 1043HOH     H2 3317   2.524   3.469   1.921
 1044HOH      O 3318   2.951   3.768   0.473
 1044HOH     H1 3319   2.858   3.748   0.489
 1044HOH     H2 3320   2.964   3.853   0.515
 1045HOH      O 3321   3.403   3.023   2.415
 1045HOH     H1 3322   3.484   3.051   2.374
 1045HOH     H2 3323   3.396   3.076   2.495
 1046HOH      O 3324   0.260   0.020   0.729
 1046HOH     H1 3325   0.290  -0.071   0.725
 1046HOH     H2 3326   0.328   0.066   0.778
 1047HOH      O 3327   0.396   0.457   1.287
 1047HOH     H1 3328   0.423   0.378   1.240
 1047HOH     H2 3329   0.453   0.526   1.254
 1048HOH      O 3330   3.636   2.258   1.181
 1048HOH     H1 3331   3.675   2.183   1.137
 1048HOH     H2 3332   3.710   2.317   1.196
 1049HOH      O 3333   2.382   2.272   1.071
 1049HOH     H1 3334   2.424   2.246   1.152
 1049HOH     H2 3335   2.327   2.198   1.047
 1050HOH      O 3336   2.934   0.412   2.422
 1050HOH     H1 3337   2.978   0.440   2.342
 1050HOH     H2 3338   2.849   0.380   2.392
 1051HOH      O 3339   1.803   2.508   1.780
 1051HOH     H1 3340   1.718   2.510   1.823
 1051HOH     H2 3341   1.791   2.449   1.706
 1052HOH      O 3342  -0.000   3.035   3.285
 1052HOH     H1 3343  -0.038   2.991   3.361
 1052HOH     H2 3344   0.055   2.969   3.243
 1053HOH      O 3345   0.208   2.013   0.933
 1053HOH     H1 3346   0.237   1.959   0.860
 1053HOH     H2 3347   0.287   2.028   0.984
 1054HOH      O 3348   0.806   2.992   0.336
 1054HOH     H1 3349   0.723   2.953   0.308
 1054HOH     H2 3350   0.827   2.946   0.417
 1055HOH      O 3351   3.715   1.242   2.233
 1055HOH     H1 3352   3.786   1.178   2.243
 1055HOH     H2 3353   3.708   1.255   2.139
 1056HOH      O 3354   3.353   1.891   3.594
 1056HOH     H1 3355   3.276   1.917   3.545
 1056HOH     H2 3356   3.345   1.936   3.678
 1057HOH      O 3357   3.605   0.375   2.275
 1057HOH     H1 3358   3.686   0.423   2.260
 1057HOH     H2 3359   3.542   0.416   2.216
 1058HOH      O 3360   1.256   1.628   0.061
 1058HOH     H1 3361   1.287   1.687  -0.008
 1058HOH     H2 3362   1.312   1.550   0.053
 1059HOH      O 3363   0.464   1.773   2.489
 1059HOH     H1 3364   0.423   1.838   2.432
 1059HOH     H2 3365   0.556   1.798   2.493
 1060HOH      O 3366   2.156   0.749   0.071
 1060HOH     H1 3367   2.138   0.696   0.149
 1060HOH     H2 3368   2.135   0.692  -0.003
 1061HOH      O 3369   3.376   3.190   0.700
 1061HOH     H1 3370   3.364   3.273   0.747
 1061HOH     H2 3371   3.320   3.197   0.623
 1062HOH      O 3372   2.238   1.535   3.725
 1062HOH     H1 3373   2.317   1.580   3.755
 1062HOH     H2 3374   2.217   1.576   3.641
 1063HOH      O 3375   0.145   1.095   2.488
 1063HOH     H1 3376   0.162   1.152   2.563
 1063HOH     H2 3377   0.177   1.009   2.515
 1064HOH      O 3378   2.579   2.801   1.248
 1064HOH     H1 3379   2.552   2.882   1.205
 1064HOH     H2 3380   2.524   2.796   1.326
 1065HOH      O 3381   3.963   1.425   1.926
 1065HOH     H1 3382   4.016   1.433   2.005
 1065HOH     H2 3383   4.001   1.488   1.865
 1066HOH      O 3384   1.034   2.073   2.199
 1066HOH     H1 3385   1.038   2.061   2.104
 1066HOH     H2 3386   1.016   1.986   2.233
 1067HOH      O 3387   1.274   2.631   0.191
 1067HOH     H1 3388   1.325   2.711   0.197
 1067HOH     H2 3389   1.194   2.649   0.240
 1068HOH      O 3390   1.762   2.649   0.813
 1068HOH     H1 3391   1.723   2.574   0.768
 1068HOH     H2 3392   1.764   2.717   0.746
 1069HOH      O 3393   1.164   0.825   3.933
 1069HOH     H1 3394   1.214   0.838   3.853
 1069HOH     H2 3395   1.106   0.751   3.915
 1070HOH      O 3396   3.270   3.827   2.703
 1070HOH     H1 3397   3.208   3.895   2.679
 1070HOH     H2 3398   3.324   3.867   2.771
 1071HOH      O 3399   1.650   1.157   1.845
 1071HOH     H1 3400   1.596   1.079   1.835
 1071HOH     H2 3401   1.607   1.223   1.792
 1072HOH      O 3402   3.962   0.450   0.575
 1072HOH     H1 3403   4.027   0.428   0.508
 1072HOH     H2 3404   4.005   0.515   0.630
 1073HOH      O 3405   2.377   3.914   3.258
 1073HOH     H1 3406   2.464   3.874   3.259
 1073HOH     H2 3407   2.379   3.978   3.329
 1074HOH      O 3408   1.598   0.554   2.020
 1074HOH     H1 3409   1.531   0.605   2.065
 1074HOH     H2 3410   1.614   0.601   1.938
 1075HOH      O 3411   3.132   3.141   2.085
 1075HOH     H1 3412   3.214   3.181   2.115
 1075HOH     H2 3413   3.105   3.085   2.158
 1076HOH      O 3414   0.424   2.879   3.619
 1076HOH     H1 3415   0.397   2.947   3.680
 1076HOH     H2 3416   0.492   2.831   3.665
 1077HOH      O 3417   0.410   1.494   2.564
 1077HOH     H1 3418   0.398   1.588   2.559
 1077HOH     H2 3419   0.328   1.457   2.530
 1078HOH      O 3420   2.034   3.754   3.600
 1078HOH     H1 3421   2.094   3.723   3.531
 1078HOH     H2 3422   1.974   3.813   3.555
 1079HOH      O 3423   3.340   0.821   0.393
 1079HOH     H1 3424   3.359   0.729   0.410
 1079HOH     H2 3425   3.273   0.843   0.459
 1080HOH      O 3426   2.831   0.720   0.744
 1080HOH     H1 3427   2.842   0.723   0.649
 1080HOH     H2 3428   2.838   0.812   0.771
 1081HOH      O 3429   2.262   1.033   0.512
 1081HOH     H1 3430   2.213   1.008   0.434
 1081HOH     H2 3431   2.236   0.970   0.579
 1082HOH      O 3432   3.633   1.237   2.844
 1082HOH     H1 3433   3.543   1.227   2.815
 1082HOH     H2 3434   3.682   1.257   2.764
 1083HOH      O 3435   2.528   3.890   2.102
 1083HOH     H1 3436   2.544   3.795   2.104
 1083HOH     H2 3437   2.609   3.929   2.134
 1084HOH      O 3438   0.853   1.226   2.819
 1084HOH     H1 3439   0.763   1.203   2.840
 1084HOH     H2 3440   0.890   1.259   2.901
 1085HOH      O 3441   3.311   2.952   2.786
 1085HOH     H1 3442   3.333   3.041   2.759
 1085HOH     H2 3443   3.381   2.898   2.749
 1086HOH      O 3444   3.043   2.808   3.864
 1086HOH     H1 3445   3.093   2.762   3.796
 1086HOH     H2 3446   2.959   2.827   3.823
 1087HOH      O 3447   2.228   3.492   1.784
 1087HOH     H1 3448   2.172   3.470   1.859
 1087HOH     H2 3449   2.167   3.513   1.714
 1088HOH      O 3450   3.334   2.726   2.155
 1088HOH     H1 3451   3.324   2.694   2.244
 1088HOH     H2 3452   3.269   2.678   2.104
 1089HOH      O 3453   1.279   1.283   1.296
 1089HOH     H1 3454   1.221   1.300   1.370
 1089HOH     H2 3455   1.220   1.250   1.228
 1090HOH      O 3456   2.880   2.612   3.023
 1090HOH     H1 3457   2.817   2.666   3.072
 1090HOH     H2 3458   2.966   2.640   3.054
 1091HOH      O 3459   0.310   1.729   0.296
 1091HOH     H1 3460   0.309   1.825   0.293
 1091HOH     H2 3461   0.305   1.703   0.204
 1092HOH      O 3462   0.636   1.203  -0.011
 1092HOH     H1 3463   0.659   1.137   0.054
 1092HOH     H2 3464   0.551   1.236   0.017
 1093HOH      O 3465   3.158   2.667   1.731
 1093HOH     H1 3466   3.200   2.747   1.762
 1093HOH     H2 3467   3.155   2.610   1.809
 1094HOH      O 3468   2.265   1.588   1.358
 1094HOH     H1 3469   2.350   1.558   1.389
 1094HOH     H2 3470   2.281   1.677   1.327
 1095HOH      O 3471   1.274   2.547   0.990
 1095HOH     H1 3472   1.186   2.578   0.969
 1095HOH     H2 3473   1.304   2.605   1.059
 1096HOH      O 3474   2.428   0.339   3.372
 1096HOH     H1 3475   2.412   0.366   3.281
 1096HOH     H2 3476   2.340   0.325   3.408
 1097HOH      O 3477   1.772   1.010   1.617
 1097HOH     H1 3478   1.801   0.936   1.671
 1097HOH     H2 3479   1.760   1.082   1.679
 1098HOH      O 3480   3.409   0.201   3.541
 1098HOH     H1 3481   3.404   0.281   3.594
 1098HOH     H2 3482   3.335   0.208   3.480
 1099HOH      O 3483   2.504   1.957   2.432
 1099HOH     H1 3484   2.564   2.019   2.472
 1099HOH     H2 3485   2.531   1.952   2.340
 1100HOH      O 3486   3.577   2.323   1.776
 1100HOH     H1 3487   3.601   2.336   1.685
 1100HOH     H2 3488   3.658   2.340   1.825
 1101HOH      O 3489   1.646   1.660   2.159
 1101HOH     H1 3490   1.685   1.715   2.092
 1101HOH     H2 3491   1.559   1.697   2.173
 1102HOH      O 3492   3.803   0.876   1.147
 1102HOH     H1 3493   3.718   0.851   1.111
 1102HOH     H2 3494   3.858   0.799   1.137
 1103HOH      O 3495   3.265   3.057   3.590
 1103HOH     H1 3496   3.302   2.985   3.538
 1103HOH     H2 3497   3.267   3.133   3.531
 1104HOH      O 3498   2.168   3.989   1.171
 1104HOH     H1 3499   2.116   4.057   1.212
 1104HOH     H2 3500   2.214   4.033   1.100
 1105HOH      O 3501   1.651   0.196   0.494
 1105HOH     H1 3502   1.565   0.200   0.451
 1105HOH     H2 3503   1.712   0.172   0.425
 1106HOH      O 3504   2.185   3.512   3.702
 1106HOH     H1 3505   2.221   3.579   3.644
 1106HOH     H2 3506   2.099   3.546   3.727
 1107HOH      O 3507   1.084   3.696   1.201
 1107HOH     H1 3508   1.122   3.634   1.263
 1107HOH     H2 3509   1.087   3.652   1.116
 1108HOH      O 3510   0.385   2.853   1.341
 1108HOH     H1 3511   0.455   2.789   1.324
 1108HOH     H2 3512   0.382   2.907   1.262
 1109HOH      O 3513   2.823   1.564   2.664
 1109HOH     H1 3514   2.744   1.569   2.717
 1109HOH     H2 3515   2.877   1.498   2.708
 1110HOH      O 3516   2.170   2.006   3.417
 1110HOH     H1 3517   2.163   2.082   3.360
 1110HOH     H2 3518   2.133   1.934   3.365
 1111HOH      O 3519   0.590   0.732   1.259
 1111HOH     H1 3520   0.577   0.793   1.332
 1111HOH     H2 3521   0.672   0.687   1.280
 1112HOH      O 3522   1.948   0.986   0.516
 1112HOH     H1 3523   1.951   1.072   0.558
 1112HOH     H2 3524   1.915   1.003   0.428
 1113HOH      O 3525   0.648   3.450   1.029
 1113HOH     H1 3526   0.720   3.507   1.055
 1113HOH     H2 3527   0.572   3.485   1.076
 1114HOH      O 3528   2.142   1.646   3.040
 1114HOH     H1 3529   2.147   1.591   3.118
 1114HOH     H2 3530   2.063   1.617   2.995
 1115HOH      O 3531   2.978   3.944   3.818
 1115HOH     H1 3532   3.016   3.928   3.904
 1115HOH     H2 3533   3.043   3.999   3.773
 1116HOH      O 3534   4.063   1.373   3.970
 1116HOH     H1 3535   3.981   1.390   4.016
 1116HOH     H2 3536   4.037   1.335   3.886
 1117HOH      O 3537   2.093   1.297   1.149
 1117HOH     H1 3538   2.014   1.243   1.144
 1117HOH     H2 3539   2.081   1.349   1.228
 1118HOH      O 3540   2.001   0.661   1.042
 1118HOH     H1 3541   1.991   0.748   1.004
 1118HOH     H2 3542   1.921   0.615   1.017
 1119HOH      O 3543   2.859   1.226   1.629
 1119HOH     H1 3544   2.931   1.176   1.591
 1119HOH     H2 3545   2.899   1.273   1.703
 1120HOH      O 3546   1.082   1.610   0.307
 1120HOH     H1 3547   1.157   1.626   0.249
 1120HOH     H2 3548   1.040   1.532   0.270
 1121HOH      O 3549   3.510   0.748   2.340
 1121HOH     H1 3550   3.458   0.767   2.418
 1121HOH     H2 3551   3.496   0.823   2.282
 1122HOH      O 3552   1.039   3.904   0.602
 1122HOH     H1 3553   1.129   3.877   0.621
 1122HOH     H2 3554   1.032   3.901   0.507
 1123HOH      O 3555   2.822   3.473   3.260
 1123HOH     H1 3556   2.782   3.448   3.343
 1123HOH     H2 3557   2.755   3.525   3.215
 1124HOH      O 3558   1.006   1.765   2.582
 1124HOH     H1 3559   0.918   1.780   2.617
 1124HOH     H2 3560   1.018   1.671   2.589
 1125HOH      O 3561   2.525   1.894   2.715
 1125HOH     H1 3562   2.473   1.817   2.695
 1125HOH     H2 3563   2.588   1.901   2.643
 1126HOH      O 3564   4.025   2.042   2.168
 1126HOH     H1 3565   3.930   2.055   2.169
 1126HOH     H2 3566   4.046   2.014   2.079
 1127HOH      O 3567   2.490   2.293   1.580
 1127HOH     H1 3568   2.428   2.356   1.615
 1127HOH     H2 3569   2.543   2.266   1.655
 1128HOH      O 3570   3.090   1.896   1.928
 1128HOH     H1 3571   3.181   1.871   1.915
 1128HOH     H2 3572   3.085   1.918   2.021
 1129HOH      O 3573   3.083   3.729   0.769
 1129HOH     H1 3574   3.048   3.644   0.794
 1129HOH     H2 3575   3.065   3.736   0.675
 1130HOH      O 3576   1.811   2.730   3.871
 1130HOH     H1 3577   1.844   2.669   3.938
 1130HOH     H2 3578   1.733   2.769   3.911
 1131HOH      O 3579   3.420   3.124   0.103
 1131HOH     H1 3580   3.460   3.211   0.102
 1131HOH     H2 3581   3.452   3.083   0.022
 1132HOH      O 3582   2.558   0.186   1.674
 1132HOH     H1 3583   2.547   0.266   1.726
 1132HOH     H2 3584   2.636   0.145   1.708
 1133HOH      O 3585   2.949   2.710   1.549
 1133HOH     H1 3586   3.002   2.736   1.625
 1133HOH     H2 3587   2.973   2.773   1.481
 1134HOH      O 3588   2.793   0.961   2.975
 1134HOH     H1 3589   2.784   0.872   2.939
 1134HOH     H2 3590   2.845   1.007   2.909
 1135HOH      O 3591   0.746   2.376   3.956
 1135HOH     H1 3592   0.828   2.365   3.908
 1135HOH     H2 3593   0.748   2.467   3.986
 1136HOH      O 3594   0.605   0.508   2.870
 1136HOH     H1 3595   0.653   0.586   2.841
 1136HOH     H2 3596   0.636   0.438   2.813
 1137HOH      O 3597   3.826   0.543   2.286
 1137HOH     H1 3598   3.921   0.543   2.295
 1137HOH     H2 3599   3.805   0.632   2.259
 1138HOH      O 3600   1.178   2.501   2.883
 1138HOH     H1 3601   1.207   2.515   2.793
 1138HOH     H2 3602   1.230   2.562   2.935
 1139HOH      O 3603   1.805   3.562   0.804
 1139HOH     H1 3604   1.840   3.619   0.736
 1139HOH     H2 3605   1.881   3.518   0.841
 1140HOH      O 3606   1.083   3.547   3.794
 1140HOH     H1 3607   1.041   3.477   3.744
 1140HOH     H2 3608   1.092   3.619   3.732
 1141HOH      O 3609   3.263   1.344   3.258
 1141HOH     H1 3610   3.294   1.404   3.325
 1141HOH     H2 3611   3.169   1.360   3.253
 1142HOH      O 3612   3.432   3.408   2.365
 1142HOH     H1 3613   3.391   3.467   2.429
 1142HOH     H2 3614   3.514   3.450   2.342
 1143HOH      O 3615   1.144   4.004   1.527
 1143HOH     H1 3616   1.127   3.968   1.614
 1143HOH     H2 3617   1.099   3.944   1.467
 1144HOH      O 3618   3.640   3.198   1.123
 1144HOH     H1 3619   3.686   3.197   1.039
 1144HOH     H2 3620   3.549   3.216   1.100
 1145HOH      O 3621   0.401   3.530   1.128
 1145HOH     H1 3622   0.385   3.580   1.207
 1145HOH     H2 3623   0.315   3.496   1.103
 1146HOH      O 3624   1.774   2.674   1.097
 1146HOH     H1 3625   1.817   2.589   1.111
 1146HOH     H2 3626   1.804   2.703   1.011
 1147HOH      O 3627   3.101   0.696   1.742
 1147HOH     H1 3628   3.074   0.716   1.653
 1147HOH     H2 3629   3.134   0.778   1.777
 1148HOH      O 3630   1.740   2.030   3.657
 1148HOH     H1 3631   1.833   2.010   3.661
 1148HOH     H2 3632   1.735   2.123   3.678
 1149HOH      O 3633   0.427   0.378   1.599
 1149HOH     H1 3634   0.502   0.430   1.627
 1149HOH     H2 3635   0.400   0.417   1.515
 1150HOH      O 3636   0.163   1.719   2.172
 1150HOH     H1 3637   0.218   1.764   2.236
 1150HOH     H2 3638   0.213   1.640   2.149
 1151HOH      O 3639   0.821   2.844   0.561
 1151HOH     H1 3640   0.804   2.750   0.558
 1151HOH     H2 3641   0.901   2.852   0.613
 1152HOH      O 3642   1.847   1.476   3.089
 1152HOH     H1 3643   1.807   1.470   3.002
 1152HOH     H2 3644   1.803   1.550   3.130
 1153HOH      O 3645   3.788   0.725   1.397
 1153HOH     H1 3646   3.808   0.736   1.305
 1153HOH     H2 3647   3.767   0.633   1.406
 1154HOH      O 3648   3.619   1.257   0.620
 1154HOH     H1 3649   3.688   1.314   0.653
 1154HOH     H2 3650   3.660   1.171   0.611
 1155HOH      O 3651   1.139   1.081   1.622
 1155HOH     H1 3652   1.167   1.005   1.672
 1155HOH     H2 3653   1.139   1.153   1.685
 1156HOH      O 3654   2.659   3.352   1.521
 1156HOH     H1 3655   2.652   3.439   1.482
 1156HOH     H2 3656   2.752   3.330   1.515
 1157HOH      O 3657   3.401   2.377   1.247
 1157HOH     H1 3658   3.345   2.343   1.178
 1157HOH     H2 3659   3.485   2.332   1.235
 1158HOH      O 3660   1.903   1.221   0.598
 1158HOH     H1 3661   1.925   1.247   0.688
 1158HOH     H2 3662   1.809   1.239   0.591
 1159HOH      O 3663   2.684   0.477   2.055
 1159HOH     H1 3664   2.732   0.537   1.998
 1159HOH     H2 3665   2.685   0.521   2.141
 1160HOH      O 3666   3.979   3.339   0.426
 1160HOH     H1 3667   3.907   3.301   0.375
 1160HOH     H2 3668   3.946   3.343   0.515
 1161HOH      O 3669   1.444   1.650   1.269
 1161HOH     H1 3670   1.360   1.621   1.303
 1161HOH     H2 3671   1.476   1.575   1.219
 1162HOH      O 3672   2.980   1.621   1.290
 1162HOH     H1 3673   2.896   1.641   1.250
 1162HOH     H2 3674   3.043   1.624   1.218
 1163HOH      O 3675   2.680   3.292   2.786
 1163HOH     H1 3676   2.588   3.291   2.812
 1163HOH     H2 3677   2.689   3.371   2.732
 1164HOH      O 3678   1.954   0.552   2.396
 1164HOH     H1 3679   1.924   0.606   2.322
 1164HOH     H2 3680   1.967   0.465   2.358
 1165HOH      O 3681   0.120   0.928   0.005
 1165HOH     H1 3682   0.070   0.879   0.071
 1165HOH     H2 3683   0.177   0.863  -0.035
 1166HOH      O 3684   1.152   1.101   3.703
 1166HOH     H1 3685   1.226   1.045   3.725
 1166HOH     H2 3686   1.180   1.150   3.626
 1167HOH      O 3687   2.364   1.267   0.565
 1167HOH     H1 3688   2.455   1.257   0.538
 1167HOH     H2 3689   2.330   1.178   0.568
 1168HOH      O 3690   1.310   3.791   0.839
 1168HOH     H1 3691   1.321   3.832   0.753
 1168HOH     H2 3692   1.393   3.748   0.856
 1169HOH      O 3693   3.866   1.037   3.210
 1169HOH     H1 3694   3.899   0.966   3.153
 1169HOH     H2 3695   3.945   1.074   3.250
 1170HOH      O 3696   1.534   1.290   1.612
 1170HOH     H1 3697   1.479   1.361   1.578
 1170HOH     H2 3698   1.567   1.246   1.534
 1171HOH      O 3699   1.049   0.887   3.168
 1171HOH     H1 3700   1.007   0.905   3.252
 1171HOH     H2 3701   1.042   0.792   3.157
 1172HOH      O 3702   2.678   1.407   3.277
 1172HOH     H1 3703   2.607   1.345   3.262
 1172HOH     H2 3704   2.724   1.413   3.194
 1173HOH      O 3705   2.815   2.608   1.876
 1173HOH     H1 3706   2.852   2.690   1.842
 1173HOH     H2 3707   2.890   2.553   1.896
 1174HOH      O 3708   2.967   3.311   3.573
 1174HOH     H1 3709   2.956   3.219   3.596
 1174HOH     H2 3710   2.889   3.333   3.522
 1175HOH      O 3711   2.959   0.328   3.337
 1175HOH     H1 3712   2.897   0.401   3.340
 1175HOH     H2 3713   2.907   0.253   3.311
 1176HOH      O 3714   0.974   2.531   0.436
 1176HOH     H1 3715   1.000   2.457   0.491
 1176HOH     H2 3716   0.888   2.557   0.469
 1177HOH      O 3717   3.062   3.429   2.569
 1177HOH     H1 3718   3.103   3.357   2.522
 1177HOH     H2 3719   3.021   3.482   2.501
 1178HOH      O 3720   1.671   2.388   3.734
 1178HOH     H1 3721   1.737   2.445   3.695
 1178HOH     H2 3722   1.720   2.325   3.786
 1179HOH      O 3723   3.644   1.087   0.320
 1179HOH     H1 3724   3.730   1.047   0.311
 1179HOH     H2 3725   3.605   1.041   0.395
 1180HOH      O 3726   1.206   2.111   0.756
 1180HOH     H1 3727   1.190   2.206   0.752
 1180HOH     H2 3728   1.196   2.089   0.849
 1181HOH      O 3729   3.017   3.458   0.759
 1181HOH     H1 3730   3.000   3.384   0.701
 1181HOH     H2 3731   2.973   3.435   0.841
 1182HOH      O 3732   3.172   1.616   0.385
 1182HOH     H1 3733   3.081   1.618   0.357
 1182HOH     H2 3734   3.213   1.689   0.338
 1183HOH      O 3735   2.752   1.725   1.688
 1183HOH     H1 3736   2.693   1.763   1.622
 1183HOH     H2 3737   2.837   1.721   1.644
 1184HOH      O 3738   2.210   3.076   3.265
 1184HOH     H1 3739   2.152   3.001   3.272
 1184HOH     H2 3740   2.166   3.145   3.315
 1185HOH      O 3741   2.418   1.567   3.049
 1185HOH     H1 3742   2.398   1.501   3.115
 1185HOH     H2 3743   2.333   1.598   3.020
 1186HOH      O 3744   2.050   1.690   3.400
 1186HOH     H1 3745   1.977   1.715   3.343
 1186HOH     H2 3746   2.095   1.621   3.352
 1187HOH      O 3747   0.507   0.278   3.174
 1187HOH     H1 3748   0.544   0.300   3.259
 1187HOH     H2 3749   0.571   0.220   3.133
 1188HOH      O 3750   0.856   1.758   0.237
 1188HOH     H1 3751   0.935   1.713   0.268
 1188HOH     H2 3752   0.784   1.712   0.281
 1189HOH      O 3753   0.205   3.108   0.696
 1189HOH     H1 3754   0.129   3.166   0.701
 1189HOH     H2 3755   0.279   3.167   0.680
 1190HOH      O 3756   2.424   1.414   3.456
 1190HOH     H1 3757   2.387   1.405   3.369
 1190HOH     H2 3758   2.516   1.436   3.440
 1191HOH      O 3759   2.763   1.388   3.874
 1191HOH     H1 3760   2.733   1.401   3.783
 1191HOH     H2 3761   2.781   1.294   3.880
 1192HOH      O 3762   2.017   1.989   0.416
 1192HOH     H1 3763   2.080   2.025   0.479
 1192HOH     H2 3764   1.965   2.065   0.388
 1193HOH      O 3765   3.618   0.421   3.508
 1193HOH     H1 3766   3.667   0.412   3.590
 1193HOH     H2 3767   3.672   0.375   3.443
 1194HOH      O 3768   0.911   0.302   3.787
 1194HOH     H1 3769   0.978   0.323   3.722
 1194HOH     H2 3770   0.846   0.371   3.778
 1195HOH      O 3771   0.137   2.874   3.642
 1195HOH     H1 3772   0.223   2.873   3.600
 1195HOH     H2 3773   0.142   2.808   3.711
 1196HOH      O 3774   1.676   3.319   0.758
 1196HOH     H1 3775   1.738   3.387   0.783
 1196HOH     H2 3776   1.596   3.342   0.804
 1197HOH      O 3777   3.547   3.834   0.284
 1197HOH     H1 3778   3.479   3.883   0.239
 1197HOH     H2 3779   3.612   3.814   0.216
 1198HOH      O 3780   3.566   2.103   1.949
 1198HOH     H1 3781   3.550   2.186   1.994
 1198HOH     H2 3782   3.581   2.127   1.858
 1199HOH      O 3783   0.998   2.559   1.407
 1199HOH     H1 3784   1.071   2.585   1.351
 1199HOH     H2 3785   0.959   2.484   1.362
 1200HOH      O 3786   1.541   0.257   3.965
 1200HOH     H1 3787   1.589   0.322   3.915
 1200HOH     H2 3788   1.606   0.190   3.987
 1201HOH      O 3789   1.032   1.376   0.177
 1201HOH     H1 3790   1.014   1.350   0.087
 1201HOH     H2 3791   1.121   1.346   0.194
 1202HOH      O 3792   2.819   0.178   3.629
 1202HOH     H1 3793   2.765   0.135   3.563
 1202HOH     H2 3794   2.821   0.116   3.702
 1203HOH      O 3795   0.036   3.944   3.437
 1203HOH     H1 3796   0.106   3.886   3.406
 1203HOH     H2 3797   0.081   4.022   3.469
 1204HOH      O 3798   2.342   2.094   2.094
 1204HOH     H1 3799   2.416   2.039   2.067
 1204HOH     H2 3800   2.383   2.171   2.135
 1205HOH      O 3801   3.864   2.380   2.806
 1205HOH     H1 3802   3.872   2.292   2.769
 1205HOH     H2 3803   3.953   2.415   2.803
 1206HOH      O 3804   0.516   0.250   0.100
 1206HOH     H1 3805   0.526   0.247   0.196
 1206HOH     H2 3806   0.593   0.298   0.070
 1207HOH      O 3807   4.016   2.511   0.769
 1207HOH     H1 3808   3.965   2.446   0.817
 1207HOH     H2 3809   4.023   2.475   0.680
 1208HOH      O 3810   2.141   1.834   2.769
 1208HOH     H1 3811   2.095   1.892   2.830
 1208HOH     H2 3812   2.090   1.839   2.688
 1209HOH      O 3813   3.100   0.691   2.048
 1209HOH     H1 3814   3.040   0.755   2.010
 1209HOH     H2 3815   3.085   0.611   1.997
 1210HOH      O 3816   0.068   1.176   0.144
 1210HOH     H1 3817   0.067   1.251   0.084
 1210HOH     H2 3818   0.091   1.101   0.088
 1211HOH      O 3819   1.747   2.256   2.669
 1211HOH     H1 3820   1.705   2.191   2.613
 1211HOH     H2 3821   1.744   2.217   2.757
 1212HOH      O 3822   0.547   3.342   0.511
 1212HOH     H1 3823   0.514   3.301   0.431
 1212HOH     H2 3824   0.587   3.423   0.481
 1213HOH      O 3825   2.390   2.999   2.986
 1213HOH     H1 3826   2.368   3.053   2.911
 1213HOH     H2 3827   2.313   2.944   3.000
 1214HOH      O 3828   1.359   0.353   1.135
 1214HOH     H1 3829   1.438   0.314   1.172
 1214HOH     H2 3830   1.371   0.348   1.040
 1215HOH      O 3831   3.461   1.395   1.094
 1215HOH     H1 3832   3.388   1.333   1.092
 1215HOH     H2 3833   3.539   1.340   1.085
 1216HOH      O 3834   0.162   2.808   1.769
 1216HOH     H1 3835   0.225   2.814   1.698
 1216HOH     H2 3836   0.131   2.717   1.766
 1217HOH      O 3837   1.105   3.080   0.291
 1217HOH     H1 3838   1.010   3.089   0.293
 1217HOH     H2 3839   1.130   3.109   0.203
 1218HOH      O 3840   0.602   1.123   2.884
 1218HOH     H1 3841   0.548   1.184   2.834
 1218HOH     H2 3842   0.577   1.138   2.975
 1219HOH      O 3843   1.329   1.476   1.548
 1219HOH     H1 3844   1.300   1.561   1.580
 1219HOH     H2 3845   1.285   1.413   1.605
 1220HOH      O 3846   1.582   2.176   0.405
 1220HOH     H1 3847   1.558   2.150   0.494
 1220HOH     H2 3848   1.531   2.255   0.389
 1221HOH      O 3849   1.992   1.077   1.326
 1221HOH     H1 3850   2.075   1.057   1.370
 1221HOH     H2 3851   1.943   0.995   1.328
 1222HOH      O 3852   3.162   0.449  -0.033
 1222HOH     H1 3853   3.155   0.519   0.031
 1222HOH     H2 3854   3.211   0.380   0.012
 1223HOH      O 3855   0.625   3.337   2.909
 1223HOH     H1 3856   0.563   3.301   2.847
 1223HOH     H2 3857   0.600   3.429   2.918
 1224HOH      O 3858   3.815   3.672   1.079
 1224HOH     H1 3859   3.769   3.702   1.000
 1224HOH     H2 3860   3.846   3.752   1.120
 1225HOH      O 3861   0.270   3.809   2.263
 1225HOH     H1 3862   0.211   3.850   2.199
 1225HOH     H2 3863   0.218   3.739   2.301
 1226HOH      O 3864   1.759   2.189   3.897
 1226HOH     H1 3865   1.666   2.172   3.916
 1226HOH     H2 3866   1.806   2.140   3.965
 1227HOH      O 3867   1.313   0.963   0.088
 1227HOH     H1 3868   1.261   0.911   0.027
 1227HOH     H2 3869   1.402   0.956   0.054
 1228HOH      O 3870   3.715   0.167   1.271
 1228HOH     H1 3871   3.745   0.218   1.195
 1228HOH     H2 3872   3.796   0.138   1.314
 1229HOH      O 3873   0.045   1.043   3.662
 1229HOH     H1 3874   0.001   0.958   3.664
 1229HOH     H2 3875   0.137   1.023   3.676
 1230HOH      O 3876   3.907   3.912   1.154
 1230HOH     H1 3877   3.960   3.947   1.082
 1230HOH     H2 3878   3.963   3.921   1.231
 1231HOH      O 3879   2.748   0.626   1.014
 1231HOH     H1 3880   2.823   0.665   1.057
 1231HOH     H2 3881   2.764   0.637   0.920
 1232HOH      O 3882   3.216   2.950   1.793
 1232HOH     H1 3883   3.240   2.988   1.878
 1232HOH     H2 3884   3.147   3.008   1.760
 1233HOH      O 3885   3.018   2.526   0.769
 1233HOH     H1 3886   3.046   2.559   0.684
 1233HOH     H2 3887   2.965   2.596   0.806
 1234HOH      O 3888   3.491   2.594   1.018
 1234HOH     H1 3889   3.434   2.541   1.074
 1234HOH     H2 3890   3.457   2.580   0.930
 1235HOH      O 3891   3.222   1.584   1.694
 1235HOH     H1 3892   3.305   1.630   1.678
 1235HOH     H2 3893   3.157   1.635   1.645
 1236HOH      O 3894   2.843   1.472   0.861
 1236HOH     H1 3895   2.753   1.439   0.868
 1236HOH     H2 3896   2.897   1.401   0.896
 1237HOH      O 3897   0.386   3.804   0.688
 1237HOH     H1 3898   0.395   3.851   0.605
 1237HOH     H2 3899   0.453   3.735   0.683
 1238HOH      O 3900   3.528   0.130   2.688
 1238HOH     H1 3901   3.451   0.090   2.646
 1238HOH     H2 3902   3.496   0.161   2.773
 1239HOH      O 3903   2.499   3.493   0.281
 1239HOH     H1 3904   2.432   3.478   0.348
 1239HOH     H2 3905   2.502   3.588   0.271
 1240HOH      O 3906   2.438   0.698   1.404
 1240HOH     H1 3907   2.478   0.686   1.318
 1240HOH     H2 3908   2.347   0.672   1.391
 1241HOH      O 3909   0.534  -0.007   2.803
 1241HOH     H1 3910   0.540   0.077   2.758
 1241HOH     H2 3911   0.602  -0.061   2.763
 1242HOH      O 3912   1.151   3.550   0.698
 1242HOH     H1 3913   1.195   3.475   0.656
 1242HOH     H2 3914   1.213   3.622   0.690
 1243HOH      O 3915   3.129   1.950   2.202
 1243HOH     H1 3916   3.183   2.028   2.217
 1243HOH     H2 3917   3.164   1.884   2.261
 1244HOH      O 3918   0.606   0.912   0.816
 1244HOH     H1 3919   0.696   0.882   0.820
 1244HOH     H2 3920   0.590   0.952   0.901
 1245HOH      O 3921   2.971   0.804   1.517
 1245HOH     H1 3922   2.915   0.862   1.568
 1245HOH     H2 3923   3.051   0.855   1.503
 1246HOH      O 3924   2.563   3.606   1.439
 1246HOH     H1 3925   2.550   3.668   1.367
 1246HOH     H2 3926   2.509   3.641   1.511
 1247HOH      O 3927   1.632   2.177   2.426
 1247HOH     H1 3928   1.542   2.189   2.457
 1247HOH     H2 3929   1.629   2.201   2.334
 1248HOH      O 3930   1.610   3.446   1.340
 1248HOH     H1 3931   1.639   3.533   1.310
 1248HOH     H2 3932   1.682   3.388   1.316
 1249HOH      O 3933   3.902   0.032   2.220
 1249HOH     H1 3934   3.872  -0.009   2.139
 1249HOH     H2 3935   3.824   0.038   2.274
 1250HOH      O 3936   0.280   3.869   2.771
 1250HOH     H1 3937   0.324   3.786   2.787
 1250HOH     H2 3938   0.350   3.928   2.744
 1251HOH      O 3939   2.323   0.429   1.544
 1251HOH     H1 3940   2.392   0.387   1.492
 1251HOH     H2 3941   2.339   0.523   1.534
 1252HOH      O 3942   2.862   1.876   2.232
 1252HOH     H1 3943   2.955   1.888   2.213
 1252HOH     H2 3944   2.857   1.881   2.328
 1253HOH      O 3945   1.820   0.956   3.860
 1253HOH     H1 3946   1.840   0.966   3.767
 1253HOH     H2 3947   1.905   0.953   3.903
 1254HOH      O 3948   1.447   0.388   0.630
 1254HOH     H1 3949   1.488   0.347   0.554
 1254HOH     H2 3950   1.499   0.358   0.705
 1255HOH      O 3951   1.414   2.226   3.725
 1255HOH     H1 3952   1.414   2.215   3.820
 1255HOH     H2 3953   1.482   2.291   3.708
 1256HOH      O 3954   0.346   2.562   2.757
 1256HOH     H1 3955   0.381   2.485   2.802
 1256HOH     H2 3956   0.411   2.581   2.689
 1257HOH      O 3957   3.725   2.397   0.045
 1257HOH     H1 3958   3.786   2.325   0.026
 1257HOH     H2 3959   3.663   2.360   0.107
 1258HOH      O 3960   0.578   1.499   1.593
 1258HOH     H1 3961   0.665   1.469   1.565
 1258HOH     H2 3962   0.517   1.449   1.538
 1259HOH      O 3963   1.678   1.901   3.432
 1259HOH     H1 3964   1.690   1.932   3.521
 1259HOH     H2 3965   1.670   1.806   3.441
 1260HOH      O 3966   0.336   1.679   3.039
 1260HOH     H1 3967   0.306   1.719   2.957
 1260HOH     H2 3968   0.428   1.704   3.045
 1261HOH      O 3969   1.039   2.378   3.872
 1261HOH     H1 3970   1.078   2.313   3.813
 1261HOH     H2 3971   1.106   2.394   3.938
 1262HOH      O 3972   2.918   0.888   3.768
 1262HOH     H1 3973   2.871   0.826   3.824
 1262HOH     H2 3974   2.925   0.843   3.684
 1263HOH      O 3975   3.726   2.029   1.583
 1263HOH     H1 3976   3.791   1.994   1.522
 1263HOH     H2 3977   3.774   2.041   1.665
 1264HOH      O 3978   3.499   1.427   1.874
 1264HOH     H1 3979   3.546   1.417   1.957
 1264HOH     H2 3980   3.407   1.419   1.898
 1265HOH      O 3981   1.202   3.201   3.129
 1265HOH     H1 3982   1.241   3.141   3.193
 1265HOH     H2 3983   1.186   3.282   3.177
 1266HOH      O 3984   2.286   0.064   1.744
 1266HOH     H1 3985   2.216   0.107   1.695
 1266HOH     H2 3986   2.366   0.109   1.717
 1267HOH      O 3987   2.569   3.423   3.674
 1267HOH     H1 3988   2.523   3.411   3.758
 1267HOH     H2 3989   2.561   3.517   3.656
 1268HOH      O 3990   1.526   1.313   0.319
 1268HOH     H1 3991   1.579   1.270   0.251
 1268HOH     H2 3992   1.436   1.304   0.287
 1269HOH      O 3993   1.838   3.733   0.346
 1269HOH     H1 3994   1.787   3.659   0.314
 1269HOH     H2 3995   1.860   3.783   0.268
 1270HOH      O 3996   2.924   1.667   1.885
 1270HOH     H1 3997   2.858   1.701   1.826
 1270HOH     H2 3998   2.990   1.737   1.891
 1271HOH      O 3999   2.662   2.648   1.545
 1271HOH     H1 4000   2.744   2.696   1.557
 1271HOH     H2 4001   2.660   2.585   1.617
 1272HOH      O 4002   3.487   2.410   0.217
 1272HOH     H1 4003   3.526   2.403   0.305
 1272HOH     H2 4004   3.424   2.338   0.213
 1273HOH      O 4005   3.587   3.518   3.464
 1273HOH     H1 4006   3.652   3.498   3.396
 1273HOH     H2 4007   3.602   3.452   3.532
 1274HOH      O 4008   2.029   3.950   1.937
 1274HOH     H1 4009   2.099   3.962   2.002
 1274HOH     H2 4010   1.992   3.865   1.957
 1275HOH      O 4011   0.733   2.227   1.394
 1275HOH     H1 4012   0.655   2.193   1.351
 1275HOH     H2 4013   0.771   2.287   1.330
 1276HOH      O 4014   0.739   2.625   2.008
 1276HOH     H1 4015   0.805   2.690   2.031
 1276HOH     H2 4016   0.718   2.581   2.091
 1277HOH      O 4017   0.088   0.414   1.470
 1277HOH     H1 4018  -0.007   0.416   1.463
 1277HOH     H2 4019   0.118   0.485   1.414
 1278HOH      O 4020   1.367   1.903   0.185
 1278HOH     H1 4021   1.334   1.844   0.252
 1278HOH     H2 4022   1.291   1.955   0.159
 1279HOH      O 4023   2.347   3.740   1.058
 1279HOH     H1 4024   2.413   3.747   0.989
 1279HOH     H2 4025   2.264   3.753   1.013
 1280HOH      O 4026   3.260   0.225   0.099
 1280HOH     H1 4027   3.280   0.138   0.134
 1280HOH     H2 4028   3.166   0.224   0.082
 1281HOH      O 4029   0.927   2.783   2.946
 1281HOH     H1 4030   0.871   2.860   2.957
 1281HOH     H2 4031   0.875   2.710   2.982
 1282HOH      O 4032   1.018   1.238   1.415
 1282HOH     H1 4033   1.009   1.203   1.326
 1282HOH     H2 4034   1.068   1.172   1.463
 1283HOH      O 4035   0.758   2.643   0.006
 1283HOH     H1 4036   0.833   2.637   0.066
 1283HOH     H2 4037   0.731   2.735   0.011
 1284HOH      O 4038   2.431   2.331   3.154
 1284HOH     H1 4039   2.485   2.399   3.194
 1284HOH     H2 4040   2.464   2.250   3.191
 1285HOH      O 4041   0.986   2.157   1.830
 1285HOH     H1 4042   0.978   2.228   1.766
 1285HOH     H2 4043   1.070   2.172   1.873
 1286HOH      O 4044   1.013   2.694   2.680
 1286HOH     H1 4045   0.957   2.693   2.757
 1286HOH     H2 4046   1.088   2.748   2.705
 1287HOH      O 4047   3.290   3.488   0.361
 1287HOH     H1 4048   3.364   3.457   0.310
 1287HOH     H2 4049   3.227   3.416   0.360
 1288HOH      O 4050   1.066   4.025   0.871
 1288HOH     H1 4051   1.038   3.943   0.831
 1288HOH     H2 4052   1.088   4.001   0.961
 1289HOH      O 4053   1.261   1.139   2.928
 1289HOH     H1 4054   1.168   1.151   2.942
 1289HOH     H2 4055   1.269   1.114   2.836
 1290HOH      O 4056   3.442   1.970   0.670
 1290HOH     H1 4057   3.433   1.882   0.633
 1290HOH     H2 4058   3.470   2.024   0.597
 1291HOH      O 4059   3.703   2.881   1.432
 1291HOH     H1 4060   3.748   2.900   1.350
 1291HOH     H2 4061   3.753   2.809   1.472
 1292HOH      O 4062   3.957   2.834   1.564
 1292HOH     H1 4063   3.894   2.905   1.560
 1292HOH     H2 4064   4.036   2.869   1.522
 1293HOH      O 4065   2.630   1.511   1.921
 1293HOH     H1 4066   2.683   1.537   1.845
 1293HOH     H2 4067   2.633   1.415   1.920
 1294HOH      O 4068   2.664   1.668   3.352
 1294HOH     H1 4069   2.598   1.682   3.284
 1294HOH     H2 4070   2.685   1.575   3.346
 1295HOH      O 4071   2.341   3.175   2.490
 1295HOH     H1 4072   2.288   3.137   2.560
 1295HOH     H2 4073   2.288   3.165   2.411
 1296HOH      O 4074   3.538   3.581   2.722
 1296HOH     H1 4075   3.582   3.666   2.719
 1296HOH     H2 4076   3.452   3.598   2.683
 1297HOH      O 4077   2.389   1.304   3.777
 1297HOH     H1 4078   2.330   1.367   3.735
 1297HOH     H2 4079   2.343   1.221   3.771
 1298HOH      O 4080   1.906   1.283   2.312
 1298HOH     H1 4081   1.920   1.330   2.230
 1298HOH     H2 4082   1.992   1.247   2.334
 1299HOH      O 4083   3.807   0.650   2.001
 1299HOH     H1 4084   3.847   0.574   2.042
 1299HOH     H2 4085   3.802   0.715   2.071
 1300HOH      O 4086   1.634   3.082   2.972
 1300HOH     H1 4087   1.696   3.151   2.945
 1300HOH     H2 4088   1.602   3.112   3.057
 1301HOH      O 4089   1.228   2.187   0.025
 1301HOH     H1 4090   1.155   2.154   0.076
 1301HOH     H2 4091   1.233   2.280   0.048
 1302HOH      O 4092   3.343   3.630   3.146
 1302HOH     H1 4093   3.414   3.677   3.103
 1302HOH     H2 4094   3.270   3.633   3.085
 1303HOH      O 4095   3.883   2.876   1.195
 1303HOH     H1 4096   3.849   2.835   1.115
 1303HOH     H2 4097   3.954   2.932   1.165
 1304HOH      O 4098   0.413   2.201   0.042
 1304HOH     H1 4099   0.378   2.117   0.011
 1304HOH     H2 4100   0.451   2.241  -0.036
 1305HOH      O 4101   0.466   3.816   3.020
 1305HOH     H1 4102   0.456   3.870   2.942
 1305HOH     H2 4103   0.377   3.801   3.051
 1306HOH      O 4104   0.162   2.820   3.177
 1306HOH     H1 4105   0.124   2.733   3.162
 1306HOH     H2 4106   0.217   2.835   3.100
 1307HOH      O 4107   3.475   0.569   2.143
 1307HOH     H1 4108   3.486   0.635   2.211
 1307HOH     H2 4109   3.494   0.616   2.062
 1308HOH      O 4110   0.273   3.618   3.755
 1308HOH     H1 4111   0.193   3.581   3.718
 1308HOH     H2 4112   0.344   3.579   3.703
 1309HOH      O 4113   3.745   0.538   1.727
 1309HOH     H1 4114   3.675   0.557   1.790
 1309HOH     H2 4115   3.699   0.526   1.644
 1310HOH      O 4116   0.775   0.700   2.728
 1310HOH     H1 4117   0.837   0.772   2.717
 1310HOH     H2 4118   0.775   0.656   2.643
 1311HOH      O 4119   3.159   3.782   2.148
 1311HOH     H1 4120   3.210   3.861   2.162
 1311HOH     H2 4121   3.222   3.717   2.118
 1312HOH      O 4122   2.747   1.281   2.288
 1312HOH     H1 4123   2.786   1.208   2.335
 1312HOH     H2 4124   2.751   1.354   2.350
 1313HOH      O 4125   1.218   0.832   1.361
 1313HOH     H1 4126   1.272   0.911   1.369
 1313HOH     H2 4127   1.277   0.768   1.320
 1314HOH      O 4128   1.797   0.947   1.990
 1314HOH     H1 4129   1.797   1.033   1.947
 1314HOH     H2 4130   1.714   0.944   2.037
 1315HOH      O 4131   1.140   1.443   2.859
 1315HOH     H1 4132   1.225   1.488   2.856
 1315HOH     H2 4133   1.149   1.372   2.796
 1316HOH      O 4134   3.478   3.821   3.431
 1316HOH     H1 4135   3.505   3.730   3.441
 1316HOH     H2 4136   3.391   3.816   3.392
 1317HOH      O 4137   2.678   2.315   1.017
 1317HOH     H1 4138   2.750   2.371   1.044
 1317HOH     H2 4139   2.652   2.269   1.097
 1318HOH      O 4140   1.784   2.502   2.430
 1318HOH     H1 4141   1.835   2.504   2.511
 1318HOH     H2 4142   1.809   2.420   2.388
 1319HOH      O 4143   0.321   3.938   1.857
 1319HOH     H1 4144   0.366   3.992   1.791
 1319HOH     H2 4145   0.257   3.997   1.896
 1320HOH      O 4146   1.616   2.112   1.297
 1320HOH     H1 4147   1.621   2.204   1.274
 1320HOH     H2 4148   1.666   2.067   1.229
 1321HOH      O 4149   3.784   3.381   2.335
 1321HOH     H1 4150   3.875   3.356   2.319
 1321HOH     H2 4151   3.790   3.456   2.394
 1322HOH      O 4152   3.920   2.846   2.893
 1322HOH     H1 4153   4.000   2.811   2.932
 1322HOH     H2 4154   3.883   2.903   2.960
 1323HOH      O 4155   2.186   1.374   0.728
 1323HOH     H1 4156   2.152   1.442   0.670
 1323HOH     H2 4157   2.265   1.342   0.684
 1324HOH      O 4158   2.761   0.686   1.816
 1324HOH     H1 4159   2.807   0.616   1.770
 1324HOH     H2 4160   2.695   0.716   1.754
 1325HOH      O 4161   1.594   3.649   0.578
 1325HOH     H1 4162   1.631   3.673   0.663
 1325HOH     H2 4163   1.582   3.732   0.533
 1326HOH      O 4164   0.384   3.614   1.384
 1326HOH     H1 4165   0.433   3.603   1.466
 1326HOH     H2 4166   0.316   3.677   1.405
 1327HOH      O 4167   2.405   1.850   3.534
 1327HOH     H1 4168   2.312   1.837   3.554
 1327HOH     H2 4169   2.411   1.836   3.439
 1328HOH      O 4170   1.503   0.840   0.722
 1328HOH     H1 4171   1.590   0.876   0.704
 1328HOH     H2 4172   1.491   0.770   0.658
 1329HOH      O 4173   1.640   2.347   1.183
 1329HOH     H1 4174   1.546   2.356   1.168
 1329HOH     H2 4175   1.672   2.437   1.192
 1330HOH      O 4176   0.562   1.431   2.337
 1330HOH     H1 4177   0.629   1.484   2.293
 1330HOH     H2 4178   0.522   1.491   2.400
 1331HOH      O 4179   1.005   1.858   2.357
 1331HOH     H1 4180   1.012   1.822   2.446
 1331HOH     H2 4181   1.031   1.786   2.300
 1332HOH      O 4182   3.192   3.491   3.573
 1332HOH     H1 4183   3.252   3.489   3.498
 1332HOH     H2 4184   3.136   3.414   3.560
 1333HOH      O 4185   2.049   1.297   3.428
 1333HOH     H1 4186   1.993   1.265   3.498
 1333HOH     H2 4187   2.128   1.243   3.434
 1334HOH      O 4188   1.988   3.681   2.898
 1334HOH     H1 4189   1.935   3.654   2.973
 1334HOH     H2 4190   2.029   3.763   2.927
 1335HOH      O 4191   2.981   0.308   3.019
 1335HOH     H1 4192   3.057   0.353   3.056
 1335HOH     H2 4193   2.914   0.315   3.087
 1336HOH      O 4194   0.600   2.067   0.514
 1336HOH     H1 4195   0.553   1.986   0.538
 1336HOH     H2 4196   0.632   2.051   0.426
 1337HOH      O 4197   1.121   0.210   2.283
 1337HOH     H1 4198   1.211   0.180   2.273
 1337HOH     H2 4199   1.114   0.235   2.375
 1338HOH      O 4200   3.347   1.117   2.394
 1338HOH     H1 4201   3.304   1.143   2.313
 1338HOH     H2 4202   3.390   1.197   2.425
 1339HOH      O 4203   0.387   1.514   1.810
 1339HOH     H1 4204   0.471   1.526   1.767
 1339HOH     H2 4205   0.342   1.449   1.756
 1340HOH      O 4206   0.312   0.904   1.019
 1340HOH     H1 4207   0.253   0.903   1.094
 1340HOH     H2 4208   0.263   0.946   0.949
 1341HOH      O 4209   1.791   0.507   0.972
 1341HOH     H1 4210   1.759   0.463   1.051
 1341HOH     H2 4211   1.750   0.459   0.900
 1342HOH      O 4212   3.320   2.111   3.780
 1342HOH     H1 4213   3.348   2.136   3.692
 1342HOH     H2 4214   3.367   2.170   3.838
 1343HOH      O 4215   1.468   3.214   1.474
 1343HOH     H1 4216   1.381   3.203   1.436
 1343HOH     H2 4217   1.509   3.282   1.421
 1344HOH      O 4218   1.820   2.014   0.063
 1344HOH     H1 4219   1.875   1.937   0.046
 1344HOH     H2 4220   1.747   1.979   0.114
 1345HOH      O 4221   0.056   2.911   0.813
 1345HOH     H1 4222   0.106   2.984   0.777
 1345HOH     H2 4223   0.088   2.835   0.766
 1346HOH      O 4224   0.537   1.497   3.944
 1346HOH     H1 4225   0.626   1.463   3.937
 1346HOH     H2 4226   0.483   1.420   3.957
 1347HOH      O 4227   0.644   0.625   0.660
 1347HOH     H1 4228   0.683   0.706   0.692
 1347HOH     H2 4229   0.662   0.625   0.566
 1348HOH      O 4230   2.673   3.748   3.626
 1348HOH     H1 4231   2.746   3.750   3.564
 1348HOH     H2 4232   2.697   3.814   3.692
 1349HOH      O 4233   0.362   2.505   0.929
 1349HOH     H1 4234   0.323   2.561   0.997
 1349HOH     H2 4235   0.399   2.432   0.978
 1350HOH      O 4236   0.738   3.893   1.096
 1350HOH     H1 4237   0.661   3.884   1.039
 1350HOH     H2 4238   0.713   3.849   1.177
 1351HOH      O 4239   3.591   0.679   3.444
 1351HOH     H1 4240   3.500   0.651   3.437
 1351HOH     H2 4241   3.639   0.599   3.468
 1352HOH      O 4242   3.998   1.508   2.848
 1352HOH     H1 4243   3.927   1.466   2.897
 1352HOH     H2 4244   3.955   1.580   2.801
 1353HOH      O 4245   1.191   1.594   1.136
 1353HOH     H1 4246   1.179   1.500   1.118
 1353HOH     H2 4247   1.234   1.628   1.058
 1354HOH      O 4248   0.364   0.632   2.964
 1354HOH     H1 4249   0.429   0.571   2.927
 1354HOH     H2 4250   0.379   0.714   2.917
 1355HOH      O 4251   2.516   3.793   0.859
 1355HOH     H1 4252   2.592   3.850   0.872
 1355HOH     H2 4253   2.483   3.816   0.772
 1356HOH      O 4254   0.462   3.203   1.878
 1356HOH     H1 4255   0.383   3.179   1.830
 1356HOH     H2 4256   0.466   3.141   1.950
 1357HOH      O 4257   0.045   0.628   2.281
 1357HOH     H1 4258   0.043   0.592   2.370
 1357HOH     H2 4259   0.100   0.706   2.289
 1358HOH      O 4260   0.662   2.901   0.018
 1358HOH     H1 4261   0.738   2.959   0.010
 1358HOH     H2 4262   0.591   2.957   0.049
 1359HOH      O 4263   2.608   2.567   3.170
 1359HOH     H1 4264   2.616   2.625   3.095
 1359HOH     H2 4265   2.604   2.626   3.246
 1360HOH      O 4266   2.097   1.772   0.938
 1360HOH     H1 4267   2.148   1.696   0.968
 1360HOH     H2 4268   2.009   1.737   0.923
 1361HOH      O 4269   3.790   0.510   2.791
 1361HOH     H1 4270   3.858   0.545   2.848
 1361HOH     H2 4271   3.778   0.577   2.724
 1362HOH      O 4272   1.851   3.098   0.276
 1362HOH     H1 4273   1.831   3.182   0.233
 1362HOH     H2 4274   1.941   3.079   0.249
 1363HOH      O 4275   1.104   2.303   2.296
 1363HOH     H1 4276   1.061   2.371   2.245
 1363HOH     H2 4277   1.074   2.221   2.257
 1364HOH      O 4278   2.670   1.997   1.045
 1364HOH     H1 4279   2.658   1.935   1.117
 1364HOH     H2 4280   2.754   1.972   1.006
 1365HOH      O 4281   0.090   1.500   1.528
 1365HOH     H1 4282   0.021   1.541   1.581
 1365HOH     H2 4283   0.122   1.428   1.582
 1366HOH      O 4284   1.606   1.854   2.877
 1366HOH     H1 4285   1.597   1.849   2.973
 1366HOH     H2 4286   1.518   1.876   2.846
 1367HOH      O 4287   1.274   2.334   1.304
 1367HOH     H1 4288   1.268   2.429   1.310
 1367HOH     H2 4289   1.298   2.306   1.393
 1368HOH      O 4290   2.609   2.779   2.130
 1368HOH     H1 4291   2.690   2.734   2.156
 1368HOH     H2 4292   2.637   2.843   2.065
 1369HOH      O 4293   3.987   0.671   1.673
 1369HOH     H1 4294   3.921   0.633   1.730
 1369HOH     H2 4295   3.940   0.698   1.594
 1370HOH      O 4296   1.329   3.000   3.342
 1370HOH     H1 4297   1.287   2.917   3.320
 1370HOH     H2 4298   1.295   3.023   3.428
 1371HOH      O 4299   0.187   0.324   1.693
 1371HOH     H1 4300   0.273   0.356   1.667
 1371HOH     H2 4301   0.129   0.353   1.623
 1372HOH      O 4302   1.264   1.960   3.429
 1372HOH     H1 4303   1.329   1.964   3.499
 1372HOH     H2 4304   1.224   2.047   3.428
 1373HOH      O 4305   2.360   3.690   4.016
 1373HOH     H1 4306   2.282   3.733   4.050
 1373HOH     H2 4307   2.425   3.760   4.007
 1374HOH      O 4308   1.115   3.838   0.352
 1374HOH     H1 4309   1.137   3.745   0.349
 1374HOH     H2 4310   1.062   3.852   0.273
 1375HOH      O 4311   3.821   1.809   3.891
 1375HOH     H1 4312   3.750   1.767   3.843
 1375HOH     H2 4313   3.788   1.897   3.911
 1376HOH      O 4314   0.052   2.600   3.074
 1376HOH     H1 4315   0.074   2.549   3.152
 1376HOH     H2 4316   0.059   2.537   3.002
 1377HOH      O 4317   1.419   2.690   3.466
 1377HOH     H1 4318   1.482   2.737   3.521
 1377HOH     H2 4319   1.473   2.648   3.398
 1378HOH      O 4320   2.144   3.721   2.225
 1378HOH     H1 4321   2.061   3.714   2.272
 1378HOH     H2 4322   2.211   3.700   2.290
 1379HOH      O 4323   0.123   2.511   3.321
 1379HOH     H1 4324   0.067   2.567   3.374
 1379HOH     H2 4325   0.132   2.431   3.372
 1380HOH      O 4326   0.957   3.491   0.192
 1380HOH     H1 4327   0.990   3.491   0.102
 1380HOH     H2 4328   0.865   3.516   0.185
 1381HOH      O 4329   0.978   0.818   1.232
 1381HOH     H1 4330   1.060   0.825   1.281
 1381HOH     H2 4331   0.931   0.746   1.274
 1382HOH      O 4332   3.746   0.294   3.711
 1382HOH     H1 4333   3.668   0.260   3.756
 1382HOH     H2 4334   3.798   0.216   3.692
 1383HOH      O 4335   1.360   2.666   3.008
 1383HOH     H1 4336   1.374   2.726   2.935
 1383HOH     H2 4337   1.448   2.646   3.040
 1384HOH      O 4338   1.067   3.627   1.840
 1384HOH     H1 4339   1.037   3.542   1.871
 1384HOH     H2 4340   0.986   3.676   1.823
 1385HOH      O 4341   2.066   1.143   0.881
 1385HOH     H1 4342   2.081   1.186   0.797
 1385HOH     H2 4343   2.152   1.142   0.923
 1386HOH      O 4344   3.362   0.626   0.161
 1386HOH     H1 4345   3.312   0.701   0.192
 1386HOH     H2 4346   3.443   0.663   0.126
 1387HOH      O 4347   2.059   0.999  -0.016
 1387HOH     H1 4348   2.096   0.916   0.015
 1387HOH     H2 4349   2.071   1.059   0.057
 1388HOH      O 4350   1.863   3.802   3.183
 1388HOH     H1 4351   1.893   3.816   3.273
 1388HOH     H2 4352   1.941   3.818   3.130
 1389HOH      O 4353   3.618   2.912   1.825
 1389HOH     H1 4354   3.552   2.911   1.894
 1389HOH     H2 4355   3.590   2.843   1.764
 1390HOH      O 4356   1.294   0.323   1.747
 1390HOH     H1 4357   1.207   0.337   1.709
 1390HOH     H2 4358   1.277   0.278   1.830
 1391HOH      O 4359   1.298   1.917   2.383
 1391HOH     H1 4360   1.207   1.937   2.362
 1391HOH     H2 4361   1.298   1.823   2.403
 1392HOH      O 4362   0.372   2.920   1.615
 1392HOH     H1 4363   0.418   2.844   1.651
 1392HOH     H2 4364   0.381   2.911   1.521
 1393HOH      O 4365   3.949   3.952   4.025
 1393HOH     H1 4366   3.956   3.916   3.937
 1393HOH     H2 4367   4.040   3.965   4.053
 1394HOH      O 4368   0.397   3.177   3.199
 1394HOH     H1 4369   0.486   3.210   3.210
 1394HOH     H2 4370   0.394   3.097   3.252
 1395HOH      O 4371   3.946   0.714   2.919
 1395HOH     H1 4372   3.953   0.687   3.010
 1395HOH     H2 4373   3.956   0.810   2.921
 1396HOH      O 4374   3.521   2.326   2.097
 1396HOH     H1 4375   3.451   2.332   2.162
 1396HOH     H2 4376   3.568   2.409   2.105
 1397HOH      O 4377   1.844   2.067   1.759
 1397HOH     H1 4378   1.940   2.058   1.759
 1397HOH     H2 4379   1.819   2.055   1.668
 1398HOH      O 4380   0.595   1.184   1.437
 1398HOH     H1 4381   0.505   1.217   1.431
 1398HOH     H2 4382   0.649   1.258   1.408
 1399HOH      O 4383   2.938   2.856   0.590
 1399HOH     H1 4384   2.885   2.849   0.511
 1399HOH     H2 4385   3.028   2.863   0.557
 1400HOH      O 4386   1.602   2.699   1.285
 1400HOH     H1 4387   1.667   2.681   1.354
 1400HOH     H2 4388   1.652   2.693   1.204
 1401HOH      O 4389   2.655   1.658   2.200
 1401HOH     H1 4390   2.717   1.730   2.211
 1401HOH     H2 4391   2.658   1.610   2.283
 1402HOH      O 4392   3.779   2.870   2.648
 1402HOH     H1 4393   3.782   2.964   2.630
 1402HOH     H2 4394   3.847   2.855   2.714
 1403HOH      O 4395   0.817   1.436   3.988
 1403HOH     H1 4396   0.778   1.351   4.011
 1403HOH     H2 4397   0.877   1.416   3.917
 1404HOH      O 4398   1.558   1.240   3.323
 1404HOH     H1 4399   1.645   1.268   3.294
 1404HOH     H2 4400   1.549   1.277   3.411
 1405HOH      O 4401   2.039   0.738   0.401
 1405HOH     H1 4402   2.015   0.807   0.463
 1405HOH     H2 4403   2.012   0.657   0.444
 1406HOH      O 4404   1.109   3.419   3.282
 1406HOH     H1 4405   1.038   3.479   3.261
 1406HOH     H2 4406   1.183   3.475   3.303
 1407HOH      O 4407   3.297   2.212   0.211
 1407HOH     H1 4408   3.260   2.201   0.124
 1407HOH     H2 4409   3.225   2.245   0.264
 1408HOH      O 4410   2.010   1.812   0.012
 1408HOH     H1 4411   2.014   1.787   0.104
 1408HOH     H2 4412   2.049   1.738  -0.035
 1409HOH      O 4413   1.285   1.260   0.158
 1409HOH     H1 4414   1.266   1.179   0.205
 1409HOH     H2 4415   1.297   1.232   0.067
 1410HOH      O 4416   3.565   1.114   3.480
 1410HOH     H1 4417   3.518   1.116   3.397
 1410HOH     H2 4418   3.627   1.042   3.471
 1411HOH      O 4419   3.359   2.927   1.550
 1411HOH     H1 4420   3.282   2.949   1.497
 1411HOH     H2 4421   3.327   2.922   1.639
 1412HOH      O 4422   3.989   0.291   2.217
 1412HOH     H1 4423   3.913   0.334   2.177
 1412HOH     H2 4424   3.960   0.201   2.231
 1413HOH      O 4425   0.070   3.950   3.053
 1413HOH     H1 4426   0.107   4.006   2.984
 1413HOH     H2 4427   0.115   3.866   3.042
 1414HOH      O 4428   3.508   1.870   0.989
 1414HOH     H1 4429   3.510   1.808   0.916
 1414HOH     H2 4430   3.417   1.899   0.994
 1415HOH      O 4431   0.457   3.501   2.640
 1415HOH     H1 4432   0.543   3.540   2.650
 1415HOH     H2 4433   0.435   3.515   2.547
 1416HOH      O 4434   2.944   1.676   0.699
 1416HOH     H1 4435   2.951   1.584   0.724
 1416HOH     H2 4436   2.963   1.724   0.780
 1417HOH      O 4437   0.497   2.108   2.193
 1417HOH     H1 4438   0.434   2.170   2.230
 1417HOH     H2 4439   0.571   2.111   2.253
 1418HOH      O 4440   2.896   3.794   3.471
 1418HOH     H1 4441   2.942   3.878   3.479
 1418HOH     H2 4442   2.956   3.739   3.420
 1419HOH      O 4443   3.103   1.634   1.012
 1419HOH     H1 4444   3.009   1.617   1.022
 1419HOH     H2 4445   3.129   1.579   0.938
 1420HOH      O 4446   0.583   3.586   2.133
 1420HOH     H1 4447   0.611   3.494   2.138
 1420HOH     H2 4448   0.612   3.615   2.046
 1421HOH      O 4449   2.151   0.096   2.177
 1421HOH     H1 4450   2.099   0.147   2.115
 1421HOH     H2 4451   2.234   0.082   2.131
 1422HOH      O 4452   2.889   2.711   1.043
 1422HOH     H1 4453   2.855   2.788   0.997
 1422HOH     H2 4454   2.811   2.667   1.077
 1423HOH      O 4455   3.435   3.431   1.107
 1423HOH     H1 4456   3.372   3.408   1.174
 1423HOH     H2 4457   3.384   3.476   1.040
 1424HOH      O 4458   3.988   0.688   1.141
 1424HOH     H1 4459   4.027   0.656   1.060
 1424HOH     H2 4460   4.056   0.672   1.207
 1425HOH      O 4461   1.045   2.755   1.804
 1425HOH     H1 4462   0.969   2.730   1.752
 1425HOH     H2 4463   1.107   2.683   1.792
 1426HOH      O 4464   4.055   0.193   3.410
 1426HOH     H1 4465   4.011   0.191   3.495
 1426HOH     H2 4466   3.987   0.168   3.347
 1427HOH      O 4467   0.399   0.736   3.715
 1427HOH     H1 4468   0.379   0.685   3.636
 1427HOH     H2 4469   0.491   0.761   3.705
 1428HOH      O 4470   1.945   2.830   0.526
 1428HOH     H1 4471   2.017   2.791   0.576
 1428HOH     H2 4472   1.920   2.908   0.576
 1429HOH      O 4473   3.862   0.541   3.651
 1429HOH     H1 4474   3.955   0.525   3.633
 1429HOH     H2 4475   3.834   0.464   3.699
 1430HOH      O 4476   3.973   3.221   3.465
 1430HOH     H1 4477   4.033   3.239   3.537
 1430HOH     H2 4478   4.019   3.156   3.412
 1431HOH      O 4479   0.687   3.943   3.485
 1431HOH     H1 4480   0.743   4.021   3.479
 1431HOH     H2 4481   0.619   3.957   3.419
 1432HOH      O 4482   0.928   2.940   1.529
 1432HOH     H1 4483   0.910   3.009   1.592
 1432HOH     H2 4484   0.913   2.981   1.444
 1433HOH      O 4485   2.796   3.241   0.882
 1433HOH     H1 4486   2.749   3.238   0.798
 1433HOH     H2 4487   2.835   3.154   0.890
 1434HOH      O 4488   0.653   2.702   2.901
 1434HOH     H1 4489   0.600   2.657   2.967
 1434HOH     H2 4490   0.594   2.768   2.864
 1435HOH      O 4491   1.398   2.423   0.325
 1435HOH     H1 4492   1.345   2.494   0.288
 1435HOH     H2 4493   1.434   2.458   0.406
 1436HOH      O 4494   2.568   1.093   3.814
 1436HOH     H1 4495   2.660   1.090   3.842
 1436HOH     H2 4496   2.546   1.186   3.817
 1437HOH      O 4497   3.609   2.610   1.952
 1437HOH     H1 4498   3.676   2.678   1.953
 1437HOH     H2 4499   3.570   2.613   2.040
 1438HOH      O 4500   0.627   1.787   1.787
 1438HOH     H1 4501   0.684   1.862   1.772
 1438HOH     H2 4502   0.539   1.824   1.788
 1439HOH      O 4503   2.452   2.330   0.420
 1439HOH     H1 4504   2.454   2.274   0.497
 1439HOH     H2 4505   2.391   2.286   0.360
 1440HOH      O 4506   0.341   0.168   0.348
 1440HOH     H1 4507   0.428   0.128   0.345
 1440HOH     H2 4508   0.312   0.155   0.439
 1441HOH      O 4509   2.377   0.038   0.293
 1441HOH     H1 4510   2.351   0.088   0.215
 1441HOH     H2 4511   2.303  -0.020   0.309
 1442HOH      O 4512   2.634   2.272   1.337
 1442HOH     H1 4513   2.612   2.292   1.428
 1442HOH     H2 4514   2.728   2.290   1.331
 1443HOH      O 4515   0.701   1.672   3.665
 1443HOH     H1 4516   0.712   1.585   3.628
 1443HOH     H2 4517   0.621   1.706   3.626
 1444HOH      O 4518   1.390   3.864   1.934
 1444HOH     H1 4519   1.447   3.813   1.990
 1444HOH     H2 4520   1.447   3.898   1.866
 1445HOH      O 4521   2.021   2.923   0.063
 1445HOH     H1 4522   2.030   2.829   0.052
 1445HOH     H2 4523   1.927   2.940   0.055
 1446HOH      O 4524  -0.008   2.497   1.077
 1446HOH     H1 4525   0.001   2.403   1.061
 1446HOH     H2 4526   0.058   2.537   1.020
 1447HOH      O 4527   0.870   2.315   1.611
 1447HOH     H1 4528   0.812   2.292   1.539
 1447HOH     H2 4529   0.864   2.411   1.617
 1448HOH      O 4530   2.429   1.222   0.201
 1448HOH     H1 4531   2.427   1.303   0.151
 1448HOH     H2 4532   2.427   1.153   0.135
 1449HOH      O 4533   2.831   2.429   3.469
 1449HOH     H1 4534   2.790   2.376   3.538
 1449HOH     H2 4535   2.801   2.389   3.388
 1450HOH      O 4536   1.224   2.930   1.482
 1450HOH     H1 4537   1.253   2.890   1.400
 1450HOH     H2 4538   1.144   2.884   1.504
 1451HOH      O 4539   1.917   1.401   1.861
 1451HOH     H1 4540   1.845   1.391   1.923
 1451HOH     H2 4541   1.942   1.312   1.838
 1452HOH      O 4542   1.445   4.006   1.205
 1452HOH     H1 4543   1.409   4.059   1.276
 1452HOH     H2 4544   1.459   3.920   1.243
 1453HOH      O 4545   2.043   3.748   1.156
 1453HOH     H1 4546   2.123   3.697   1.170
 1453HOH     H2 4547   2.072   3.839   1.159
 1454HOH      O 4548   2.260   0.379   1.801
 1454HOH     H1 4549   2.273   0.394   1.708
 1454HOH     H2 4550   2.347   0.390   1.839
 1455HOH      O 4551   0.143   1.627   2.581
 1455HOH     H1 4552   0.124   1.564   2.512
 1455HOH     H2 4553   0.103   1.590   2.660
 1456HOH      O 4554   1.574   2.464   2.672
 1456HOH     H1 4555   1.599   2.537   2.729
 1456HOH     H2 4556   1.654   2.413   2.662
 1457HOH      O 4557   3.917   2.927   3.516
 1457HOH     H1 4558   3.993   2.912   3.572
 1457HOH     H2 4559   3.858   2.979   3.570
 1458HOH      O 4560   3.941   0.684   0.375
 1458HOH     H1 4561   3.860   0.718   0.413
 1458HOH     H2 4562   3.976   0.626   0.443
 1459HOH      O 4563   2.724   0.482   3.077
 1459HOH     H1 4564   2.731   0.482   3.173
 1459HOH     H2 4565   2.695   0.393   3.055
 1460HOH      O 4566   2.935   2.864   1.797
 1460HOH     H1 4567   2.863   2.919   1.768
 1460HOH     H2 4568   2.966   2.904   1.878
 1461HOH      O 4569   2.039   2.175   1.347
 1461HOH     H1 4570   2.126   2.203   1.374
 1461HOH     H2 4571   2.041   2.080   1.352
 1462HOH      O 4572   2.377   3.455   3.887
 1462HOH     H1 4573   2.386   3.538   3.933
 1462HOH     H2 4574   2.302   3.467   3.829
 1463HOH      O 4575   1.066   2.891   0.692
 1463HOH     H1 4576   1.159   2.873   0.708
 1463HOH     H2 4577   1.060   2.987   0.691
 1464HOH      O 4578   1.503   1.328   3.046
 1464HOH     H1 4579   1.558   1.292   3.115
 1464HOH     H2 4580   1.437   1.261   3.029
 1465HOH      O 4581   2.343   0.762   3.844
 1465HOH     H1 4582   2.268   0.705   3.861
 1465HOH     H2 4583   2.364   0.747   3.752
 1466HOH      O 4584   2.891   1.077   2.488
 1466HOH     H1 4585   2.875   1.054   2.580
 1466HOH     H2 4586   2.901   0.993   2.443
 1467HOH      O 4587   2.795   0.139   3.218
 1467HOH     H1 4588   2.749   0.103   3.143
 1467HOH     H2 4589   2.780   0.076   3.288
 1468HOH      O 4590   1.848   0.720   2.183
 1468HOH     H1 4591   1.830   0.810   2.155
 1468HOH     H2 4592   1.767   0.673   2.165
 1469HOH      O 4593   1.166   4.002   1.833
 1469HOH     H1 4594   1.109   4.026   1.905
 1469HOH     H2 4595   1.237   3.952   1.874
 1470HOH      O 4596   1.870   2.238   2.291
 1470HOH     H1 4597   1.850   2.219   2.199
 1470HOH     H2 4598   1.806   2.187   2.341
 1471HOH      O 4599   1.940   1.535   2.712
 1471HOH     H1 4600   1.926   1.548   2.619
 1471HOH     H2 4601   1.856   1.504   2.746
 1472HOH      O 4602   0.244   3.212   1.394
 1472HOH     H1 4603   0.205   3.299   1.386
 1472HOH     H2 4604   0.316   3.213   1.331
 1473HOH      O 4605   3.727   3.236   3.891
 1473HOH     H1 4606   3.684   3.257   3.974
 1473HOH     H2 4607   3.817   3.267   3.903
 1474HOH      O 4608   2.243   2.571   3.882
 1474HOH     H1 4609   2.235   2.666   3.881
 1474HOH     H2 4610   2.178   2.543   3.947
 1475HOH      O 4611   2.787   1.214   0.347
 1475HOH     H1 4612   2.784   1.240   0.255
 1475HOH     H2 4613   2.709   1.160   0.360
 1476HOH      O 4614   0.892   2.501   2.489
 1476HOH     H1 4615   0.916   2.553   2.565
 1476HOH     H2 4616   0.925   2.414   2.507
 1477HOH      O 4617   2.765   2.861   0.317
 1477HOH     H1 4618   2.756   2.931   0.253
 1477HOH     H2 4619   2.743   2.781   0.269
 1478HOH      O 4620   3.052   2.605   2.389
 1478HOH     H1 4621   3.038   2.536   2.453
 1478HOH     H2 4622   3.144   2.631   2.402
 1479HOH      O 4623   0.174   0.037   0.159
 1479HOH     H1 4624   0.193   0.105   0.224
 1479HOH     H2 4625   0.180  -0.045   0.207
 1480HOH      O 4626   1.090   1.949   0.291
 1480HOH     H1 4627   1.151   1.931   0.363
 1480HOH     H2 4628   1.022   1.883   0.300
 1481HOH      O 4629   2.077   3.279   3.041
 1481HOH     H1 4630   2.152   3.334   3.021
 1481HOH     H2 4631   2.112   3.211   3.099
 1482HOH      O 4632   0.525   3.847   2.221
 1482HOH     H1 4633   0.553   3.760   2.194
 1482HOH     H2 4634   0.435   3.836   2.252
 1483HOH      O 4635   2.443   3.680   2.348
 1483HOH     H1 4636   2.454   3.590   2.378
 1483HOH     H2 4637   2.500   3.687   2.271
 1484HOH      O 4638   0.015   1.619   0.865
 1484HOH     H1 4639   0.029   1.686   0.932
 1484HOH     H2 4640   0.035   1.663   0.783
 1485HOH      O 4641   3.258   3.754   3.652
 1485HOH     H1 4642   3.191   3.804   3.604
 1485HOH     H2 4643   3.252   3.666   3.616
 1486HOH      O 4644   3.511   4.010   1.433
 1486HOH     H1 4645   3.523   3.975   1.522
 1486HOH     H2 4646   3.572   4.084   1.428
 1487HOH      O 4647   0.166   2.596   0.399
 1487HOH     H1 4648   0.165   2.676   0.451
 1487HOH     H2 4649   0.242   2.606   0.340
 1488HOH      O 4650   1.250   2.871   0.294
 1488HOH     H1 4651   1.172   2.922   0.315
 1488HOH     H2 4652   1.299   2.866   0.376
 1489HOH      O 4653   3.369   1.541   3.420
 1489HOH     H1 4654   3.421   1.605   3.372
 1489HOH     H2 4655   3.432   1.493   3.473
 1490HOH      O 4656   2.897   2.973   0.849
 1490HOH     H1 4657   2.952   2.941   0.777
 1490HOH     H2 4658   2.959   2.995   0.918
 1491HOH      O 4659   0.183   0.778   1.561
 1491HOH     H1 4660   0.264   0.772   1.612
 1491HOH     H2 4661   0.115   0.744   1.618
 1492HOH      O 4662   2.000   1.701   2.153
 1492HOH     H1 4663   2.033   1.627   2.204
 1492HOH     H2 4664   2.075   1.759   2.144
 1493HOH      O 4665   3.863   2.455   2.509
 1493HOH     H1 4666   3.914   2.533   2.534
 1493HOH     H2 4667   3.855   2.404   2.590
 1494HOH      O 4668   2.671   4.027   0.897
 1494HOH     H1 4669   2.713   4.024   0.811
 1494HOH     H2 4670   2.742   4.009   0.959
 1495HOH      O 4671   3.938   0.829   0.144
 1495HOH     H1 4672   3.897   0.789   0.067
 1495HOH     H2 4673   3.942   0.758   0.209
 1496HOH      O 4674   3.426   2.489   1.492
 1496HOH     H1 4675   3.381   2.418   1.538
 1496HOH     H2 4676   3.408   2.473   1.400
 1497HOH      O 4677   3.666   0.292   0.806
 1497HOH     H1 4678   3.647   0.233   0.733
 1497HOH     H2 4679   3.642   0.379   0.774
 1498HOH      O 4680   2.741   2.298   3.673
 1498HOH     H1 4681   2.663   2.244   3.657
 1498HOH     H2 4682   2.796   2.244   3.730
 1499HOH      O 4683   0.982   3.067   2.710
 1499HOH     H1 4684   0.891   3.044   2.692
 1499HOH     H2 4685   0.978   3.123   2.788
 1500HOH      O 4686   2.773   2.207   2.089
 1500HOH     H1 4687   2.735   2.293   2.108
 1500HOH     H2 4688   2.756   2.156   2.168
 1501HOH      O 4689  -0.027   0.172   2.604
 1501HOH     H1 4690   0.026   0.114   2.659
 1501HOH     H2 4691   0.027   0.187   2.526
 1502HOH      O 4692   2.934   3.299   2.252
 1502HOH     H1 4693   3.009   3.317   2.310
 1502HOH     H2 4694   2.882   3.235   2.300
 1503HOH      O 4695   3.862   1.077   3.873
 1503HOH     H1 4696   3.925   1.107   3.809
 1503HOH     H2 4697   3.908   1.079   3.956
 1504HOH      O 4698   2.552   1.112   0.421
 1504HOH     H1 4699   2.509   1.156   0.347
 1504HOH     H2 4700   2.527   1.020   0.410
 1505HOH      O 4701   3.058   1.155   4.053
 1505HOH     H1 4702   3.139   1.119   4.017
 1505HOH     H2 4703   2.994   1.144   3.983
 1506HOH      O 4704   3.304   0.329   1.348
 1506HOH     H1 4705   3.379   0.363   1.301
 1506HOH     H2 4706   3.229   0.378   1.314
 1507HOH      O 4707   0.503   1.712   1.425
 1507HOH     H1 4708   0.558   1.661   1.366
 1507HOH     H2 4709   0.523   1.678   1.512
 1508HOH      O 4710   0.021   3.066   1.090
 1508HOH     H1 4711   0.110   3.097   1.073
 1508HOH     H2 4712  -0.015   3.047   1.004
 1509HOH      O 4713   1.370   0.710   0.932
 1509HOH     H1 4714   1.415   0.736   0.852
 1509HOH     H2 4715   1.338   0.621   0.915
 1510HOH      O 4716   0.815   3.168   1.709
 1510HOH     H1 4717   0.819   3.167   1.804
 1510HOH     H2 4718   0.730   3.208   1.689
 1511HOH      O 4719   0.785   0.379   3.310
 1511HOH     H1 4720   0.714   0.351   3.369
 1511HOH     H2 4721   0.812   0.299   3.266
 1512HOH      O 4722   3.387   0.196   0.897
 1512HOH     H1 4723   3.448   0.270   0.895
 1512HOH     H2 4724   3.428   0.132   0.955
 1513HOH      O 4725   3.059   1.967   3.080
 1513HOH     H1 4726   3.136   2.014   3.049
 1513HOH     H2 4727   3.092   1.880   3.103
 1514HOH      O 4728   2.863   1.135   3.826
 1514HOH     H1 4729   2.882   1.042   3.814
 1514HOH     H2 4730   2.936   1.180   3.783
 1515HOH      O 4731   1.994   2.226   0.808
 1515HOH     H1 4732   1.941   2.209   0.886
 1515HOH     H2 4733   1.999   2.141   0.764
 1516HOH      O 4734   3.604   0.901   3.709
 1516HOH     H1 4735   3.634   0.917   3.620
 1516HOH     H2 4736   3.548   0.824   3.703
 1517HOH      O 4737   0.808   1.413   1.468
 1517HOH     H1 4738   0.836   1.492   1.423
 1517HOH     H2 4739   0.884   1.355   1.466
 1518HOH      O 4740   2.640   1.892   0.605
 1518HOH     H1 4741   2.731   1.904   0.578
 1518HOH     H2 4742   2.642   1.815   0.663
 1519HOH      O 4743   1.423   3.449   3.602
 1519HOH     H1 4744   1.403   3.535   3.564
 1519HOH     H2 4745   1.515   3.456   3.628
 1520HOH      O 4746   0.598   0.118   3.756
 1520HOH     H1 4747   0.548   0.198   3.773
 1520HOH     H2 4748   0.542   0.066   3.699
 1521HOH      O 4749   3.309   1.138   3.640
 1521HOH     H1 4750   3.245   1.124   3.569
 1521HOH     H2 4751   3.372   1.067   3.629
 1522HOH      O 4752   2.210   1.930   3.805
 1522HOH     H1 4753   2.290   1.880   3.823
 1522HOH     H2 4754   2.183   1.963   3.891
 1523HOH      O 4755   3.514   1.922   2.554
 1523HOH     H1 4756   3.547   1.984   2.489
 1523HOH     H2 4757   3.504   1.974   2.633
 1524HOH      O 4758   0.062   0.434   3.525
 1524HOH     H1 4759   0.061   0.365   3.458
 1524HOH     H2 4760   0.025   0.510   3.481
 1525HOH      O 4761   2.275   0.916   2.289
 1525HOH     H1 4762   2.272   0.862   2.368
 1525HOH     H2 4763   2.259   0.855   2.217
 1526HOH      O 4764   3.262   1.679   3.791
 1526HOH     H1 4765   3.226   1.598   3.827
 1526HOH     H2 4766   3.277   1.735   3.867
 1527HOH      O 4767   1.380   3.781   0.002
 1527HOH     H1 4768   1.300   3.824  -0.029
 1527HOH     H2 4769   1.395   3.819   0.088
 1528HOH      O 4770   2.493   2.584   1.989
 1528HOH     H1 4771   2.414   2.630   1.960
 1528HOH     H2 4772   2.543   2.650   2.036
 1529HOH      O 4773   2.589   1.401   0.922
 1529HOH     H1 4774   2.578   1.306   0.919
 1529HOH     H2 4775   2.553   1.426   1.007
 1530HOH      O 4776   2.607   0.839   3.677
 1530HOH     H1 4777   2.638   0.788   3.751
 1530HOH     H2 4778   2.594   0.927   3.712
 1531HOH      O 4779   0.311   1.210   1.084
 1531HOH     H1 4780   0.297   1.136   1.143
 1531HOH     H2 4781   0.222   1.238   1.060
 1532HOH      O 4782   0.121   1.258   0.402
 1532HOH     H1 4783   0.128   1.353   0.406
 1532HOH     H2 4784   0.094   1.240   0.312
 1533HOH      O 4785   0.618   3.308   2.150
 1533HOH     H1 4786   0.657   3.244   2.092
 1533HOH     H2 4787   0.523   3.297   2.139
 1534HOH      O 4788   3.232   2.797   1.047
 1534HOH     H1 4789   3.227   2.838   0.961
 1534HOH     H2 4790   3.245   2.704   1.029
 1535HOH      O 4791   3.696   2.602   1.430
 1535HOH     H1 4792   3.716   2.584   1.338
 1535HOH     H2 4793   3.634   2.534   1.455
 1536HOH      O 4794   2.424   0.474   1.066
 1536HOH     H1 4795   2.490   0.405   1.058
 1536HOH     H2 4796   2.352   0.433   1.113
 1537HOH      O 4797   0.436   3.119   0.377
 1537HOH     H1 4798   0.347   3.154   0.389
 1537HOH     H2 4799   0.435   3.035   0.424
 1538HOH      O 4800   1.487   2.110   0.672
 1538HOH     H1 4801   1.528   2.113   0.758
 1538HOH     H2 4802   1.396   2.136   0.688
 1539HOH      O 4803   0.221   0.299   2.367
 1539HOH     H1 4804   0.127   0.314   2.352
 1539HOH     H2 4805   0.252   0.380   2.408
 1540HOH      O 4806   3.853   2.715   2.120
 1540HOH     H1 4807   3.880   2.789   2.174
 1540HOH     H2 4808   3.877   2.740   2.031
 1541HOH      O 4809   0.321   0.157   2.129
 1541HOH     H1 4810   0.280   0.204   2.201
 1541HOH     H2 4811   0.404   0.125   2.165
 1542HOH      O 4812   0.776   2.741   0.947
 1542HOH     H1 4813   0.731   2.814   0.904
 1542HOH     H2 4814   0.724   2.664   0.925
 1543HOH      O 4815   0.706   0.166   0.884
 1543HOH     H1 4816   0.742   0.091   0.837
 1543HOH     H2 4817   0.773   0.233   0.877
 1544HOH      O 4818   3.471   1.362   3.078
 1544HOH     H1 4819   3.390   1.350   3.128
 1544HOH     H2 4820   3.468   1.292   3.012
 1545HOH      O 4821   2.149   2.784   1.379
 1545HOH     H1 4822   2.143   2.860   1.320
 1545HOH     H2 4823   2.228   2.801   1.431
 1546HOH      O 4824   2.631   0.651   0.324
 1546HOH     H1 4825   2.609   0.571   0.371
 1546HOH     H2 4826   2.562   0.713   0.349
 1547HOH      O 4827   3.249   0.281   0.647
 1547HOH     H1 4828   3.273   0.233   0.727
 1547HOH     H2 4829   3.175   0.335   0.673
 1548HOH      O 4830   3.245   2.264   1.062
 1548HOH     H1 4831   3.264   2.225   0.977
 1548HOH     H2 4832   3.207   2.193   1.113
 1549HOH      O 4833   2.219   3.185   0.821
 1549HOH     H1 4834   2.281   3.253   0.848
 1549HOH     H2 4835   2.272   3.105   0.816
 1550HOH      O 4836   3.519   2.377   3.007
 1550HOH     H1 4837   3.570   2.301   3.035
 1550HOH     H2 4838   3.481   2.412   3.088
 1551HOH      O 4839   2.024   2.263   3.924
 1551HOH     H1 4840   2.072   2.290   3.846
 1551HOH     H2 4841   1.932   2.281   3.904
 1552HOH      O 4842   1.075   3.931   2.488
 1552HOH     H1 4843   1.046   3.840   2.483
 1552HOH     H2 4844   1.078   3.950   2.582
 1553HOH      O 4845   0.643   1.985   0.230
 1553HOH     H1 4846   0.565   1.931   0.222
 1553HOH     H2 4847   0.715   1.929   0.202
 1554HOH      O 4848   2.943   0.836   1.060
 1554HOH     H1 4849   2.877   0.865   1.123
 1554HOH     H2 4850   2.935   0.897   0.987
 1555HOH      O 4851   1.140   1.847   1.347
 1555HOH     H1 4852   1.224   1.860   1.302
 1555HOH     H2 4853   1.114   1.758   1.322
 1556HOH      O 4854   1.809   3.629   1.241
 1556HOH     H1 4855   1.826   3.669   1.326
 1556HOH     H2 4856   1.886   3.649   1.188
 1557HOH      O 4857   0.289   0.930   0.329
 1557HOH     H1 4858   0.332   1.000   0.377
 1557HOH     H2 4859   0.292   0.958   0.237
 1558HOH      O 4860   2.575   2.010   1.455
 1558HOH     H1 4861   2.567   2.096   1.412
 1558HOH     H2 4862   2.515   2.015   1.530
 1559HOH      O 4863   0.481   3.548   3.110
 1559HOH     H1 4864   0.505   3.638   3.132
 1559HOH     H2 4865   0.404   3.557   3.054
 1560HOH      O 4866   2.745   3.079   3.302
 1560HOH     H1 4867   2.792   3.155   3.270
 1560HOH     H2 4868   2.654   3.094   3.275
 1561HOH      O 4869   2.677   2.077   1.844
 1561HOH     H1 4870   2.758   2.058   1.796
 1561HOH     H2 4871   2.706   2.129   1.919
 1562HOH      O 4872   3.002   1.732   1.542
 1562HOH     H1 4873   3.032   1.806   1.490
 1562HOH     H2 4874   2.968   1.669   1.478
 1563HOH      O 4875   3.442   4.008   2.209
 1563HOH     H1 4876   3.500   3.943   2.169
 1563HOH     H2 4877   3.455   3.996   2.303
 1564HOH      O 4878   3.814   2.146   0.799
 1564HOH     H1 4879   3.808   2.074   0.736
 1564HOH     H2 4880   3.903   2.179   0.788
 1565HOH      O 4881   1.333   2.941   0.038
 1565HOH     H1 4882   1.350   3.034   0.053
 1565HOH     H2 4883   1.243   2.928   0.066
 1566HOH      O 4884   2.298   2.333   1.874
 1566HOH     H1 4885   2.353   2.317   1.951
 1566HOH     H2 4886   2.209   2.337   1.908
 1567HOH      O 4887   3.133   0.610   3.121
 1567HOH     H1 4888   3.156   0.596   3.029
 1567HOH     H2 4889   3.097   0.699   3.124
 1568HOH      O 4890   1.761   0.383   3.833
 1568HOH     H1 4891   1.812   0.307   3.805
 1568HOH     H2 4892   1.826   0.451   3.849
 1569HOH      O 4893   2.790   3.986   0.639
 1569HOH     H1 4894   2.881   4.009   0.622
 1569HOH     H2 4895   2.771   3.915   0.578
 1570HOH      O 4896   4.011   1.269   0.830
 1570HOH     H1 4897   4.008   1.240   0.921
 1570HOH     H2 4898   3.995   1.363   0.835
 1571HOH      O 4899   1.083   0.183   2.906
 1571HOH     H1 4900   1.081   0.115   2.839
 1571HOH     H2 4901   1.124   0.142   2.982
 1572HOH      O 4902   3.557   0.826   1.883
 1572HOH     H1 4903   3.490   0.894   1.880
 1572HOH     H2 4904   3.514   0.747   1.851
 1573HOH      O 4905   1.844   2.665   1.428
 1573HOH     H1 4906   1.901   2.588   1.435
 1573HOH     H2 4907   1.867   2.704   1.343
 1574HOH      O 4908   0.565   2.669   1.782
 1574HOH     H1 4909   0.624   2.731   1.740
 1574HOH     H2 4910   0.592   2.668   1.874
 1575HOH      O 4911   1.301   2.205   1.933
 1575HOH     H1 4912   1.303   2.109   1.934
 1575HOH     H2 4913   1.384   2.230   1.892
 1576HOH      O 4914   2.362   2.814   0.991
 1576HOH     H1 4915   2.351   2.873   0.917
 1576HOH     H2 4916   2.322   2.861   1.065
 1577HOH      O 4917   3.864   1.714   2.692
 1577HOH     H1 4918   3.859   1.755   2.606
 1577HOH     H2 4919   3.787   1.657   2.697
 1578HOH      O 4920   2.125   1.569   3.958
 1578HOH     H1 4921   2.166   1.550   3.874
 1578HOH     H2 4922   2.049   1.510   3.961
 1579HOH      O 4923   1.619   2.167   0.899
 1579HOH     H1 4924   1.704   2.163   0.943
 1579HOH     H2 4925   1.565   2.220   0.958
 1580HOH      O 4926   1.303   3.526   2.228
 1580HOH     H1 4927   1.355   3.465   2.176
 1580HOH     H2 4928   1.295   3.603   2.172
 1581HOH      O 4929   0.053   3.606   3.405
 1581HOH     H1 4930   0.036   3.528   3.458
 1581HOH     H2 4931   0.092   3.573   3.324
 1582HOH      O 4932   0.780   0.190   3.525
 1582HOH     H1 4933   0.859   0.178   3.473
 1582HOH     H2 4934   0.804   0.164   3.613
 1583HOH      O 4935   1.016   3.479   2.266
 1583HOH     H1 4936   1.109   3.481   2.244
 1583HOH     H2 4937   1.014   3.485   2.362
 1584HOH      O 4938   0.787   0.123   1.127
 1584HOH     H1 4939   0.783   0.028   1.135
 1584HOH     H2 4940   0.760   0.140   1.037
 1585HOH      O 4941   2.044   0.114   3.769
 1585HOH     H1 4942   2.013   0.111   3.678
 1585HOH     H2 4943   2.060   0.022   3.791
 1586HOH      O 4944   1.360   2.164   2.533
 1586HOH     H1 4945   1.374   2.162   2.439
 1586HOH     H2 4946   1.295   2.095   2.549
 1587HOH      O 4947   2.905   2.265   0.154
 1587HOH     H1 4948   2.865   2.182   0.131
 1587HOH     H2 4949   2.944   2.297   0.073
 1588HOH      O 4950   0.139   3.739   1.448
 1588HOH     H1 4951   0.064   3.767   1.501
 1588HOH     H2 4952   0.132   3.792   1.368
 1589HOH      O 4953   0.743   0.594   2.474
 1589HOH     H1 4954   0.800   0.577   2.400
 1589HOH     H2 4955   0.686   0.517   2.480
 1590HOH      O 4956   1.543   2.193   3.060
 1590HOH     H1 4957   1.484   2.126   3.093
 1590HOH     H2 4958   1.502   2.223   2.978
 1591HOH      O 4959   0.625   0.547   3.979
 1591HOH     H1 4960   0.707   0.595   3.969
 1591HOH     H2 4961   0.559   0.615   3.997
 1592HOH      O 4962   3.059   1.905   3.509
 1592HOH     H1 4963   2.984   1.899   3.450
 1592HOH     H2 4964   3.091   1.815   3.516
 1593HOH      O 4965   1.992   3.168   3.409
 1593HOH     H1 4966   1.977   3.259   3.381
 1593HOH     H2 4967   2.071   3.173   3.464
 1594HOH      O 4968   2.398   3.502   1.175
 1594HOH     H1 4969   2.397   3.585   1.127
 1594HOH     H2 4970   2.364   3.524   1.261
 1595HOH      O 4971   3.906   2.141   2.691
 1595HOH     H1 4972   3.877   2.067   2.743
 1595HOH     H2 4973   4.001   2.132   2.687
 1596HOH      O 4974   0.350   1.538   2.084
 1596HOH     H1 4975   0.336   1.452   2.123
 1596HOH     H2 4976   0.378   1.520   1.994
 1597HOH      O 4977   3.827   2.973   3.124
 1597HOH     H1 4978   3.754   3.035   3.131
 1597HOH     H2 4979   3.881   2.990   3.201
 1598HOH      O 4980   0.579   3.111   3.710
 1598HOH     H1 4981   0.597   3.167   3.635
 1598HOH     H2 4982   0.634   3.034   3.696
 1599HOH      O 4983   3.736   2.028   1.044
 1599HOH     H1 4984   3.668   1.977   1.000
 1599HOH     H2 4985   3.763   2.093   0.978
 1600HOH      O 4986   1.797   3.903   2.244
 1600HOH     H1 4987   1.715   3.876   2.286
 1600HOH     H2 4988   1.771   3.960   2.172
 1601HOH      O 4989   3.097   2.939   2.269
 1601HOH     H1 4990   3.179   2.891   2.284
 1601HOH     H2 4991   3.055   2.943   2.355
 1602HOH      O 4992   3.578   2.138   3.147
 1602HOH     H1 4993   3.553   2.202   3.214
 1602HOH     H2 4994   3.606   2.061   3.197
 1603HOH      O 4995   3.553   2.345   0.786
 1603HOH     H1 4996   3.620   2.276   0.787
 1603HOH     H2 4997   3.476   2.305   0.826
 1604HOH      O 4998   1.005   2.210   0.402
 1604HOH     H1 4999   0.966   2.177   0.483
 1604HOH     H2 5000   1.040   2.132   0.359
 1605HOH      O 5001   2.067   3.272   1.904
 1605HOH     H1 5002   2.062   3.191   1.955
 1605HOH     H2 5003   2.071   3.342   1.969
 1606HOH      O 5004   1.606   2.869   2.338
 1606HOH     H1 5005   1.668   2.872   2.412
 1606HOH     H2 5006   1.570   2.781   2.341
 1607HOH      O 5007   1.579   0.677   1.778
 1607HOH     H1 5008   1.503   0.721   1.740
 1607HOH     H2 5009   1.653   0.732   1.753
 1608HOH      O 5010   2.577   0.558   0.064
 1608HOH     H1 5011   2.504   0.581   0.007
 1608HOH     H2 5012   2.562   0.609   0.144
 1609HOH      O 5013   1.367   3.504   1.121
 1609HOH     H1 5014   1.329   3.427   1.162
 1609HOH     H2 5015   1.433   3.534   1.183
 1610HOH      O 5016   2.191   2.487   1.039
 1610HOH     H1 5017   2.242   2.409   1.061
 1610HOH     H2 5018   2.257   2.554   1.020
 1611HOH      O 5019   3.363   2.251   1.598
 1611HOH     H1 5020   3.387   2.173   1.549
 1611HOH     H2 5021   3.398   2.236   1.686
 1612HOH      O 5022   1.055   0.592   0.743
 1612HOH     H1 5023   1.075   0.502   0.718
 1612HOH     H2 5024   1.117   0.646   0.695
 1613HOH      O 5025   2.542   0.411   1.835
 1613HOH     H1 5026   2.612   0.435   1.774
 1613HOH     H2 5027   2.579   0.428   1.922
 1614HOH      O 5028   2.569   0.142   0.566
 1614HOH     H1 5029   2.646   0.101   0.606
 1614HOH     H2 5030   2.512   0.068   0.544
 1615HOH      O 5031   2.376   0.749   3.544
 1615HOH     H1 5032   2.414   0.661   3.542
 1615HOH     H2 5033   2.452   0.807   3.546
 1616HOH      O 5034   3.952   2.726   2.499
 1616HOH     H1 5035   3.877   2.755   2.551
 1616HOH     H2 5036   3.945   2.775   2.417
 1617HOH      O 5037   1.024   2.629   0.901
 1617HOH     H1 5038   1.017   2.608   0.808
 1617HOH     H2 5039   0.936   2.654   0.927
 1618HOH      O 5040   3.420   0.634   3.032
 1618HOH     H1 5041   3.506   0.660   2.999
 1618HOH     H2 5042   3.381   0.716   3.063
 1619HOH      O 5043   2.986   1.076   3.292
 1619HOH     H1 5044   2.996   1.129   3.371
 1619HOH     H2 5045   2.892   1.070   3.278
 1620HOH      O 5046   0.237   0.808   2.347
 1620HOH     H1 5047   0.190   0.824   2.429
 1620HOH     H2 5048   0.297   0.883   2.339
 1621HOH      O 5049   3.912   2.109   3.247
 1621HOH     H1 5050   3.997   2.102   3.204
 1621HOH     H2 5051   3.856   2.153   3.184
 1622HOH      O 5052   2.204   1.458   2.665
 1622HOH     H1 5053   2.123   1.504   2.688
 1622HOH     H2 5054   2.204   1.381   2.722
 1623HOH      O 5055   1.952   0.438   2.895
 1623HOH     H1 5056   1.907   0.465   2.976
 1623HOH     H2 5057   1.881   0.405   2.840
 1624HOH      O 5058   2.367   2.790   2.237
 1624HOH     H1 5059   2.454   2.792   2.198
 1624HOH     H2 5060   2.313   2.842   2.177
 1625HOH      O 5061   1.420   1.983   3.182
 1625HOH     H1 5062   1.381   1.969   3.269
 1625HOH     H2 5063   1.371   1.924   3.124
 1626HOH      O 5064   3.225   2.083   3.384
 1626HOH     H1 5065   3.279   2.061   3.308
 1626HOH     H2 5066   3.165   2.009   3.392
 1627HOH      O 5067   0.925   3.340   0.886
 1627HOH     H1 5068   0.881   3.323   0.803
 1627HOH     H2 5069   0.938   3.435   0.887
 1628HOH      O 5070   0.018   3.772   2.108
 1628HOH     H1 5071   0.058   3.733   2.030
 1628HOH     H2 5072  -0.072   3.791   2.082
 1629HOH      O 5073   2.280   2.356   0.692
 1629HOH     H1 5074   2.329   2.419   0.639
 1629HOH     H2 5075   2.198   2.401   0.713
 1630HOH      O 5076   3.582   0.979   0.573
 1630HOH     H1 5077   3.640   0.916   0.616
 1630HOH     H2 5078   3.496   0.963   0.612
 1631HOH      O 5079   0.776   3.992   0.700
 1631HOH     H1 5080   0.866   3.959   0.694
 1631HOH     H2 5081   0.765   4.047   0.623
 1632HOH      O 5082   0.575   2.105   3.612
 1632HOH     H1 5083   0.647   2.153   3.571
 1632HOH     H2 5084   0.560   2.030   3.554
 1633HOH      O 5085   1.101   0.346   0.039
 1633HOH     H1 5086   1.167   0.376  -0.024
 1633HOH     H2 5087   1.071   0.427   0.082
 1634HOH      O 5088   0.239   2.789   2.626
 1634HOH     H1 5089   0.219   2.701   2.656
 1634HOH     H2 5090   0.168   2.843   2.661
 1635HOH      O 5091   2.333   0.119   0.018
 1635HOH     H1 5092   2.237   0.118   0.022
 1635HOH     H2 5093   2.354   0.206  -0.018
 1636HOH      O 5094   1.336   2.870   0.743
 1636HOH     H1 5095   1.371   2.955   0.719
 1636HOH     H2 5096   1.378   2.808   0.683
 1637HOH      O 5097   1.734   0.538   3.068
 1637HOH     H1 5098   1.689   0.477   3.008
 1637HOH     H2 5099   1.713   0.505   3.155
 1638HOH      O 5100   2.731   0.448   2.655
 1638HOH     H1 5101   2.813   0.474   2.612
 1638HOH     H2 5102   2.758   0.383   2.720
 1639HOH      O 5103   0.472   2.450   3.019
 1639HOH     H1 5104   0.460   2.533   3.065
 1639HOH     H2 5105   0.554   2.415   3.054
 1640HOH      O 5106   3.191   0.634   2.304
 1640HOH     H1 5107   3.149   0.663   2.223
 1640HOH     H2 5108   3.280   0.611   2.278
 1641HOH      O 5109   0.869   1.030   0.092
 1641HOH     H1 5110   0.836   1.081   0.166
 1641HOH     H2 5111   0.878   1.094   0.021
 1642HOH      O 5112   3.497   1.084   1.021
 1642HOH     H1 5113   3.517   0.994   1.044
 1642HOH     H2 5114   3.408   1.098   1.054
 1643HOH      O 5115   1.424   2.445   3.273
 1643HOH     H1 5116   1.492   2.478   3.332
 1643HOH     H2 5117   1.470   2.385   3.215
 1644HOH      O 5118   0.199   1.133   1.937
 1644HOH     H1 5119   0.134   1.067   1.958
 1644HOH     H2 5120   0.232   1.162   2.022
 1645HOH      O 5121   3.618   2.687   2.497
 1645HOH     H1 5122   3.616   2.638   2.580
 1645HOH     H2 5123   3.658   2.771   2.520
 1646HOH      O 5124   1.603   1.020   2.165
 1646HOH     H1 5125   1.606   1.099   2.219
 1646HOH     H2 5126   1.578   0.950   2.225
 1647HOH      O 5127   1.893   3.754   1.502
 1647HOH     H1 5128   1.836   3.784   1.573
 1647HOH     H2 5129   1.967   3.816   1.502
 1648HOH      O 5130   1.228   3.171   2.278
 1648HOH     H1 5131   1.262   3.194   2.365
 1648HOH     H2 5132   1.268   3.236   2.219
 1649HOH      O 5133   1.436   3.326   2.097
 1649HOH     H1 5134   1.509   3.348   2.039
 1649HOH     H2 5135   1.474   3.269   2.164
 1650HOH      O 5136   0.252   2.833   0.555
 1650HOH     H1 5137   0.241   2.767   0.624
 1650HOH     H2 5138   0.342   2.863   0.565
 1651HOH      O 5139   2.380   0.319   2.105
 1651HOH     H1 5140   2.285   0.324   2.113
 1651HOH     H2 5141   2.398   0.229   2.078
 1652HOH      O 5142   2.837   3.080   2.004
 1652HOH     H1 5143   2.753   3.090   2.049
 1652HOH     H2 5144   2.878   3.005   2.046
 1653HOH      O 5145   3.193   2.234   1.899
 1653HOH     H1 5146   3.152   2.256   1.815
 1653HOH     H2 5147   3.133   2.169   1.938
 1654HOH      O 5148   0.343   2.274   1.117
 1654HOH     H1 5149   0.416   2.304   1.172
 1654HOH     H2 5150   0.356   2.179   1.110
 1655HOH      O 5151   2.659   1.529   2.447
 1655HOH     H1 5152   2.731   1.528   2.510
 1655HOH     H2 5153   2.582   1.504   2.499
 1656HOH      O 5154   1.386   1.440   3.443
 1656HOH     H1 5155   1.386   1.465   3.351
 1656HOH     H2 5156   1.363   1.521   3.489
 1657HOH      O 5157   2.496   3.224   0.319
 1657HOH     H1 5158   2.568   3.169   0.288
 1657HOH     H2 5159   2.536   3.311   0.327
 1658HOH      O 5160   2.696   0.793   2.595
 1658HOH     H1 5161   2.636   0.719   2.601
 1658HOH     H2 5162   2.643   0.866   2.563
 1659HOH      O 5163   1.437   0.252   0.353
 1659HOH     H1 5164   1.344   0.242   0.336
 1659HOH     H2 5165   1.464   0.325   0.298
 1660HOH      O 5166   1.116   3.007   1.876
 1660HOH     H1 5167   1.080   2.929   1.833
 1660HOH     H2 5168   1.130   2.978   1.967
 1661HOH      O 5169   2.801   2.910   1.315
 1661HOH     H1 5170   2.751   2.831   1.299
 1661HOH     H2 5171   2.744   2.964   1.369
 1662HOH      O 5172   2.427   0.373   2.348
 1662HOH     H1 5173   2.407   0.366   2.255
 1662HOH     H2 5174   2.430   0.283   2.379
 1663HOH      O 5175   0.097   3.347   0.743
 1663HOH     H1 5176   0.154   3.424   0.734
 1663HOH     H2 5177   0.011   3.378   0.715
 1664HOH      O 5178   2.639   3.565   3.094
 1664HOH     H1 5179   2.549   3.582   3.066
 1664HOH     H2 5180   2.646   3.469   3.094
 1665HOH      O 5181   0.518   2.952   2.900
 1665HOH     H1 5182   0.571   2.959   2.979
 1665HOH     H2 5183   0.560   3.013   2.838
 1666HOH      O 5184   0.297   3.959   1.003
 1666HOH     H1 5185   0.339   4.040   0.976
 1666HOH     H2 5186   0.367   3.894   1.001
 1667HOH      O 5187   1.752   0.838   0.188
 1667HOH     H1 5188   1.784   0.928   0.182
 1667HOH     H2 5189   1.718   0.819   0.101
 1668HOH      O 5190   0.144   3.939   1.247
 1668HOH     H1 5191   0.196   3.917   1.169
 1668HOH     H2 5192   0.185   4.018   1.282
 1669HOH      O 5193   1.376   3.831   1.448
 1669HOH     H1 5194   1.331   3.903   1.492
 1669HOH     H2 5195   1.366   3.756   1.507
 1670HOH      O 5196   1.482   2.863   0.490
 1670HOH     H1 5197   1.503   2.934   0.551
 1670HOH     H2 5198   1.546   2.873   0.420
 1671HOH      O 5199   3.138   3.265   0.236
 1671HOH     H1 5200   3.116   3.177   0.207
 1671HOH     H2 5201   3.102   3.322   0.169
 1672HOH      O 5202   0.978   3.869   0.102
 1672HOH     H1 5203   1.043   3.871   0.031
 1672HOH     H2 5204   0.939   3.782   0.096
 1673HOH      O 5205   2.861   1.834   2.726
 1673HOH     H1 5206   2.831   1.744   2.711
 1673HOH     H2 5207   2.869   1.841   2.821
 1674HOH      O 5208   0.022   1.172   3.397
 1674HOH     H1 5209   0.038   1.151   3.489
 1674HOH     H2 5210  -0.053   1.231   3.399
 1675HOH      O 5211   0.743   1.422   2.644
 1675HOH     H1 5212   0.669   1.461   2.598
 1675HOH     H2 5213   0.712   1.411   2.734
 1676HOH      O 5214   2.421   1.918   0.261
 1676HOH     H1 5215   2.395   1.863   0.335
 1676HOH     H2 5216   2.415   1.861   0.185
 1677HOH      O 5217   1.894   1.386   1.390
 1677HOH     H1 5218   1.857   1.403   1.304
 1677HOH     H2 5219   1.833   1.324   1.431
 1678HOH      O 5220   3.348   0.856   2.522
 1678HOH     H1 5221   3.338   0.946   2.490
 1678HOH     H2 5222   3.407   0.864   2.597
 1679HOH      O 5223   1.442   3.113   0.234
 1679HOH     H1 5224   1.520   3.061   0.251
 1679HOH     H2 5225   1.369   3.057   0.260
 1680HOH      O 5226   0.645   2.871   2.307
 1680HOH     H1 5227   0.683   2.802   2.254
 1680HOH     H2 5228   0.590   2.825   2.370
 1681HOH      O 5229   1.562   0.484   0.178
 1681HOH     H1 5230   1.551   0.554   0.243
 1681HOH     H2 5231   1.504   0.509   0.106
 1682HOH      O 5232   3.778   0.279   2.539
 1682HOH     H1 5233   3.730   0.217   2.485
 1682HOH     H2 5234   3.864   0.238   2.551
 1683HOH      O 5235   0.255   3.352   2.695
 1683HOH     H1 5236   0.331   3.411   2.687
 1683HOH     H2 5237   0.254   3.327   2.787
 1684HOH      O 5238   0.757   0.854   1.042
 1684HOH     H1 5239   0.819   0.836   1.113
 1684HOH     H2 5240   0.674   0.872   1.087
 1685HOH      O 5241   2.717   0.071   0.016
 1685HOH     H1 5242   2.713   0.167   0.010
 1685HOH     H2 5243   2.787   0.054   0.079
 1686HOH      O 5244   3.767   2.645   0.144
 1686HOH     H1 5245   3.761   2.560   0.099
 1686HOH     H2 5246   3.800   2.705   0.077
 1687HOH      O 5247   0.306   0.567   2.458
 1687HOH     H1 5248   0.316   0.601   2.547
 1687HOH     H2 5249   0.284   0.644   2.405
 1688HOH      O 5250   0.204   3.399   1.760
 1688HOH     H1 5251   0.207   3.303   1.762
 1688HOH     H2 5252   0.192   3.420   1.668
 1689HOH      O 5253   1.062   0.451   2.896
 1689HOH     H1 5254   1.056   0.356   2.907
 1689HOH     H2 5255   1.155   0.467   2.881
 1690HOH      O 5256   0.155   0.612   1.323
 1690HOH     H1 5257   0.163   0.697   1.366
 1690HOH     H2 5258   0.244   0.577   1.321
 1691HOH      O 5259   0.179   1.941   1.373
 1691HOH     H1 5260   0.193   1.873   1.440
 1691HOH     H2 5261   0.220   2.019   1.410
 1692HOH      O 5262   1.956   0.494   0.485
 1692HOH     H1 5263   2.010   0.461   0.557
 1692HOH     H2 5264   1.983   0.442   0.409
 1693HOH      O 5265   3.669   3.483   0.311
 1693HOH     H1 5266   3.633   3.558   0.358
 1693HOH     H2 5267   3.727   3.523   0.246
 1694HOH      O 5268   1.276   0.685   0.234
 1694HOH     H1 5269   1.292   0.670   0.141
 1694HOH     H2 5270   1.199   0.742   0.237
 1695HOH      O 5271   0.472   0.354   3.867
 1695HOH     H1 5272   0.512   0.439   3.888
 1695HOH     H2 5273   0.417   0.334   3.943
 1696HOH      O 5274   0.766   0.378   0.073
 1696HOH     H1 5275   0.730   0.406   0.157
 1696HOH     H2 5276   0.710   0.421   0.008
 1697HOH      O 5277   1.449   2.897   2.859
 1697HOH     H1 5278   1.489   2.976   2.895
 1697HOH     H2 5279   1.355   2.913   2.862
 1698HOH      O 5280   1.516   1.978   1.704
 1698HOH     H1 5281   1.546   1.960   1.793
 1698HOH     H2 5282   1.555   1.908   1.651
 1699HOH      O 5283   1.658   2.748   1.603
 1699HOH     H1 5284   1.732   2.693   1.578
 1699HOH     H2 5285   1.692   2.838   1.596
 1700HOH      O 5286   3.504   0.783   1.526
 1700HOH     H1 5287   3.574   0.823   1.578
 1700HOH     H2 5288   3.453   0.857   1.494
 1701HOH      O 5289   3.930   2.858   4.021
 1701HOH     H1 5290   3.872   2.894   3.954
 1701HOH     H2 5291   3.998   2.813   3.971
 1702HOH      O 5292   3.011   0.121   2.030
 1702HOH     H1 5293   3.037   0.121   2.122
 1702HOH     H2 5294   2.928   0.168   2.028
 1703HOH      O 5295   2.695   0.766   3.951
 1703HOH     H1 5296   2.666   0.840   4.005
 1703HOH     H2 5297   2.652   0.690   3.991
 1704HOH      O 5298   3.759   3.764   1.613
 1704HOH     H1 5299   3.761   3.675   1.579
 1704HOH     H2 5300   3.835   3.807   1.574
 1705HOH      O 5301   2.898   2.401   1.319
 1705HOH     H1 5302   2.924   2.399   1.411
 1705HOH     H2 5303   2.949   2.473   1.281
 1706HOH      O 5304   1.133   0.838   2.883
 1706HOH     H1 5305   1.119   0.852   2.977
 1706HOH     H2 5306   1.161   0.747   2.876
 1707HOH      O 5307   0.048   2.232   1.054
 1707HOH     H1 5308   0.024   2.139   1.062
 1707HOH     H2 5309   0.139   2.235   1.082
 1708HOH      O 5310   1.268   3.039   3.614
 1708HOH     H1 5311   1.299   3.107   3.674
 1708HOH     H2 5312   1.194   2.999   3.660
 1709HOH      O 5313   3.000   2.156   1.197
 1709HOH     H1 5314   2.924   2.214   1.199
 1709HOH     H2 5315   3.058   2.191   1.265
 1710HOH      O 5316   1.388   1.071   0.744
 1710HOH     H1 5317   1.422   0.987   0.712
 1710HOH     H2 5318   1.301   1.078   0.706
 1711HOH      O 5319   2.327   3.254   1.228
 1711HOH     H1 5320   2.363   3.339   1.203
 1711HOH     H2 5321   2.404   3.202   1.254
 1712HOH      O 5322   2.821   1.977   0.062
 1712HOH     H1 5323   2.822   1.921   0.139
 1712HOH     H2 5324   2.875   1.931  -0.002
 1713HOH      O 5325   3.107   3.584   2.330
 1713HOH     H1 5326   3.163   3.616   2.401
 1713HOH     H2 5327   3.079   3.663   2.285
 1714HOH      O 5328   2.973   3.327   3.049
 1714HOH     H1 5329   2.940   3.381   3.121
 1714HOH     H2 5330   3.016   3.389   2.991
 1715HOH      O 5331   1.927   3.682   2.370
 1715HOH     H1 5332   1.895   3.767   2.339
 1715HOH     H2 5333   1.853   3.645   2.418
 1716HOH      O 5334   1.997   2.406   0.338
 1716HOH     H1 5335   1.951   2.490   0.346
 1716HOH     H2 5336   1.927   2.343   0.319
 1717HOH      O 5337   0.071   0.771   3.393
 1717HOH     H1 5338   0.018   0.786   3.471
 1717HOH     H2 5339   0.154   0.815   3.412
 1718HOH      O 5340   1.709   3.046   4.005
 1718HOH     H1 5341   1.659   2.965   3.999
 1718HOH     H2 5342   1.653   3.112   3.965
 1719HOH      O 5343   1.525   2.556   1.862
 1719HOH     H1 5344   1.491   2.489   1.920
 1719HOH     H2 5345   1.508   2.639   1.907
 1720HOH      O 5346   3.894   3.627   0.198
 1720HOH     H1 5347   3.885   3.722   0.192
 1720HOH     H2 5348   3.945   3.603   0.120
 1721HOH      O 5349   1.895   1.951   0.776
 1721HOH     H1 5350   1.932   1.864   0.759
 1721HOH     H2 5351   1.848   1.974   0.695
 1722HOH      O 5352   1.334   0.609   3.702
 1722HOH     H1 5353   1.331   0.704   3.696
 1722HOH     H2 5354   1.250   0.580   3.666
 1723HOH      O 5355   3.321   2.688   2.433
 1723HOH     H1 5356   3.400   2.740   2.419
 1723HOH     H2 5357   3.311   2.685   2.528
 1724HOH      O 5358   3.367   1.337   0.232
 1724HOH     H1 5359   3.277   1.370   0.240
 1724HOH     H2 5360   3.360   1.264   0.170
 1725HOH      O 5361   0.249   3.565   0.798
 1725HOH     H1 5362   0.225   3.657   0.784
 1725HOH     H2 5363   0.211   3.543   0.883
 1726HOH      O 5364   0.294   1.041   1.532
 1726HOH     H1 5365   0.389   1.047   1.527
 1726HOH     H2 5366   0.277   0.948   1.548
 1727HOH      O 5367   3.848   3.150   2.640
 1727HOH     H1 5368   3.760   3.184   2.654
 1727HOH     H2 5369   3.904   3.228   2.638
 1728HOH      O 5370   3.977   2.420   0.472
 1728HOH     H1 5371   3.903   2.473   0.441
 1728HOH     H2 5372   4.054   2.475   0.458
 1729HOH      O 5373   3.892   2.924   2.278
 1729HOH     H1 5374   3.823   2.968   2.326
 1729HOH     H2 5375   3.958   2.992   2.262
 1730HOH      O 5376   3.137   1.628   2.237
 1730HOH     H1 5377   3.047   1.598   2.223
 1730HOH     H2 5378   3.155   1.607   2.329
 1731HOH      O 5379   2.468   3.139   3.508
 1731HOH     H1 5380   2.458   3.123   3.414
 1731HOH     H2 5381   2.380   3.155   3.540
 1732HOH      O 5382   3.211   0.943   2.855
 1732HOH     H1 5383   3.235   0.928   2.946
 1732HOH     H2 5384   3.254   0.871   2.808
 1733HOH      O 5385   2.823   2.076   3.012
 1733HOH     H1 5386   2.818   2.168   2.988
 1733HOH     H2 5387   2.913   2.064   3.043
 1734HOH      O 5388   1.830   3.056   2.247
 1734HOH     H1 5389   1.800   2.971   2.215
 1734HOH     H2 5390   1.751   3.101   2.274
 1735HOH      O 5391   0.458   1.348   3.440
 1735HOH     H1 5392   0.374   1.374   3.402
 1735HOH     H2 5393   0.442   1.260   3.475
 1736HOH      O 5394   0.708   1.225   0.530
 1736HOH     H1 5395   0.730   1.143   0.575
 1736HOH     H2 5396   0.681   1.284   0.601
 1737HOH      O 5397   1.569   3.745   1.186
 1737HOH     H1 5398   1.553   3.769   1.095
 1737HOH     H2 5399   1.655   3.703   1.185
 1738HOH      O 5400   0.811   2.965   3.649
 1738HOH     H1 5401   0.815   2.979   3.554
 1738HOH     H2 5402   0.902   2.950   3.675
 1739HOH      O 5403   0.348   3.873   0.429
 1739HOH     H1 5404   0.257   3.902   0.420
 1739HOH     H2 5405   0.354   3.797   0.371
 1740HOH      O 5406   1.394   3.584   2.486
 1740HOH     H1 5407   1.346   3.563   2.406
 1740HOH     H2 5408   1.354   3.528   2.553
 1741HOH      O 5409   1.855   1.621   0.933
 1741HOH     H1 5410   1.874   1.542   0.882
 1741HOH     H2 5411   1.807   1.588   1.009
 1742HOH      O 5412   1.509   3.707   2.852
 1742HOH     H1 5413   1.582   3.767   2.868
 1742HOH     H2 5414   1.433   3.765   2.843
 1743HOH      O 5415  -0.028   3.389   2.647
 1743HOH     H1 5416  -0.018   3.481   2.671
 1743HOH     H2 5417   0.054   3.348   2.676
 1744HOH      O 5418   1.759   0.066   1.283
 1744HOH     H1 5419   1.710  -0.003   1.328
 1744HOH     H2 5420   1.691   0.123   1.247
 1745HOH      O 5421   0.145   3.255   3.235
 1745HOH     H1 5422   0.231   3.228   3.205
 1745HOH     H2 5423   0.104   3.176   3.268
 1746HOH      O 5424   0.506   2.899   0.529
 1746HOH     H1 5425   0.581   2.846   0.502
 1746HOH     H2 5426   0.544   2.980   0.563
 1747HOH      O 5427   0.498   0.723   1.974
 1747HOH     H1 5428   0.433   0.653   1.977
 1747HOH     H2 5429   0.568   0.694   2.031
 1748HOH      O 5430   3.374   1.159   2.794
 1748HOH     H1 5431   3.308   1.227   2.790
 1748HOH     H2 5432   3.327   1.081   2.825
 1749HOH      O 5433   3.900   2.796   1.863
 1749HOH     H1 5434   3.868   2.852   1.793
 1749HOH     H2 5435   3.989   2.828   1.880
 1750HOH      O 5436   2.506   2.096   0.849
 1750HOH     H1 5437   2.440   2.027   0.840
 1750HOH     H2 5438   2.567   2.062   0.915
 1751HOH      O 5439   0.722   2.591   0.560
 1751HOH     H1 5440   0.737   2.573   0.653
 1751HOH     H2 5441   0.661   2.523   0.532
 1752HOH      O 5442   2.685   4.023   3.444
 1752HOH     H1 5443   2.590   4.016   3.451
 1752HOH     H2 5444   2.715   3.933   3.437
 1753HOH      O 5445   3.538   3.826   0.774
 1753HOH     H1 5446   3.581   3.880   0.840
 1753HOH     H2 5447   3.548   3.736   0.806
 1754HOH      O 5448   2.214   3.672   3.352
 1754HOH     H1 5449   2.233   3.729   3.277
 1754HOH     H2 5450   2.281   3.604   3.348
 1755HOH      O 5451   2.406   1.677   1.026
 1755HOH     H1 5452   2.334   1.623   0.992
 1755HOH     H2 5453   2.448   1.622   1.092
 1756HOH      O 5454   3.548   1.721   3.758
 1756HOH     H1 5455   3.518   1.636   3.790
 1756HOH     H2 5456   3.482   1.748   3.694
 1757HOH      O 5457   1.575   3.384   0.509
 1757HOH     H1 5458   1.606   3.474   0.517
 1757HOH     H2 5459   1.611   3.340   0.586
 1758HOH      O 5460   2.577   0.257   1.054
 1758HOH     H1 5461   2.638   0.186   1.073
 1758HOH     H2 5462   2.540   0.235   0.969
 1759HOH      O 5463   0.257   2.586   1.516
 1759HOH     H1 5464   0.197   2.633   1.458
 1759HOH     H2 5465   0.344   2.600   1.478
 1760HOH      O 5466   0.446   0.676   1.057
 1760HOH     H1 5467   0.509   0.704   1.123
 1760HOH     H2 5468   0.386   0.750   1.049
 1761HOH      O 5469   3.919   1.043   0.311
 1761HOH     H1 5470   3.983   1.101   0.270
 1761HOH     H2 5471   3.914   0.968   0.252
 1762HOH      O 5472   3.015   2.331   3.207
 1762HOH     H1 5473   2.920   2.344   3.203
 1762HOH     H2 5474   3.026   2.237   3.196
 1763HOH      O 5475   1.922   3.918   0.141
 1763HOH     H1 5476   1.983   3.869   0.086
 1763HOH     H2 5477   1.978   3.967   0.201
 1764HOH      O 5478   3.297   2.899   0.782
 1764HOH     H1 5479   3.349   2.829   0.742
 1764HOH     H2 5480   3.335   2.979   0.747
 1765HOH      O 5481   1.710   0.057   0.770
 1765HOH     H1 5482   1.781   0.054   0.705
 1765HOH     H2 5483   1.751   0.026   0.851
 1766HOH      O 5484   3.873   2.406   1.835
 1766HOH     H1 5485   3.838   2.475   1.891
 1766HOH     H2 5486   3.891   2.450   1.751
 1767HOH      O 5487   0.332   0.166   2.598
 1767HOH     H1 5488   0.426   0.169   2.581
 1767HOH     H2 5489   0.292   0.190   2.515
 1768HOH      O 5490   3.553   0.816   1.029
 1768HOH     H1 5491   3.485   0.805   0.963
 1768HOH     H2 5492   3.520   0.768   1.105
 1769HOH      O 5493   3.356   3.811   3.918
 1769HOH     H1 5494   3.306   3.778   3.844
 1769HOH     H2 5495   3.398   3.891   3.886
 1770HOH      O 5496   1.162   0.439   1.370
 1770HOH     H1 5497   1.094   0.427   1.303
 1770HOH     H2 5498   1.237   0.391   1.335
 1771HOH      O 5499   2.894   1.849   0.517
 1771HOH     H1 5500   2.944   1.920   0.558
 1771HOH     H2 5501   2.910   1.774   0.574
 1772HOH      O 5502   2.182   2.250   3.277
 1772HOH     H1 5503   2.166   2.267   3.184
 1772HOH     H2 5504   2.267   2.290   3.294
 1773HOH      O 5505   1.069   0.812   3.579
 1773HOH     H1 5506   1.084   0.718   3.592
 1773HOH     H2 5507   1.155   0.852   3.591
 1774HOH      O 5508   1.137   0.344   1.992
 1774HOH     H1 5509   1.060   0.378   2.036
 1774HOH     H2 5510   1.202   0.334   2.061
 1775HOH      O 5511   3.029   0.378   0.761
 1775HOH     H1 5512   2.957   0.316   0.773
 1775HOH     H2 5513   3.065   0.390   0.848
 1776HOH      O 5514   2.660   1.410   3.625
 1776HOH     H1 5515   2.576   1.364   3.633
 1776HOH     H2 5516   2.636   1.503   3.630
 1777HOH      O 5517   1.388   2.287   1.053
 1777HOH     H1 5518   1.351   2.368   1.018
 1777HOH     H2 5519   1.345   2.277   1.138
 1778HOH      O 5520   1.317   3.964   0.236
 1778HOH     H1 5521   1.275   4.049   0.232
 1778HOH     H2 5522   1.257   3.909   0.287
 1779HOH      O 5523   2.297   1.796   2.173
 1779HOH     H1 5524   2.336   1.830   2.253
 1779HOH     H2 5525   2.336   1.709   2.163
 1780HOH      O 5526   2.621   2.373   0.688
 1780HOH     H1 5527   2.641   2.452   0.638
 1780HOH     H2 5528   2.659   2.302   0.636
 1781HOH      O 5529   3.605   3.135   3.150
 1781HOH     H1 5530   3.555   3.121   3.231
 1781HOH     H2 5531   3.579   3.222   3.121
 1782HOH      O 5532   3.074   3.537   1.139
 1782HOH     H1 5533   3.077   3.442   1.131
 1782HOH     H2 5534   3.014   3.554   1.212
 1783HOH      O 5535   1.737   1.561   1.172
 1783HOH     H1 5536   1.755   1.626   1.240
 1783HOH     H2 5537   1.667   1.507   1.207
 1784HOH      O 5538   3.132   1.642   3.523
 1784HOH     H1 5539   3.214   1.607   3.489
 1784HOH     H2 5540   3.148   1.654   3.616
 1785HOH      O 5541   3.813   3.456   1.929
 1785HOH     H1 5542   3.846   3.512   1.858
 1785HOH     H2 5543   3.853   3.371   1.913
 1786HOH      O 5544   3.566   0.568   0.724
 1786HOH     H1 5545   3.615   0.650   0.715
 1786HOH     H2 5546   3.510   0.583   0.801
 1787HOH      O 5547   2.700   2.522   0.459
 1787HOH     H1 5548   2.726   2.527   0.367
 1787HOH     H2 5549   2.721   2.608   0.495
 1788HOH      O 5550   2.745   3.391   0.426
 1788HOH     H1 5551   2.682   3.441   0.478
 1788HOH     H2 5552   2.747   3.433   0.341
 1789HOH      O 5553   1.951   3.306   0.558
 1789HOH     H1 5554   1.981   3.305   0.649
 1789HOH     H2 5555   2.008   3.370   0.515
 1790HOH      O 5556   3.418   3.229   2.140
 1790HOH     H1 5557   3.445   3.256   2.052
 1790HOH     H2 5558   3.437   3.306   2.195
 1791HOH      O 5559   1.861   1.151   1.119
 1791HOH     H1 5560   1.777   1.105   1.111
 1791HOH     H2 5561   1.901   1.114   1.198
 1792HOH      O 5562   3.815   1.330   3.451
 1792HOH     H1 5563   3.735   1.277   3.456
 1792HOH     H2 5564   3.802   1.386   3.374
 1793HOH      O 5565   3.587   1.421   1.587
 1793HOH     H1 5566   3.638   1.502   1.584
 1793HOH     H2 5567   3.591   1.394   1.679
 1794HOH      O 5568   3.601   2.085   0.111
 1794HOH     H1 5569   3.546   2.018   0.070
 1794HOH     H2 5570   3.542   2.131   0.171
 1795HOH      O 5571   2.002   2.865   3.346
 1795HOH     H1 5572   1.911   2.886   3.364
 1795HOH     H2 5573   2.016   2.781   3.391
 1796HOH      O 5574   1.003   0.614   3.120
 1796HOH     H1 5575   0.978   0.558   3.193
 1796HOH     H2 5576   0.975   0.567   3.042
 1797HOH      O 5577   2.703   3.922   3.840
 1797HOH     H1 5578   2.791   3.903   3.807
 1797HOH     H2 5579   2.718   3.969   3.922
 1798HOH      O 5580   1.221   0.223   0.880
 1798HOH     H1 5581   1.301   0.176   0.905
 1798HOH     H2 5582   1.171   0.159   0.829
 1799HOH      O 5583   2.186   2.128   0.945
 1799HOH     H1 5584   2.132   2.055   0.916
 1799HOH     H2 5585   2.163   2.200   0.885
 1800HOH      O 5586   2.073   1.875   1.362
 1800HOH     H1 5587   2.155   1.864   1.313
 1800HOH     H2 5588   2.101   1.895   1.451
 1801HOH      O 5589   0.100   0.451   2.051
 1801HOH     H1 5590   0.043   0.378   2.078
 1801HOH     H2 5591   0.077   0.522   2.110
 1802HOH      O 5592   0.848   2.120   0.639
 1802HOH     H1 5593   0.867   2.045   0.695
 1802HOH     H2 5594   0.754   2.111   0.619
 1803HOH      O 5595   0.534   0.061   1.353
 1803HOH     H1 5596   0.528   0.063   1.448
 1803HOH     H2 5597   0.577  -0.022   1.333
 1804HOH      O 5598   3.941   0.811   3.624
 1804HOH     H1 5599   3.874   0.863   3.579
 1804HOH     H2 5600   3.898   0.728   3.643
 1805HOH      O 5601   3.618   2.392   0.473
 1805HOH     H1 5602   3.636   2.482   0.499
 1805HOH     H2 5603   3.602   2.345   0.555
 1806HOH      O 5604   3.224   3.555   1.481
 1806HOH     H1 5605   3.250   3.463   1.492
 1806HOH     H2 5606   3.306   3.604   1.484
 1807HOH      O 5607   3.097   2.588   0.520
 1807HOH     H1 5608   3.066   2.536   0.447
 1807HOH     H2 5609   3.096   2.678   0.487
 1808HOH      O 5610   1.768   2.066   2.910
 1808HOH     H1 5611   1.725   1.995   2.863
 1808HOH     H2 5612   1.727   2.066   2.997
 1809HOH      O 5613   0.471   2.089   1.358
 1809HOH     H1 5614   0.412   2.139   1.414
 1809HOH     H2 5615   0.442   1.999   1.365
 1810HOH      O 5616   2.228   0.328   1.162
 1810HOH     H1 5617   2.182   0.272   1.224
 1810HOH     H2 5618   2.201   0.417   1.185
 1811HOH      O 5619   3.099   2.749   3.133
 1811HOH     H1 5620   3.074   2.779   3.220
 1811HOH     H2 5621   3.114   2.829   3.083
 1812HOH      O 5622   1.905   1.822   3.167
 1812HOH     H1 5623   1.853   1.902   3.170
 1812HOH     H2 5624   1.880   1.780   3.085
 1813HOH      O 5625   1.701   3.486   3.269
 1813HOH     H1 5626   1.745   3.546   3.329
 1813HOH     H2 5627   1.647   3.431   3.326
 1814HOH      O 5628   0.084   2.594   0.120
 1814HOH     H1 5629   0.030   2.618   0.196
 1814HOH     H2 5630   0.160   2.549   0.157
 1815HOH      O 5631   0.668   3.733   0.737
 1815HOH     H1 5632   0.725   3.695   0.670
 1815HOH     H2 5633   0.710   3.815   0.760
 1816HOH      O 5634   2.769   0.558   1.455
 1816HOH     H1 5635   2.688   0.521   1.420
 1816HOH     H2 5636   2.763   0.652   1.436
 1817HOH      O 5637   1.967   3.381   0.949
 1817HOH     H1 5638   1.921   3.387   1.033
 1817HOH     H2 5639   1.991   3.289   0.941
 1818HOH      O 5640   1.622   1.268   0.566
 1818HOH     H1 5641   1.579   1.184   0.583
 1818HOH     H2 5642   1.588   1.296   0.481
 1819HOH      O 5643   3.769   2.979   3.805
 1819HOH     H1 5644   3.749   3.072   3.812
 1819HOH     H2 5645   3.694   2.941   3.760
 1820HOH      O 5646   2.142   1.488   3.265
 1820HOH     H1 5647   2.220   1.436   3.246
 1820HOH     H2 5648   2.091   1.433   3.325
 1821HOH      O 5649   0.127   3.486   1.069
 1821HOH     H1 5650   0.116   3.457   1.159
 1821HOH     H2 5651   0.038   3.504   1.038
 1822HOH      O 5652   1.642   2.881   0.270
 1822HOH     H1 5653   1.701   2.954   0.248
 1822HOH     H2 5654   1.662   2.814   0.204
 1823HOH      O 5655   3.172   1.409   3.972
 1823HOH     H1 5656   3.263   1.386   3.953
 1823HOH     H2 5657   3.136   1.332   4.015
 1824HOH      O 5658   0.761   2.491   2.774
 1824HOH     H1 5659   0.827   2.473   2.841
 1824HOH     H2 5660   0.708   2.561   2.811
 1825HOH      O 5661   0.528   2.593   1.506
 1825HOH     H1 5662   0.543   2.580   1.600
 1825HOH     H2 5663   0.594   2.657   1.480
 1826HOH      O 5664   3.815   2.621   0.394
 1826HOH     H1 5665   3.798   2.699   0.447
 1826HOH     H2 5666   3.773   2.640   0.310
 1827HOH      O 5667   0.319   3.694   2.011
 1827HOH     H1 5668   0.329   3.774   1.959
 1827HOH     H2 5669   0.388   3.699   2.076
 1828HOH      O 5670   1.155   2.513   3.290
 1828HOH     H1 5671   1.239   2.467   3.285
 1828HOH     H2 5672   1.163   2.570   3.366
 1829HOH      O 5673   0.286   2.799   2.936
 1829HOH     H1 5674   0.373   2.840   2.936
 1829HOH     H2 5675   0.295   2.723   2.879
 1830HOH      O 5676   0.811   0.606   1.380
 1830HOH     H1 5677   0.860   0.528   1.352
 1830HOH     H2 5678   0.799   0.595   1.474
 1831HOH      O 5679   3.173   3.197   0.509
 1831HOH     H1 5680   3.174   3.232   0.420
 1831HOH     H2 5681   3.087   3.220   0.543
 1832HOH      O 5682   1.256   1.783   3.029
 1832HOH     H1 5683   1.296   1.699   3.006
 1832HOH     H2 5684   1.275   1.841   2.955
 1833HOH      O 5685   1.145   3.599   0.974
 1833HOH     H1 5686   1.166   3.635   0.888
 1833HOH     H2 5687   1.216   3.536   0.992
 1834HOH      O 5688   1.627   1.899   0.228
 1834HOH     H1 5689   1.648   1.810   0.254
 1834HOH     H2 5690   1.535   1.896   0.201
 1835HOH      O 5691   3.464   1.559   0.851
 1835HOH     H1 5692   3.474   1.514   0.935
 1835HOH     H2 5693   3.369   1.570   0.841
 1836HOH      O 5694   1.350   3.292   3.824
 1836HOH     H1 5695   1.437   3.291   3.863
 1836HOH     H2 5696   1.354   3.361   3.758
 1837HOH      O 5697   1.250   2.893   1.012
 1837HOH     H1 5698   1.254   2.872   0.919
 1837HOH     H2 5699   1.331   2.942   1.029
 1838HOH      O 5700   0.219   2.844   0.079
 1838HOH     H1 5701   0.271   2.776   0.035
 1838HOH     H2 5702   0.128   2.814   0.070
 1839HOH      O 5703   3.341   0.068   1.697
 1839HOH     H1 5704   3.425   0.022   1.698
 1839HOH     H2 5705   3.356   0.145   1.752
 1840HOH      O 5706   2.491   0.899   0.245
 1840HOH     H1 5707   2.581   0.906   0.212
 1840HOH     H2 5708   2.436   0.922   0.171
 1841HOH      O 5709   1.041   0.329   1.590
 1841HOH     H1 5710   1.083   0.342   1.505
 1841HOH     H2 5711   0.962   0.279   1.571
 1842HOH      O 5712   0.097   0.491   2.809
 1842HOH     H1 5713   0.062   0.562   2.863
 1842HOH     H2 5714   0.182   0.470   2.849
 1843HOH      O 5715   3.425   2.796   0.426
 1843HOH     H1 5716   3.450   2.754   0.343
 1843HOH     H2 5717   3.497   2.776   0.486
 1844HOH      O 5718   2.513   1.459   1.180
 1844HOH     H1 5719   2.565   1.478   1.258
 1844HOH     H2 5720   2.432   1.421   1.215
 1845HOH      O 5721   1.438   2.172   1.504
 1845HOH     H1 5722   1.434   2.110   1.576
 1845HOH     H2 5723   1.501   2.134   1.443
 1846HOH      O 5724   2.051   2.496   0.770
 1846HOH     H1 5725   1.971   2.445   0.771
 1846HOH     H2 5726   2.080   2.499   0.861
 1847HOH      O 5727   1.622   3.973   3.885
 1847HOH     H1 5728   1.685   4.018   3.941
 1847HOH     H2 5729   1.539   3.982   3.931
 1848HOH      O 5730   3.297   3.603   2.567
 1848HOH     H1 5731   3.229   3.553   2.612
 1848HOH     H2 5732   3.290   3.691   2.605
 1849HOH      O 5733   2.352   2.394   2.430
 1849HOH     H1 5734   2.273   2.368   2.383
 1849HOH     H2 5735   2.339   2.362   2.519
 1850HOH      O 5736   0.805   2.162   3.003
 1850HOH     H1 5737   0.856   2.177   2.924
 1850HOH     H2 5738   0.775   2.249   3.030
 1851HOH      O 5739   0.828   0.420   0.878
 1851HOH     H1 5740   0.860   0.471   0.804
 1851HOH     H2 5741   0.737   0.447   0.889
 1852HOH      O 5742   3.116   3.183   0.809
 1852HOH     H1 5743   3.093   3.161   0.718
 1852HOH     H2 5744   3.208   3.156   0.817
 1853HOH      O 5745   1.974   2.391   2.597
 1853HOH     H1 5746   1.907   2.337   2.638
 1853HOH     H2 5747   2.041   2.401   2.664
 1854HOH      O 5748   3.800   1.630   3.448
 1854HOH     H1 5749   3.896   1.638   3.451
 1854HOH     H2 5750   3.769   1.712   3.487
 1855HOH      O 5751   3.078   1.274   2.512
 1855HOH     H1 5752   2.994   1.229   2.524
 1855HOH     H2 5753   3.136   1.206   2.479
 1856HOH      O 5754   1.211   3.561   1.399
 1856HOH     H1 5755   1.260   3.486   1.363
 1856HOH     H2 5756   1.245   3.571   1.488
 1857HOH      O 5757   0.311   1.051   3.675
 1857HOH     H1 5758   0.342   0.992   3.607
 1857HOH     H2 5759   0.383   1.055   3.739
 1858HOH      O 5760   1.894   0.717   1.295
 1858HOH     H1 5761   1.916   0.736   1.203
 1858HOH     H2 5762   1.976   0.690   1.334
 1859HOH      O 5763   2.804   0.443   1.695
 1859HOH     H1 5764   2.829   0.352   1.679
 1859HOH     H2 5765   2.792   0.481   1.608
 1860HOH      O 5766   0.214   3.732   3.120
 1860HOH     H1 5767   0.186   3.773   3.202
 1860HOH     H2 5768   0.169   3.648   3.119
 1861HOH      O 5769   1.694   3.598   2.527
 1861HOH     H1 5770   1.700   3.611   2.621
 1861HOH     H2 5771   1.601   3.579   2.512
 1862HOH      O 5772   3.849   0.381   1.476
 1862HOH     H1 5773   3.828   0.405   1.566
 1862HOH     H2 5774   3.767   0.345   1.441
 1863HOH      O 5775   0.117   2.956   1.416
 1863HOH     H1 5776   0.195   2.930   1.367
 1863HOH     H2 5777   0.122   3.051   1.421
 1864HOH      O 5778   3.838   2.751   0.805
 1864HOH     H1 5779   3.894   2.828   0.804
 1864HOH     H2 5780   3.898   2.677   0.796
 1865HOH      O 5781   0.244   1.278   1.701
 1865HOH     H1 5782   0.234   1.199   1.647
 1865HOH     H2 5783   0.226   1.249   1.790
 1866HOH      O 5784   3.804   0.814   2.222
 1866HOH     H1 5785   3.713   0.842   2.223
 1866HOH     H2 5786   3.854   0.893   2.242
 1867HOH      O 5787   2.489   3.931   0.024
 1867HOH     H1 5788   2.428   4.002   0.044
 1867HOH     H2 5789   2.573   3.976   0.010
 1868HOH      O 5790   1.365   1.909   2.803
 1868HOH     H1 5791   1.394   1.846   2.736
 1868HOH     H2 5792   1.279   1.937   2.774
 1869HOH      O 5793   0.635   2.527   0.852
 1869HOH     H1 5794   0.540   2.527   0.864
 1869HOH     H2 5795   0.662   2.438   0.876
 1870HOH      O 5796   1.544   3.119   3.225
 1870HOH     H1 5797   1.469   3.067   3.252
 1870HOH     H2 5798   1.546   3.192   3.286
 1871HOH      O 5799   2.413   3.906   0.624
 1871HOH     H1 5800   2.453   3.867   0.546
 1871HOH     H2 5801   2.336   3.853   0.641
 1872HOH      O 5802   0.455   1.400   0.277
 1872HOH     H1 5803   0.380   1.459   0.283
 1872HOH     H2 5804   0.423   1.317   0.311
 1873HOH      O 5805   0.676   0.972   3.409
 1873HOH     H1 5806   0.650   0.954   3.319
 1873HOH     H2 5807   0.659   0.890   3.456
 1874HOH      O 5808   3.687   1.920   3.285
 1874HOH     H1 5809   3.773   1.960   3.275
 1874HOH     H2 5810   3.689   1.877   3.370
 1875HOH      O 5811   1.400   3.963   3.660
 1875HOH     H1 5812   1.350   3.977   3.741
 1875HOH     H2 5813   1.489   3.943   3.690
 1876HOH      O 5814   1.838   3.024   3.761
 1876HOH     H1 5815   1.879   2.938   3.751
 1876HOH     H2 5816   1.811   3.028   3.852
 1877HOH      O 5817   1.584   3.627   3.977
 1877HOH     H1 5818   1.637   3.674   3.913
 1877HOH     H2 5819   1.498   3.667   3.972
 1878HOH      O 5820   0.854   1.176   2.413
 1878HOH     H1 5821   0.909   1.098   2.416
 1878HOH     H2 5822   0.831   1.186   2.321
 1879HOH      O 5823   3.729   0.796   0.722
 1879HOH     H1 5824   3.810   0.813   0.675
 1879HOH     H2 5825   3.731   0.856   0.796
 1880HOH      O 5826   3.422   0.709   1.241
 1880HOH     H1 5827   3.339   0.664   1.230
 1880HOH     H2 5828   3.448   0.691   1.332
 1881HOH      O 5829   0.065   3.481   3.120
 1881HOH     H1 5830   0.095   3.406   3.171
 1881HOH     H2 5831  -0.005   3.446   3.065
 1882HOH      O 5832   0.106   3.860   0.312
 1882HOH     H1 5833   0.032   3.838   0.368
 1882HOH     H2 5834   0.121   3.781   0.261
 1883HOH      O 5835   2.320   3.264   0.083
 1883HOH     H1 5836   2.373   3.283   0.160
 1883HOH     H2 5837   2.347   3.329   0.018
 1884HOH      O 5838   2.690   1.164   1.114
 1884HOH     H1 5839   2.617   1.154   1.174
 1884HOH     H2 5840   2.652   1.152   1.027
 1885HOH      O 5841   0.190   1.055   0.765
 1885HOH     H1 5842   0.123   1.008   0.714
 1885HOH     H2 5843   0.150   1.139   0.787
 1886HOH      O 5844   3.416   0.697   3.738
 1886HOH     H1 5845   3.330   0.715   3.777
 1886HOH     H2 5846   3.396   0.662   3.651
 1887HOH      O 5847   1.185   0.176   0.245
 1887HOH     H1 5848   1.141   0.231   0.180
 1887HOH     H2 5849   1.134   0.186   0.325
 1888HOH      O 5850   3.702   2.776   1.021
 1888HOH     H1 5851   3.766   2.754   0.953
 1888HOH     H2 5852   3.628   2.717   1.003
 1889HOH      O 5853   3.267   3.422   3.833
 1889HOH     H1 5854   3.199   3.489   3.824
 1889HOH     H2 5855   3.312   3.422   3.748
 1890HOH      O 5856   0.735   1.605   0.528
 1890HOH     H1 5857   0.689   1.527   0.558
 1890HOH     H2 5858   0.690   1.630   0.447
 1891HOH      O 5859   1.024   1.378   2.178
 1891HOH     H1 5860   0.945   1.340   2.139
 1891HOH     H2 5861   1.074   1.303   2.209
 1892HOH      O 5862   2.441   0.240   0.833
 1892HOH     H1 5863   2.396   0.324   0.847
 1892HOH     H2 5864   2.478   0.247   0.745
 1893HOH      O 5865   1.284   0.476   0.850
 1893HOH     H1 5866   1.239   0.394   0.872
 1893HOH     H2 5867   1.322   0.460   0.764
 1894HOH      O 5868   2.428   0.013   3.749
 1894HOH     H1 5869   2.426   0.097   3.796
 1894HOH     H2 5870   2.511  -0.026   3.774
 1895HOH      O 5871   2.731   3.526   1.230
 1895HOH     H1 5872   2.664   3.534   1.298
 1895HOH     H2 5873   2.805   3.485   1.275
 1896HOH      O 5874   3.805   1.063   0.766
 1896HOH     H1 5875   3.839   1.096   0.682
 1896HOH     H2 5876   3.775   1.142   0.811
 1897HOH      O 5877   3.801   1.983   2.409
 1897HOH     H1 5878   3.813   2.043   2.483
 1897HOH     H2 5879   3.777   2.040   2.336
 1898HOH      O 5880   3.673   1.539   2.741
 1898HOH     H1 5881   3.582   1.513   2.754
 1898HOH     H2 5882   3.712   1.534   2.828
 1899HOH      O 5883   1.765   2.362   0.697
 1899HOH     H1 5884   1.846   2.315   0.675
 1899HOH     H2 5885   1.700   2.293   0.711
 1900HOH      O 5886   0.228   0.958   2.839
 1900HOH     H1 5887   0.232   0.970   2.933
 1900HOH     H2 5888   0.145   0.998   2.813
 1901HOH      O 5889   1.143   2.681   3.490
 1901HOH     H1 5890   1.130   2.661   3.582
 1901HOH     H2 5891   1.238   2.692   3.481
 1902HOH      O 5892   3.291   0.906   2.113
 1902HOH     H1 5893   3.269   0.993   2.081
 1902HOH     H2 5894   3.227   0.848   2.071
 1903HOH      O 5895   2.053   3.382   1.292
 1903HOH     H1 5896   2.090   3.467   1.316
 1903HOH     H2 5897   2.129   3.330   1.265
 1904HOH      O 5898   1.862   1.539   2.450
 1904HOH     H1 5899   1.928   1.498   2.395
 1904HOH     H2 5900   1.779   1.506   2.416
 1905HOH      O 5901   0.483   1.209   3.117
 1905HOH     H1 5902   0.414   1.219   3.183
 1905HOH     H2 5903   0.508   1.299   3.095
 1906HOH      O 5904   3.556   0.520   3.920
 1906HOH     H1 5905   3.639   0.564   3.935
 1906HOH     H2 5906   3.505   0.583   3.868
 1907HOH      O 5907   3.109   0.863   1.280
 1907HOH     H1 5908   3.123   0.937   1.338
 1907HOH     H2 5909   3.014   0.854   1.274
 1908HOH      O 5910   3.331   3.267   1.499
 1908HOH     H1 5911   3.314   3.256   1.406
 1908HOH     H2 5912   3.421   3.239   1.511
 1909HOH      O 5913   2.611   1.621   0.706
 1909HOH     H1 5914   2.654   1.579   0.632
 1909HOH     H2 5915   2.599   1.552   0.770
 1910HOH      O 5916   1.788   1.492   0.497
 1910HOH     H1 5917   1.729   1.544   0.443
 1910HOH     H2 5918   1.734   1.420   0.529
 1911HOH      O 5919   2.823   1.443   2.998
 1911HOH     H1 5920   2.820   1.383   2.924
 1911HOH     H2 5921   2.754   1.507   2.981
 1912HOH      O 5922   0.798   1.558   2.281
 1912HOH     H1 5923   0.851   1.588   2.207
 1912HOH     H2 5924   0.777   1.637   2.329
 1913HOH      O 5925   3.726   2.575   3.299
 1913HOH     H1 5926   3.800   2.602   3.353
 1913HOH     H2 5927   3.728   2.636   3.225
 1914HOH      O 5928   3.781   0.221   3.314
 1914HOH     H1 5929   3.781   0.158   3.241
 1914HOH     H2 5930   3.725   0.181   3.380
 1915HOH      O 5931   0.565   0.399   2.459
 1915HOH     H1 5932   0.537   0.320   2.411
 1915HOH     H2 5933   0.488   0.455   2.459
 1916HOH      O 5934   0.125   3.478   1.538
 1916HOH     H1 5935   0.150   3.569   1.522
 1916HOH     H2 5936   0.079   3.451   1.458
 1917HOH      O 5937   1.856   1.287   0.074
 1917HOH     H1 5938   1.897   1.284  -0.012
 1917HOH     H2 5939   1.885   1.369   0.112
 1918HOH      O 5940   0.550   0.265   1.196
 1918HOH     H1 5941   0.633   0.253   1.149
 1918HOH     H2 5942   0.544   0.187   1.251
 1919HOH      O 5943   2.741   0.821   3.413
 1919HOH     H1 5944   2.737   0.908   3.372
 1919HOH     H2 5945   2.696   0.831   3.496
 1920HOH      O 5946   0.054   0.362   0.324
 1920HOH     H1 5947   0.016   0.352   0.236
 1920HOH     H2 5948   0.119   0.431   0.314
 1921HOH      O 5949   2.686   3.813   1.137
 1921HOH     H1 5950   2.699   3.721   1.161
 1921HOH     H2 5951   2.765   3.836   1.087
 1922HOH      O 5952   0.900   1.884   3.526
 1922HOH     H1 5953   0.909   1.798   3.484
 1922HOH     H2 5954   0.983   1.929   3.506
 1923HOH      O 5955   0.089   3.107   0.051
 1923HOH     H1 5956   0.150   3.033   0.058
 1923HOH     H2 5957   0.102   3.156   0.132
 1924HOH      O 5958   1.575   1.210   0.047
 1924HOH     H1 5959   1.669   1.224   0.031
 1924HOH     H2 5960   1.555   1.127   0.006
 1925HOH      O 5961   3.136   2.322   3.731
 1925HOH     H1 5962   3.070   2.261   3.697
 1925HOH     H2 5963   3.211   2.266   3.751
 1926HOH      O 5964   2.887   3.879   1.874
 1926HOH     H1 5965   2.885   3.850   1.966
 1926HOH     H2 5966   2.827   3.819   1.829
 1927HOH      O 5967   3.347   1.560   2.085
 1927HOH     H1 5968   3.375   1.629   2.026
 1927HOH     H2 5969   3.255   1.582   2.105
 1928HOH      O 5970   3.615   3.531   2.086
 1928HOH     H1 5971   3.653   3.519   2.173
 1928HOH     H2 5972   3.687   3.511   2.026
 1929HOH      O 5973   0.854   0.911   3.747
 1929HOH     H1 5974   0.802   0.991   3.736
 1929HOH     H2 5975   0.945   0.942   3.745
 1930HOH      O 5976   0.241   2.096   1.912
 1930HOH     H1 5977   0.205   2.185   1.911
 1930HOH     H2 5978   0.302   2.096   1.985
 1931HOH      O 5979   0.235   1.730   3.326
 1931HOH     H1 5980   0.295   1.717   3.252
 1931HOH     H2 5981   0.276   1.682   3.398
 1932HOH      O 5982   3.845   0.193   2.829
 1932HOH     H1 5983   3.912   0.190   2.761
 1932HOH     H2 5984   3.877   0.259   2.891
 1933HOH      O 5985   0.603   2.736   1.228
 1933HOH     H1 5986   0.646   2.797   1.168
 1933HOH     H2 5987   0.664   2.727   1.301
 1934HOH      O 5988   2.317   2.508   3.003
 1934HOH     H1 5989   2.361   2.439   3.053
 1934HOH     H2 5990   2.332   2.588   3.053
 1935HOH      O 5991   0.276   0.399   3.131
 1935HOH     H1 5992   0.355   0.346   3.129
 1935HOH     H2 5993   0.305   0.485   3.162
 1936HOH      O 5994   0.683   2.748   0.292
 1936HOH     H1 5995   0.771   2.776   0.314
 1936HOH     H2 5996   0.673   2.663   0.335
 1937HOH      O 5997   3.568   0.784   0.088
 1937HOH     H1 5998   3.553   0.878   0.082
 1937HOH     H2 5999   3.638   0.767   0.025
 1938HOH      O 6000   2.958   0.836   2.364
 1938HOH     H1 6001   3.052   0.819   2.360
 1938HOH     H2 6002   2.918   0.754   2.333
 1939HOH      O 6003   1.689   2.530   3.380
 1939HOH     H1 6004   1.716   2.551   3.470
 1939HOH     H2 6005   1.737   2.450   3.359
 1940HOH      O 6006   1.804   0.531   2.611
 1940HOH     H1 6007   1.836   0.599   2.671
 1940HOH     H2 6008   1.853   0.546   2.530
 1941HOH      O 6009   1.893   1.667   1.642
 1941HOH     H1 6010   1.890   1.660   1.737
 1941HOH     H2 6011   1.968   1.614   1.615
 1942HOH      O 6012   0.756   1.903   3.061
 1942HOH     H1 6013   0.836   1.875   3.105
 1942HOH     H2 6014   0.780   1.984   3.016
 1943HOH      O 6015   3.649   0.732   0.355
 1943HOH     H1 6016   3.571   0.703   0.404
 1943HOH     H2 6017   3.615   0.751   0.268
 1944HOH      O 6018   2.465   1.049   2.096
 1944HOH     H1 6019   2.391   1.050   2.157
 1944HOH     H2 6020   2.451   0.971   2.042
 1945HOH      O 6021   0.930   0.361   2.183
 1945HOH     H1 6022   0.862   0.303   2.147
 1945HOH     H2 6023   1.003   0.302   2.203
 1946HOH      O 6024   1.581   3.308   3.985
 1946HOH     H1 6025   1.606   3.401   3.984
 1946HOH     H2 6026   1.529   3.299   4.065
 1947HOH      O 6027   3.638   3.718   0.531
 1947HOH     H1 6028   3.589   3.747   0.454
 1947HOH     H2 6029   3.625   3.787   0.595
 1948HOH      O 6030   1.974   2.410   1.982
 1948HOH     H1 6031   1.944   2.434   1.894
 1948HOH     H2 6032   1.920   2.462   2.041
 1949HOH      O 6033   0.566   2.546   2.552
 1949HOH     H1 6034   0.547   2.487   2.479
 1949HOH     H2 6035   0.639   2.505   2.598
 1950HOH      O 6036   3.248   1.753   3.125
 1950HOH     H1 6037   3.300   1.793   3.056
 1950HOH     H2 6038   3.304   1.755   3.202
 1951HOH      O 6039   3.048   0.103   1.047
 1951HOH     H1 6040   3.039   0.169   1.116
 1951HOH     H2 6041   3.142   0.102   1.027
 1952HOH      O 6042   3.745   0.711   2.613
 1952HOH     H1 6043   3.791   0.783   2.571
 1952HOH     H2 6044   3.667   0.751   2.650
 1953HOH      O 6045   0.954   1.011   3.434
 1953HOH     H1 6046   0.865   0.986   3.411
 1953HOH     H2 6047   0.983   0.944   3.495
 1954HOH      O 6048   3.589   0.250   3.971
 1954HOH     H1 6049   3.600   0.241   4.066
 1954HOH     H2 6050   3.578   0.344   3.958
 1955HOH      O 6051   2.066   1.366   0.411
 1955HOH     H1 6052   2.055   1.315   0.491
 1955HOH     H2 6053   1.981   1.408   0.398
 1956HOH      O 6054   0.289   1.812   0.766
 1956HOH     H1 6055   0.283   1.729   0.813
 1956HOH     H2 6056   0.206   1.819   0.719
 1957HOH      O 6057   2.177   2.077   0.635
 1957HOH     H1 6058   2.261   2.031   0.630
 1957HOH     H2 6059   2.199   2.169   0.621
 1958HOH      O 6060   3.789   0.877   1.807
 1958HOH     H1 6061   3.817   0.790   1.836
 1958HOH     H2 6062   3.696   0.881   1.829
 1959HOH      O 6063   3.675   0.073   2.370
 1959HOH     H1 6064   3.621   0.150   2.347
 1959HOH     H2 6065   3.618   0.022   2.428
 1960HOH      O 6066   1.708   3.825   1.723
 1960HOH     H1 6067   1.755   3.789   1.798
 1960HOH     H2 6068   1.688   3.916   1.749
 1961HOH      O 6069   3.485   2.045   1.464
 1961HOH     H1 6070   3.564   2.015   1.509
 1961HOH     H2 6071   3.473   1.982   1.392
 1962HOH      O 6072   0.686   2.331   3.450
 1962HOH     H1 6073   0.637   2.409   3.474
 1962HOH     H2 6074   0.765   2.334   3.505
 1963HOH      O 6075   2.374   0.067   2.010
 1963HOH     H1 6076   2.332   0.051   1.926
 1963HOH     H2 6077   2.431  -0.009   2.024
 1964HOH      O 6078   1.165   1.308   0.607
 1964HOH     H1 6079   1.119   1.391   0.597
 1964HOH     H2 6080   1.235   1.326   0.669
 1965HOH      O 6081   4.004   0.256   0.763
 1965HOH     H1 6082   4.081   0.308   0.783
 1965HOH     H2 6083   3.950   0.313   0.708
 1966HOH      O 6084   0.375   1.861   3.665
 1966HOH     H1 6085   0.379   1.780   3.715
 1966HOH     H2 6086   0.448   1.854   3.603
 1967HOH      O 6087   3.321   3.418   1.852
 1967HOH     H1 6088   3.342   3.469   1.775
 1967HOH     H2 6089   3.402   3.371   1.873
 1968HOH      O 6090   3.039   2.366   3.980
 1968HOH     H1 6091   3.078   2.355   3.893
 1968HOH     H2 6092   3.072   2.451   4.010
 1969HOH      O 6093   1.199   1.226   3.466
 1969HOH     H1 6094   1.180   1.159   3.401
 1969HOH     H2 6095   1.264   1.283   3.424
 1970HOH      O 6096   1.124   2.006   1.006
 1970HOH     H1 6097   1.084   2.022   1.091
 1970HOH     H2 6098   1.179   1.929   1.018
 1971HOH      O 6099   1.433   0.788   1.573
 1971HOH     H1 6100   1.375   0.851   1.531
 1971HOH     H2 6101   1.472   0.738   1.501
 1972HOH      O 6102   1.952   3.506   3.824
 1972HOH     H1 6103   1.885   3.445   3.794
 1972HOH     H2 6104   1.951   3.498   3.919
 1973HOH      O 6105   1.957   0.255   2.304
 1973HOH     H1 6106   1.906   0.219   2.376
 1973HOH     H2 6107   2.018   0.185   2.281
 1974HOH      O 6108   1.906   2.801   2.159
 1974HOH     H1 6109   1.958   2.784   2.238
 1974HOH     H2 6110   1.834   2.737   2.164
 1975HOH      O 6111   0.829   0.145   1.409
 1975HOH     H1 6112   0.887   0.069   1.415
 1975HOH     H2 6113   0.820   0.161   1.315
 1976HOH      O 6114   0.702   3.821   0.460
 1976HOH     H1 6115   0.715   3.867   0.543
 1976HOH     H2 6116   0.663   3.886   0.402
 1977HOH      O 6117   3.186   2.140   2.794
 1977HOH     H1 6118   3.146   2.203   2.854
 1977HOH     H2 6119   3.257   2.188   2.753
 1978HOH      O 6120   1.639   1.886   1.976
 1978HOH     H1 6121   1.695   1.936   2.036
 1978HOH     H2 6122   1.701   1.833   1.925
 1979HOH      O 6123   2.693   3.747   0.526
 1979HOH     H1 6124   2.637   3.719   0.454
 1979HOH     H2 6125   2.678   3.682   0.595
 1980HOH      O 6126   2.667   2.951   1.784
 1980HOH     H1 6127   2.595   2.888   1.774
 1980HOH     H2 6128   2.640   3.007   1.857
 1981HOH      O 6129   1.855   1.682   1.925
 1981HOH     H1 6130   1.908   1.695   2.003
 1981HOH     H2 6131   1.850   1.587   1.915
 1982HOH      O 6132   1.062   2.375   0.169
 1982HOH     H1 6133   1.079   2.373   0.263
 1982HOH     H2 6134   1.014   2.294   0.152
 1983HOH      O 6135   2.434   3.328   1.669
 1983HOH     H1 6136   2.491   3.340   1.593
 1983HOH     H2 6137   2.349   3.361   1.642
 1984HOH      O 6138   2.195   1.552   1.865
 1984HOH     H1 6139   2.120   1.512   1.821
 1984HOH     H2 6140   2.228   1.483   1.923
 1985HOH      O 6141   3.015   0.856   3.135
 1985HOH     H1 6142   3.020   0.947   3.164
 1985HOH     H2 6143   2.936   0.853   3.081
 1986HOH      O 6144   0.988   2.013   1.487
 1986HOH     H1 6145   1.055   1.968   1.436
 1986HOH     H2 6146   0.905   1.974   1.457
 1987HOH      O 6147   1.857   2.885   1.875
 1987HOH     H1 6148   1.915   2.892   1.952
 1987HOH     H2 6149   1.777   2.846   1.910
 1988HOH      O 6150   0.519   3.757   0.980
 1988HOH     H1 6151   0.507   3.670   1.019
 1988HOH     H2 6152   0.541   3.739   0.889
 1989HOH      O 6153   3.200   0.930   3.466
 1989HOH     H1 6154   3.184   0.883   3.548
 1989HOH     H2 6155   3.124   0.909   3.411
 1990HOH      O 6156   3.841   3.735   3.304
 1990HOH     H1 6157   3.936   3.735   3.318
 1990HOH     H2 6158   3.803   3.713   3.389
 1991HOH      O 6159   3.477   3.943   2.497
 1991HOH     H1 6160   3.385   3.915   2.503
 1991HOH     H2 6161   3.517   3.909   2.577
 1992HOH      O 6162   3.088   1.065   1.465
 1992HOH     H1 6163   3.061   1.146   1.424
 1992HOH     H2 6164   3.179   1.079   1.488
 1993HOH      O 6165   1.537   3.080   0.648
 1993HOH     H1 6166   1.543   3.144   0.720
 1993HOH     H2 6167   1.611   3.102   0.591
 1994HOH      O 6168   0.387   0.744   0.737
 1994HOH     H1 6169   0.455   0.682   0.711
 1994HOH     H2 6170   0.435   0.823   0.761
 1995HOH      O 6171   0.796   1.993   1.716
 1995HOH     H1 6172   0.793   2.023   1.625
 1995HOH     H2 6173   0.855   2.055   1.760
 1996HOH      O 6174   2.601   2.669   3.895
 1996HOH     H1 6175   2.542   2.698   3.964
 1996HOH     H2 6176   2.612   2.575   3.911
 1997HOH      O 6177   3.433   2.331   3.919
 1997HOH     H1 6178   3.468   2.403   3.867
 1997HOH     H2 6179   3.464   2.348   4.008
 1998HOH      O 6180   2.052   3.104   1.013
 1998HOH     H1 6181   2.075   3.012   1.017
 1998HOH     H2 6182   2.108   3.140   0.944
 1999HOH      O 6183   0.042   2.494   2.148
 1999HOH     H1 6184  -0.033   2.550   2.167
 1999HOH     H2 6185   0.095   2.498   2.227
 2000HOH      O 6186   0.019   1.806   0.386
 2000HOH     H1 6187  -0.065   1.843   0.358
 2000HOH     H2 6188   0.085   1.862   0.345
 2001HOH      O 6189   0.346   1.641   3.817
 2001HOH     H1 6190   0.266   1.610   3.860
 2001HOH     H2 6191   0.417   1.603   3.870
 2002HOH      O 6192   3.953   3.534   1.732
 2002HOH     H1 6193   3.990   3.623   1.736
 2002HOH     H2 6194   4.029   3.478   1.716
 2003HOH      O 6195   2.084   0.027   3.490
 2003HOH     H1 6196   2.038  -0.040   3.441
 2003HOH     H2 6197   2.174   0.023   3.458
 2004HOH      O 6198   3.230   0.862   0.654
 2004HOH     H1 6199   3.182   0.801   0.711
 2004HOH     H2 6200   3.183   0.945   0.664
 2005HOH      O 6201   2.041   2.649   0.075
 2005HOH     H1 6202   2.097   2.614   0.145
 2005HOH     H2 6203   1.953   2.620   0.098
 2006HOH      O 6204   2.110   3.485   0.462
 2006HOH     H1 6205   2.068   3.570   0.472
 2006HOH     H2 6206   2.183   3.487   0.523
 2007HOH      O 6207   0.752   3.407   2.391
 2007HOH     H1 6208   0.832   3.434   2.345
 2007HOH     H2 6209   0.691   3.385   2.321
 2008HOH      O 6210   0.537   2.456   1.238
 2008HOH     H1 6211   0.527   2.459   1.333
 2008HOH     H2 6212   0.532   2.548   1.211
 2009HOH      O 6213   0.739   3.199   3.939
 2009HOH     H1 6214   0.697   3.243   4.013
 2009HOH     H2 6215   0.676   3.208   3.867
 2010HOH      O 6216   0.238   1.315   3.740
 2010HOH     H1 6217   0.159   1.339   3.692
 2010HOH     H2 6218   0.240   1.219   3.737
 2011HOH      O 6219   0.793   0.702   1.943
 2011HOH     H1 6220   0.851   0.650   1.888
 2011HOH     H2 6221   0.740   0.753   1.882
 2012HOH      O 6222   3.813   2.170   0.453
 2012HOH     H1 6223   3.869   2.168   0.376
 2012HOH     H2 6224   3.815   2.261   0.482
 2013HOH      O 6225   2.907   2.601   3.674
 2013HOH     H1 6226   3.000   2.579   3.679
 2013HOH     H2 6227   2.868   2.529   3.626
 2014HOH      O 6228   1.933   0.217   0.381
 2014HOH     H1 6229   1.882   0.235   0.302
 2014HOH     H2 6230   2.023   0.242   0.359
 2015HOH      O 6231   1.437   3.734   3.524
 2015HOH     H1 6232   1.526   3.768   3.510
 2015HOH     H2 6233   1.389   3.806   3.563
 2016HOH      O 6234   1.590   1.874   3.877
 2016HOH     H1 6235   1.596   1.792   3.926
 2016HOH     H2 6236   1.669   1.875   3.823
 2017HOH      O 6237   2.268   2.143   1.468
 2017HOH     H1 6238   2.262   2.061   1.517
 2017HOH     H2 6239   2.334   2.194   1.514
 2018HOH      O 6240   1.859   1.320   0.865
 2018HOH     H1 6241   1.783   1.319   0.923
 2018HOH     H2 6242   1.926   1.269   0.911
 2019HOH      O 6243   0.945   2.466   3.591
 2019HOH     H1 6244   0.961   2.559   3.607
 2019HOH     H2 6245   0.965   2.424   3.675
 2020HOH      O 6246   3.850   3.991   3.169
 2020HOH     H1 6247   3.943   4.010   3.157
 2020HOH     H2 6248   3.848   3.904   3.210
 2021HOH      O 6249   0.279   3.276   2.960
 2021HOH     H1 6250   0.334   3.221   3.016
 2021HOH     H2 6251   0.192   3.236   2.966
 2022HOH      O 6252   0.496   1.121   1.853
 2022HOH     H1 6253   0.526   1.055   1.916
 2022HOH     H2 6254   0.401   1.108   1.850
 2023HOH      O 6255   0.207   2.675   0.786
 2023HOH     H1 6256   0.134   2.613   0.788
 2023HOH     H2 6257   0.282   2.626   0.820
 2024HOH      O 6258   2.463   2.556   0.956
 2024HOH     H1 6259   2.526   2.544   1.027
 2024HOH     H2 6260   2.447   2.651   0.954
 2025HOH      O 6261   2.533   2.109   3.271
 2025HOH     H1 6262   2.498   2.108   3.360
 2025HOH     H2 6263   2.569   2.022   3.258
 2026HOH      O 6264   1.373   1.701   2.150
 2026HOH     H1 6265   1.342   1.718   2.061
 2026HOH     H2 6266   1.297   1.666   2.196
 2027HOH      O 6267   3.417   1.711   0.573
 2027HOH     H1 6268   3.422   1.685   0.665
 2027HOH     H2 6269   3.403   1.629   0.525
 2028HOH      O 6270   2.918   0.100   2.554
 2028HOH     H1 6271   2.958   0.144   2.628
 2028HOH     H2 6272   2.825   0.122   2.560
 2029HOH      O 6273   2.745   2.222   0.447
 2029HOH     H1 6274   2.686   2.174   0.389
 2029HOH     H2 6275   2.711   2.311   0.446
 2030HOH      O 6276   2.412   2.169   3.916
 2030HOH     H1 6277   2.459   2.086   3.910
 2030HOH     H2 6278   2.355   2.160   3.991
 2031HOH      O 6279   4.029   1.656   1.703
 2031HOH     H1 6280   3.953   1.712   1.718
 2031HOH     H2 6281   4.093   1.686   1.767
 2032HOH      O 6282   0.696   3.014   3.333
 2032HOH     H1 6283   0.751   2.936   3.341
 2032HOH     H2 6284   0.695   3.033   3.239
 2033HOH      O 6285   2.774   3.649   3.989
 2033HOH     H1 6286   2.797   3.590   3.917
 2033HOH     H2 6287   2.726   3.721   3.946
 2034HOH      O 6288   0.766   3.686   1.928
 2034HOH     H1 6289   0.766   3.598   1.892
 2034HOH     H2 6290   0.833   3.684   1.997
 2035HOH      O 6291   3.681   2.299   1.472
 2035HOH     H1 6292   3.653   2.292   1.381
 2035HOH     H2 6293   3.675   2.210   1.506
 2036HOH      O 6294   1.208   3.482   2.987
 2036HOH     H1 6295   1.267   3.533   3.042
 2036HOH     H2 6296   1.238   3.391   2.996
 2037HOH      O 6297   3.713   3.342   1.592
 2037HOH     H1 6298   3.754   3.290   1.661
 2037HOH     H2 6299   3.658   3.279   1.544
 2038HOH      O 6300   3.248   1.169   2.042
 2038HOH     H1 6301   3.179   1.228   2.071
 2038HOH     H2 6302   3.327   1.224   2.042
 2039HOH      O 6303   0.882   1.341   3.709
 2039HOH     H1 6304   0.962   1.365   3.662
 2039HOH     H2 6305   0.811   1.367   3.650
 2040HOH      O 6306   1.128   3.289   1.925
 2040HOH     H1 6307   1.185   3.315   1.852
 2040HOH     H2 6308   1.122   3.194   1.917
 2041HOH      O 6309   1.443   0.681   0.477
 2041HOH     H1 6310   1.411   0.704   0.389
 2041HOH     H2 6311   1.537   0.672   0.466
 2042HOH      O 6312   0.980   2.635   0.180
 2042HOH     H1 6313   1.019   2.556   0.142
 2042HOH     H2 6314   0.971   2.615   0.273
 2043HOH      O 6315   1.302   3.332   0.622
 2043HOH     H1 6316   1.353   3.355   0.700
 2043HOH     H2 6317   1.362   3.349   0.549
 2044HOH      O 6318   3.754   1.549   0.349
 2044HOH     H1 6319   3.807   1.524   0.425
 2044HOH     H2 6320   3.724   1.466   0.312
 2045HOH      O 6321   2.694   3.555   2.670
 2045HOH     H1 6322   2.679   3.649   2.681
 2045HOH     H2 6323   2.704   3.544   2.575
 2046HOH      O 6324   3.288   2.665   2.702
 2046HOH     H1 6325   3.325   2.582   2.735
 2046HOH     H2 6326   3.255   2.709   2.781
 2047HOH      O 6327   0.721   2.875   1.695
 2047HOH     H1 6328   0.810   2.869   1.660
 2047HOH     H2 6329   0.716   2.963   1.734
 2048HOH      O 6330   1.719   0.661   0.413
 2048HOH     H1 6331   1.769   0.586   0.444
 2048HOH     H2 6332   1.785   0.719   0.375
 2049HOH      O 6333   3.121   3.944   3.539
 2049HOH     H1 6334   3.165   3.957   3.455
 2049HOH     H2 6335   3.130   4.029   3.583
 2050HOH      O 6336   2.504   2.132   3.568
 2050HOH     H1 6337   2.426   2.101   3.614
 2050HOH     H2 6338   2.567   2.061   3.577
 2051HOH      O 6339   2.658   1.228   1.961
 2051HOH     H1 6340   2.640   1.170   2.034
 2051HOH     H2 6341   2.749   1.211   1.938
 2052HOH      O 6342   2.897   0.450   0.415
 2052HOH     H1 6343   2.901   0.508   0.491
 2052HOH     H2 6344   2.804   0.430   0.405
 2053HOH      O 6345   2.198   2.893   3.876
 2053HOH     H1 6346   2.271   2.939   3.918
 2053HOH     H2 6347   2.121   2.916   3.929
 2054HOH      O 6348   0.719   0.195   2.122
 2054HOH     H1 6349   0.737   0.114   2.074
 2054HOH     H2 6350   0.653   0.170   2.187
 2055HOH      O 6351   3.797   3.610   3.779
 2055HOH     H1 6352   3.711   3.567   3.770
 2055HOH     H2 6353   3.786   3.695   3.736
 2056HOH      O 6354   2.725   1.043   3.256
 2056HOH     H1 6355   2.641   1.088   3.259
 2056HOH     H2 6356   2.737   1.021   3.163
 2057HOH      O 6357   2.548   3.076   2.319
 2057HOH     H1 6358   2.482   3.126   2.368
 2057HOH     H2 6359   2.602   3.035   2.386
 2058HOH      O 6360   2.033   3.211   3.844
 2058HOH     H1 6361   1.968   3.146   3.817
 2058HOH     H2 6362   2.054   3.259   3.764
 2059HOH      O 6363   3.619   2.328   3.344
 2059HOH     H1 6364   3.684   2.303   3.409
 2059HOH     H2 6365   3.650   2.412   3.310
 2060HOH      O 6366   0.390   0.656   0.381
 2060HOH     H1 6367   0.360   0.738   0.343
 2060HOH     H2 6368   0.485   0.656   0.369
 2061HOH      O 6369   2.874   3.988   1.378
 2061HOH     H1 6370   2.836   3.939   1.451
 2061HOH     H2 6371   2.949   3.935   1.351
 2062HOH      O 6372   3.562   0.955   2.179
 2062HOH     H1 6373   3.567   1.049   2.197
 2062HOH     H2 6374   3.471   0.940   2.155
 2063HOH      O 6375   3.337   0.357   3.788
 2063HOH     H1 6376   3.320   0.450   3.802
 2063HOH     H2 6377   3.381   0.328   3.868
 2064HOH      O 6378   3.396   1.522   2.759
 2064HOH     H1 6379   3.354   1.593   2.710
 2064HOH     H2 6380   3.324   1.469   2.792
 2065HOH      O 6381   3.462   0.153   1.983
 2065HOH     H1 6382   3.408   0.231   1.995
 2065HOH     H2 6383   3.430   0.092   2.050
 2066HOH      O 6384   2.779   1.640   1.108
 2066HOH     H1 6385   2.714   1.689   1.158
 2066HOH     H2 6386   2.732   1.607   1.032
 2067HOH      O 6387   1.787   3.007   1.553
 2067HOH     H1 6388   1.849   2.996   1.481
 2067HOH     H2 6389   1.822   3.081   1.603
 2068HOH      O 6390   0.694   0.871   1.773
 2068HOH     H1 6391   0.639   0.939   1.813
 2068HOH     H2 6392   0.773   0.917   1.745
 2069HOH      O 6393   2.094   1.742   0.278
 2069HOH     H1 6394   2.082   1.690   0.357
 2069HOH     H2 6395   2.134   1.823   0.308
 2070HOH      O 6396   3.598   1.164   1.449
 2070HOH     H1 6397   3.646   1.090   1.486
 2070HOH     H2 6398   3.631   1.241   1.495
 2071HOH      O 6399   2.110   3.609   0.918
 2071HOH     H1 6400   2.075   3.521   0.930
 2071HOH     H2 6401   2.059   3.663   0.978
 2072HOH      O 6402   1.367   0.096   2.205
 2072HOH     H1 6403   1.347   0.007   2.234
 2072HOH     H2 6404   1.457   0.091   2.173
 2073HOH      O 6405   3.361   1.097   3.299
 2073HOH     H1 6406   3.294   1.050   3.348
 2073HOH     H2 6407   3.317   1.175   3.268
 2074HOH      O 6408   2.385   0.327   3.776
 2074HOH     H1 6409   2.415   0.403   3.726
 2074HOH     H2 6410   2.333   0.364   3.847
 2075HOH      O 6411   3.491   2.661   1.709
 2075HOH     H1 6412   3.469   2.582   1.660
 2075HOH     H2 6413   3.523   2.629   1.794
 2076HOH      O 6414   2.394   0.079   3.483
 2076HOH     H1 6415   2.386   0.043   3.571
 2076HOH     H2 6416   2.412   0.172   3.498
 2077HOH      O 6417   0.121   0.730   0.833
 2077HOH     H1 6418   0.200   0.740   0.886
 2077HOH     H2 6419   0.074   0.812   0.845
 2078HOH      O 6420   0.238   0.724   3.920
 2078HOH     H1 6421   0.299   0.726   3.846
 2078HOH     H2 6422   0.192   0.640   3.910
 2079HOH      O 6423   2.302   3.444   2.545
 2079HOH     H1 6424   2.218   3.407   2.572
 2079HOH     H2 6425   2.350   3.369   2.510
 2080HOH      O 6426   0.073   0.243   3.042
 2080HOH     H1 6427   0.108   0.195   2.967
 2080HOH     H2 6428   0.149   0.289   3.079
 2081HOH      O 6429   3.997   0.952   0.918
 2081HOH     H1 6430   3.952   1.008   0.855
 2081HOH     H2 6431   3.943   0.957   0.997
 2082HOH      O 6432   2.277   2.683   0.285
 2082HOH     H1 6433   2.231   2.765   0.304
 2082HOH     H2 6434   2.316   2.657   0.369
 2083HOH      O 6435   2.258   2.311   3.741
 2083HOH     H1 6436   2.268   2.396   3.783
 2083HOH     H2 6437   2.319   2.254   3.789
 2084HOH      O 6438   2.000   3.101   2.481
 2084HOH     H1 6439   2.041   3.029   2.433
 2084HOH     H2 6440   1.907   3.080   2.481
 2085HOH      O 6441   2.277   0.911   1.236
 2085HOH     H1 6442   2.322   0.831   1.209
 2085HOH     H2 6443   2.224   0.885   1.311
 2086HOH      O 6444   2.560   3.050   2.047
 2086HOH     H1 6445   2.473   3.051   2.006
 2086HOH     H2 6446   2.542   3.049   2.141
 2087HOH      O 6447   2.739   2.325   3.233
 2087HOH     H1 6448   2.679   2.253   3.211
 2087HOH     H2 6449   2.687   2.404   3.219
 2088HOH      O 6450   3.512   3.385   3.139
 2088HOH     H1 6451   3.577   3.455   3.136
 2088HOH     H2 6452   3.428   3.431   3.133
 2089HOH      O 6453   2.382   3.870   2.538
 2089HOH     H1 6454   2.302   3.828   2.567
 2089HOH     H2 6455   2.411   3.819   2.462
 2090HOH      O 6456   0.951   2.100   0.094
 2090HOH     H1 6457   0.992   2.054   0.167
 2090HOH     H2 6458   0.899   2.033   0.049
 2091HOH      O 6459   4.051   3.162   2.926
 2091HOH     H1 6460   4.028   3.110   3.004
 2091HOH     H2 6461   3.984   3.230   2.922
 2092HOH      O 6462   0.876   1.139   0.950
 2092HOH     H1 6463   0.787   1.104   0.943
 2092HOH     H2 6464   0.921   1.105   0.872
 2093HOH      O 6465   3.841   1.952   0.612
 2093HOH     H1 6466   3.827   2.028   0.556
 2093HOH     H2 6467   3.802   1.879   0.564
 2094HOH      O 6468   0.200   1.224   2.261
 2094HOH     H1 6469   0.182   1.164   2.334
 2094HOH     H2 6470   0.293   1.211   2.241
 2095HOH      O 6471   3.423   3.197   2.631
 2095HOH     H1 6472   3.455   3.271   2.580
 2095HOH     H2 6473   3.407   3.233   2.718
 2096HOH      O 6474   1.410   2.776   2.616
 2096HOH     H1 6475   1.502   2.791   2.593
 2096HOH     H2 6476   1.401   2.814   2.703
 2097HOH      O 6477   1.075   0.728   2.330
 2097HOH     H1 6478   1.012   0.673   2.282
 2097HOH     H2 6479   1.160   0.702   2.296
 2098HOH      O 6480   2.634   2.944   0.797
 2098HOH     H1 6481   2.724   2.972   0.814
 2098HOH     H2 6482   2.640   2.889   0.719
 2099HOH      O 6483   3.342   2.258   2.588
 2099HOH     H1 6484   3.390   2.319   2.644
 2099HOH     H2 6485   3.391   2.257   2.506
 2100HOH      O 6486   1.087   3.835   3.610
 2100HOH     H1 6487   1.057   3.794   3.529
 2100HOH     H2 6488   1.078   3.929   3.594
 2101HOH      O 6489   1.643   1.003   1.205
 2101HOH     H1 6490   1.573   1.008   1.140
 2101HOH     H2 6491   1.643   0.912   1.233
 2102HOH      O 6492   0.965   3.886   3.145
 2102HOH     H1 6493   1.036   3.947   3.164
 2102HOH     H2 6494   0.982   3.858   3.055
 2103HOH      O 6495   3.146   0.594   1.259
 2103HOH     H1 6496   3.084   0.544   1.313
 2103HOH     H2 6497   3.134   0.685   1.288
 2104HOH      O 6498   2.654   0.196   2.541
 2104HOH     H1 6499   2.693   0.280   2.565
 2104HOH     H2 6500   2.591   0.178   2.610
 2105HOH      O 6501   0.529   3.666   3.426
 2105HOH     H1 6502   0.574   3.686   3.344
 2105HOH     H2 6503   0.596   3.680   3.494
 2106HOH      O 6504   1.543   1.376   1.261
 2106HOH     H1 6505   1.452   1.373   1.291
 2106HOH     H2 6506   1.590   1.319   1.322
 2107HOH      O 6507   3.996   0.961   2.008
 2107HOH     H1 6508   4.052   0.884   1.999
 2107HOH     H2 6509   3.917   0.940   1.958
 2108HOH      O 6510   2.061   2.614   1.712
 2108HOH     H1 6511   1.975   2.620   1.754
 2108HOH     H2 6512   2.048   2.651   1.624
 2109HOH      O 6513   2.366   3.749   3.653
 2109HOH     H1 6514   2.392   3.802   3.728
 2109HOH     H2 6515   2.441   3.754   3.593
 2110HOH      O 6516   3.567   0.274   2.924
 2110HOH     H1 6517   3.574   0.179   2.938
 2110HOH     H2 6518   3.555   0.310   3.012
 2111HOH      O 6519   1.331   3.351   2.613
 2111HOH     H1 6520   1.390   3.325   2.683
 2111HOH     H2 6521   1.244   3.334   2.647
   4.02727   4.02727   4.02727   0.00000   0.00000   0.00000   0.00000   0.00000   0.00000
