Generated with MDTraj, t= 498.0
 6521
    1MOL     O1    1   2.001   0.896   2.006
    1MOL     O2    2   1.909   0.994   1.842
    1MOL     N1    3   1.980   0.905   1.885
    1MOL     C1    4   1.988   0.781   1.796
    1MOL     C2    5   1.953   0.791   1.664
    1MOL     C3    6   2.018   0.654   1.850
    1MOL     C4    7   1.951   0.678   1.581
    1MOL     C5    8   2.022   0.538   1.772
    1MOL     C6    9   1.984   0.548   1.636
    1MOL     C7   10   1.918   0.691   1.434
    1MOL     O3   11   1.858   0.792   1.395
    1MOL     O4   12   1.942   0.602   1.363
    1MOL     H1   13   1.929   0.883   1.611
    1MOL     H2   14   2.024   0.642   1.958
    1MOL     H3   15   2.054   0.439   1.805
    1MOL     H4   16   1.988   0.471   1.560
    2OCB     C1   17   1.539   0.873   3.240
    2OCB     C2   18   1.362   0.729   3.077
    2OCB     C3   19   1.484   0.756   3.282
    2OCB     C4   20   1.492   0.925   3.111
    2OCB     C5   21   1.406   0.849   3.033
    2OCB     C6   22   1.402   0.678   3.204
    2OCB     O1   23   1.306   0.650   2.978
    2OCB     C7   24   1.346   0.554   3.262
    2OCB     C8   25   1.384   0.534   2.934
    2OCB     O2   26   1.347   0.416   3.006
    2OCB     C9   27   1.433   0.374   3.102
    2OCB    C10   28   1.443   0.433   3.230
    2OCB    C11   29   1.549   0.395   3.317
    2OCB    C12   30   1.516   0.270   3.065
    2OCB    C13   31   1.626   0.277   3.286
    2OCB    C14   32   1.615   0.219   3.155
    2OCB     O3   33   1.691   0.114   3.103
    2OCB    C15   34   1.734   0.228   3.381
    2OCB    C16   35   1.868   0.308   3.349
    2OCB    C17   36   1.954   0.262   3.251
    2OCB    C18   37   1.820   0.164   3.065
    2OCB     O4   38   1.918   0.149   3.179
    2OCB     O5   39   1.557   1.033   3.059
    2OCB    C19   40   1.623   0.955   3.332
    2OCB    C20   41   1.774   0.916   3.321
    2OCB     O6   42   1.784   1.075   3.133
    2OCB    C21   43   1.844   0.980   3.222
    2OCB    C22   44   2.064   0.339   3.216
    2OCB    C23   45   2.083   0.469   3.253
    2OCB    C24   46   1.970   0.940   3.188
    2OCB    C25   47   2.034   0.837   3.254
    2OCB     O7   48   2.178   0.551   3.194
    2OCB     O8   49   2.152   0.790   3.196
    2OCB    C26   50   2.140   0.668   3.110
    2OCB    C27   51   1.835   0.803   3.385
    2OCB    C28   52   1.971   0.772   3.360
    2OCB    C29   53   1.892   0.436   3.399
    2OCB    C30   54   2.032   0.648   3.428
    2OCB    C31   55   2.006   0.512   3.360
    2OCB    C32   56   1.694   1.021   3.033
    2OCB    C33   57   1.693   0.230   3.531
    2OCB    C34   58   1.794   0.174   3.633
    2OCB    C35   59   1.809   0.023   3.620
    2OCB     O9   60   1.845  -0.027   3.511
    2OCB    C36   61   1.297   0.559   3.413
    2OCB    C37   62   1.220   0.429   3.456
    2OCB    C38   63   1.165   0.432   3.598
    2OCB    O10   64   1.092   0.343   3.633
    2OCB    C39   65   1.572   0.959   3.478
    2OCB    C40   66   1.428   1.020   3.497
    2OCB    C41   67   1.378   1.017   3.643
    2OCB    O11   68   1.397   1.109   3.719
    2OCB    C42   69   2.019   0.645   3.583
    2OCB    C43   70   2.101   0.757   3.656
    2OCB    C44   71   2.105   0.741   3.811
    2OCB    O12   72   2.003   0.783   3.868
    2OCB    C45   73   1.362   0.514   2.782
    2OCB    C46   74   1.330   0.477   2.514
    2OCB    C47   75   1.364   0.386   2.729
    2OCB    C48   76   1.354   0.624   2.696
    2OCB    C49   77   1.354   0.605   2.564
    2OCB    C50   78   1.342   0.365   2.595
    2OCB    C51   79   1.731   1.082   2.904
    2OCB    C52   80   1.801   1.177   2.651
    2OCB    C53   81   1.858   1.138   2.880
    2OCB    C54   82   1.642   1.066   2.797
    2OCB    C55   83   1.676   1.124   2.676
    2OCB    C56   84   1.894   1.185   2.753
    2OCB    C57   85   2.231   0.666   2.993
    2OCB    C58   86   2.385   0.695   2.761
    2OCB    C59   87   2.280   0.549   2.928
    2OCB    C60   88   2.257   0.797   2.936
    2OCB    C61   89   2.345   0.810   2.830
    2OCB    C62   90   2.348   0.568   2.805
    2OCB    C63   91   1.864   0.086   2.938
    2OCB    C64   92   1.936  -0.014   2.689
    2OCB    C65   93   1.997   0.083   2.902
    2OCB    C66   94   1.764   0.053   2.845
    2OCB    C67   95   1.805   0.003   2.723
    2OCB    C68   96   2.035   0.027   2.780
    2OCB    O13   97   1.602   1.114   2.566
    2OCB    O14   98   2.389   0.930   2.785
    2OCB    O15   99   2.373   0.456   2.727
    2OCB    O16  100   1.357   0.705   2.470
    2OCB    O17  101   1.336   0.238   2.530
    2OCB    O18  102   2.171   0.016   2.750
    2OCB    O19  103   1.718  -0.044   2.631
    2OCB    C69  104   2.321   1.048   2.808
    2OCB    C70  105   2.208   1.292   2.849
    2OCB    C71  106   2.196   1.071   2.758
    2OCB    C72  107   2.393   1.144   2.880
    2OCB    C73  108   2.330   1.264   2.908
    2OCB    C74  109   2.142   1.199   2.772
    2OCB    O20  110   2.016   1.245   2.730
    2OCB    C75  111   1.363   0.840   2.514
    2OCB    C76  112   1.362   1.108   2.561
    2OCB    C77  113   1.241   0.908   2.519
    2OCB    C78  114   1.485   0.902   2.549
    2OCB    C79  115   1.485   1.040   2.563
    2OCB    C80  116   1.243   1.047   2.544
    2OCB    C81  117   2.354   0.331   2.777
    2OCB    C82  118   2.345   0.069   2.876
    2OCB    C83  119   2.442   0.288   2.877
    2OCB    C84  120   2.269   0.240   2.720
    2OCB    C85  121   2.260   0.113   2.778
    2OCB    C86  122   2.446   0.156   2.927
    2OCB    C87  123   2.546   0.113   3.034
    2OCB    O21  124   2.647   0.173   3.064
    2OCB    C88  125   1.270  -0.191   2.774
    2OCB    O22  126   1.150  -0.179   2.775
    2OCB    C89  127   1.114   1.126   2.537
    2OCB    O23  128   1.010   1.075   2.503
    2OCB    O24  129   1.793  -0.050   3.718
    2OCB    O25  130   2.207   0.701   3.869
    2OCB    O26  131   1.293   0.931   3.665
    2OCB    C90  132   2.411   1.362   2.990
    2OCB    O27  133   2.358   1.469   3.022
    2OCB    O28  134   1.321  -0.295   2.803
    2OCB    O29  135   2.525   0.006   3.084
    2OCB    O30  136   2.526   1.337   3.021
    2OCB    O31  137   1.125   1.242   2.553
    2OCB    O32  138   1.180   0.529   3.671
    2OCB    C91  139   1.389   0.123   2.592
    2OCB    C92  140   1.502  -0.113   2.697
    2OCB    C93  141   1.528   0.097   2.577
    2OCB    C94  142   1.305   0.024   2.651
    2OCB    C95  143   1.360  -0.095   2.698
    2OCB    C96  144   1.581  -0.019   2.634
    2OCB    C97  145   1.617   0.198   2.503
    2OCB    C98  146   1.613   0.820   2.549
    2OCB    C99  147   2.124   0.966   2.682
    2OCB      C  148   2.178   0.282   2.608
    2OCB     H1  149   1.508   0.710   3.378
    2OCB     H2  150   1.387   0.868   2.927
    2OCB     H3  151   1.256   0.535   3.203
    2OCB     H4  152   1.493   0.549   2.943
    2OCB     H5  153   1.568   0.472   3.392
    2OCB     H6  154   1.500   0.233   2.964
    2OCB     H7  155   1.747   0.122   3.357
    2OCB     H8  156   1.813   0.272   3.045
    2OCB     H9  157   1.618   1.060   3.301
    2OCB    H10  158   2.134   0.299   3.143
    2OCB    H11  159   2.005   0.984   3.095
    2OCB    H12  160   2.037   0.650   3.077
    2OCB    H13  161   1.774   0.743   3.453
    2OCB    H14  162   1.820   0.487   3.463
    2OCB    H15  163   2.140   0.657   3.411
    2OCB    H16  164   1.718   0.914   3.022
    2OCB    H17  165   1.677   0.334   3.560
    2OCB    H18  166   1.598   0.177   3.544
    2OCB    H19  167   1.884   0.236   3.625
    2OCB    H20  168   1.760   0.185   3.737
    2OCB    H21  169   1.231   0.646   3.414
    2OCB    H22  170   1.378   0.577   3.484
    2OCB    H23  171   1.132   0.420   3.392
    2OCB    H24  172   1.277   0.337   3.444
    2OCB    H25  173   1.591   0.860   3.521
    2OCB    H26  174   1.630   1.030   3.536
    2OCB    H27  175   1.436   1.123   3.462
    2OCB    H28  176   1.358   0.963   3.434
    2OCB    H29  177   1.915   0.642   3.617
    2OCB    H30  178   2.052   0.546   3.613
    2OCB    H31  179   2.199   0.748   3.609
    2OCB    H32  180   2.065   0.858   3.634
    2OCB    H33  181   1.312   0.467   2.407
    2OCB    H34  182   1.379   0.301   2.795
    2OCB    H35  183   1.365   0.724   2.736
    2OCB    H36  184   1.818   1.216   2.552
    2OCB    H37  185   1.933   1.147   2.959
    2OCB    H38  186   1.550   1.012   2.813
    2OCB    H39  187   2.447   0.704   2.672
    2OCB    H40  188   2.254   0.454   2.974
    2OCB    H41  189   2.222   0.887   2.985
    2OCB    H42  190   1.971  -0.055   2.595
    2OCB    H43  191   2.075   0.118   2.969
    2OCB    H44  192   1.659   0.071   2.870
    2OCB    H45  193   2.158   1.386   2.873
    2OCB    H46  194   2.498   1.122   2.898
    2OCB    H47  195   1.362   1.216   2.564
    2OCB    H48  196   1.150   0.851   2.500
    2OCB    H49  197   2.331  -0.032   2.913
    2OCB    H50  198   2.522   0.357   2.903
    2OCB    H51  199   1.539  -0.194   2.759
    2OCB    H52  200   1.197   0.038   2.650
    2OCB    H53  201   1.706   0.140   2.476
    2OCB    H54  202   1.567   0.218   2.407
    2OCB    H55  203   1.618   0.291   2.560
    2OCB    H56  204   1.618   0.767   2.644
    2OCB    H57  205   1.619   0.753   2.463
    2OCB    H58  206   1.704   0.880   2.546
    2OCB    H59  207   2.067   0.895   2.743
    2OCB    H60  208   2.056   1.013   2.611
    2OCB    H61  209   2.194   0.914   2.617
    2OCB    H62  210   2.080   0.239   2.628
    2OCB    H63  211   2.156   0.388   2.594
    2OCB    H64  212   2.207   0.241   2.511
    3Na+    Na+  213   2.746   3.292   1.925
    4Na+    Na+  214   0.026   0.048   0.485
    5Na+    Na+  215   3.467   2.753   1.167
    6Na+    Na+  216   0.945   1.304   2.429
    7Na+    Na+  217   1.033   0.205   4.000
    8Na+    Na+  218   0.861   1.836   3.458
    9Na+    Na+  219   2.702   2.227   1.109
   10Na+    Na+  220   3.666   0.509   2.693
   11Na+    Na+  221   1.496   2.534   1.728
   12HOH      O  222   0.585   3.253   0.927
   12HOH     H1  223   0.607   3.195   0.855
   12HOH     H2  224   0.617   3.339   0.899
   13HOH      O  225   2.217   2.633   3.543
   13HOH     H1  226   2.208   2.540   3.521
   13HOH     H2  227   2.248   2.633   3.634
   14HOH      O  228   3.584   3.141   3.641
   14HOH     H1  229   3.501   3.101   3.618
   14HOH     H2  230   3.602   3.203   3.570
   15HOH      O  231   0.418   0.821   3.199
   15HOH     H1  232   0.512   0.836   3.185
   15HOH     H2  233   0.391   0.893   3.256
   16HOH      O  234   0.660   3.337   1.991
   16HOH     H1  235   0.601   3.316   2.064
   16HOH     H2  236   0.748   3.319   2.025
   17HOH      O  237   0.871   0.081   3.840
   17HOH     H1  238   0.780   0.086   3.811
   17HOH     H2  239   0.918   0.047   3.765
   18HOH      O  240   3.313   3.565   2.835
   18HOH     H1  241   3.250   3.517   2.781
   18HOH     H2  242   3.315   3.652   2.797
   19HOH      O  243   3.766   0.215   0.937
   19HOH     H1  244   3.779   0.249   0.848
   19HOH     H2  245   3.676   0.241   0.958
   20HOH      O  246   2.863   2.621   3.990
   20HOH     H1  247   2.778   2.616   4.033
   20HOH     H2  248   2.910   2.544   4.022
   21HOH      O  249   2.849   2.696   1.517
   21HOH     H1  250   2.813   2.608   1.524
   21HOH     H2  251   2.869   2.721   1.607
   22HOH      O  252   3.822   1.730   3.325
   22HOH     H1  253   3.841   1.737   3.419
   22HOH     H2  254   3.861   1.809   3.287
   23HOH      O  255   1.600   2.120   2.949
   23HOH     H1  256   1.634   2.178   3.018
   23HOH     H2  257   1.570   2.042   2.996
   24HOH      O  258   3.283   2.430   3.421
   24HOH     H1  259   3.321   2.486   3.354
   24HOH     H2  260   3.193   2.462   3.431
   25HOH      O  261   3.221   3.404   0.081
   25HOH     H1  262   3.281   3.331   0.095
   25HOH     H2  263   3.272   3.469   0.034
   26HOH      O  264   0.754   3.492   3.668
   26HOH     H1  265   0.753   3.485   3.572
   26HOH     H2  266   0.671   3.535   3.689
   27HOH      O  267   1.455   1.700   1.896
   27HOH     H1  268   1.488   1.653   1.972
   27HOH     H2  269   1.361   1.681   1.894
   28HOH      O  270   1.778   2.948   2.689
   28HOH     H1  271   1.858   2.902   2.713
   28HOH     H2  272   1.710   2.912   2.746
   29HOH      O  273   1.967   3.211   1.779
   29HOH     H1  274   1.917   3.130   1.776
   29HOH     H2  275   1.996   3.225   1.689
   30HOH      O  276   1.814   1.515   3.689
   30HOH     H1  277   1.741   1.455   3.702
   30HOH     H2  278   1.878   1.466   3.638
   31HOH      O  279   0.295   1.631   1.848
   31HOH     H1  280   0.236   1.576   1.900
   31HOH     H2  281   0.239   1.670   1.781
   32HOH      O  282   2.276   3.073   2.333
   32HOH     H1  283   2.222   3.134   2.381
   32HOH     H2  284   2.235   2.988   2.347
   33HOH      O  285   0.809   3.831   3.957
   33HOH     H1  286   0.777   3.745   3.983
   33HOH     H2  287   0.747   3.861   3.890
   34HOH      O  288   3.937   0.334   3.963
   34HOH     H1  289   3.977   0.318   3.878
   34HOH     H2  290   3.881   0.257   3.978
   35HOH      O  291   3.672   1.080   1.884
   35HOH     H1  292   3.717   1.123   1.811
   35HOH     H2  293   3.639   1.152   1.938
   36HOH      O  294   4.008   1.858   2.260
   36HOH     H1  295   4.070   1.881   2.329
   36HOH     H2  296   3.922   1.875   2.299
   37HOH      O  297   3.242   2.440   2.859
   37HOH     H1  298   3.280   2.353   2.871
   37HOH     H2  299   3.163   2.440   2.912
   38HOH      O  300   0.861   1.659   3.315
   38HOH     H1  301   0.933   1.677   3.253
   38HOH     H2  302   0.819   1.581   3.279
   39HOH      O  303   0.140   0.895   2.176
   39HOH     H1  304   0.168   0.886   2.267
   39HOH     H2  305   0.059   0.845   2.171
   40HOH      O  306   2.521   0.888   0.585
   40HOH     H1  307   2.509   0.793   0.590
   40HOH     H2  308   2.465   0.915   0.512
   41HOH      O  309   3.699   4.019   2.416
   41HOH     H1  310   3.616   3.998   2.374
   41HOH     H2  311   3.759   3.950   2.387
   42HOH      O  312   2.332   3.611   0.624
   42HOH     H1  313   2.244   3.603   0.660
   42HOH     H2  314   2.364   3.695   0.656
   43HOH      O  315   2.901   0.929   1.253
   43HOH     H1  316   2.884   0.971   1.169
   43HOH     H2  317   2.859   0.843   1.246
   44HOH      O  318   1.881   2.989   0.331
   44HOH     H1  319   1.818   2.928   0.293
   44HOH     H2  320   1.827   3.061   0.365
   45HOH      O  321   2.147   3.822   3.778
   45HOH     H1  322   2.240   3.809   3.762
   45HOH     H2  323   2.129   3.773   3.859
   46HOH      O  324   0.736   2.582   0.242
   46HOH     H1  325   0.651   2.608   0.206
   46HOH     H2  326   0.788   2.558   0.165
   47HOH      O  327   3.238   2.680   1.098
   47HOH     H1  328   3.146   2.707   1.098
   47HOH     H2  329   3.235   2.585   1.110
   48HOH      O  330   3.593   3.849   1.287
   48HOH     H1  331   3.579   3.936   1.323
   48HOH     H2  332   3.675   3.820   1.327
   49HOH      O  333   2.768   1.703   1.139
   49HOH     H1  334   2.788   1.618   1.179
   49HOH     H2  335   2.725   1.752   1.209
   50HOH      O  336   0.110   0.503   0.908
   50HOH     H1  337   0.075   0.476   0.993
   50HOH     H2  338   0.205   0.494   0.917
   51HOH      O  339   1.023   1.489   0.982
   51HOH     H1  340   0.980   1.425   0.925
   51HOH     H2  341   1.075   1.543   0.922
   52HOH      O  342   1.791   0.573   1.123
   52HOH     H1  343   1.839   0.586   1.205
   52HOH     H2  344   1.750   0.488   1.132
   53HOH      O  345   1.151   3.873   1.829
   53HOH     H1  346   1.224   3.902   1.884
   53HOH     H2  347   1.100   3.816   1.886
   54HOH      O  348   0.938   0.637   1.619
   54HOH     H1  349   0.999   0.680   1.559
   54HOH     H2  350   0.971   0.548   1.628
   55HOH      O  351   1.646   0.867   0.777
   55HOH     H1  352   1.632   0.960   0.792
   55HOH     H2  353   1.558   0.831   0.765
   56HOH      O  354   1.850   3.988   0.846
   56HOH     H1  355   1.835   4.010   0.938
   56HOH     H2  356   1.770   3.943   0.819
   57HOH      O  357   0.661   2.137   1.743
   57HOH     H1  358   0.620   2.092   1.816
   57HOH     H2  359   0.589   2.177   1.695
   58HOH      O  360   0.834   1.443   0.400
   58HOH     H1  361   0.883   1.507   0.452
   58HOH     H2  362   0.872   1.359   0.424
   59HOH      O  363   0.640   0.351   0.368
   59HOH     H1  364   0.619   0.400   0.447
   59HOH     H2  365   0.633   0.415   0.297
   60HOH      O  366   3.014   2.121   0.534
   60HOH     H1  367   3.078   2.130   0.604
   60HOH     H2  368   2.954   2.195   0.546
   61HOH      O  369   0.592   2.226   2.967
   61HOH     H1  370   0.597   2.306   3.019
   61HOH     H2  371   0.622   2.157   3.027
   62HOH      O  372   2.663   0.605   1.767
   62HOH     H1  373   2.601   0.533   1.765
   62HOH     H2  374   2.737   0.574   1.714
   63HOH      O  375   3.513   2.006   3.300
   63HOH     H1  376   3.439   2.012   3.238
   63HOH     H2  377   3.548   1.918   3.286
   64HOH      O  378   1.448   3.507   0.191
   64HOH     H1  379   1.529   3.546   0.159
   64HOH     H2  380   1.409   3.575   0.247
   65HOH      O  381   3.600   3.499   3.207
   65HOH     H1  382   3.627   3.571   3.150
   65HOH     H2  383   3.577   3.428   3.146
   66HOH      O  384   3.248   2.051   3.481
   66HOH     H1  385   3.233   2.024   3.391
   66HOH     H2  386   3.164   2.087   3.510
   67HOH      O  387   0.124   2.683   1.842
   67HOH     H1  388   0.114   2.762   1.789
   67HOH     H2  389   0.096   2.709   1.929
   68HOH      O  390   3.999   3.207   4.030
   68HOH     H1  391   3.916   3.218   4.076
   68HOH     H2  392   3.987   3.256   3.949
   69HOH      O  393   1.716   3.634   0.187
   69HOH     H1  394   1.706   3.632   0.282
   69HOH     H2  395   1.768   3.712   0.169
   70HOH      O  396   1.676   0.320   1.104
   70HOH     H1  397   1.760   0.273   1.101
   70HOH     H2  398   1.627   0.285   1.029
   71HOH      O  399   3.319   3.984   3.301
   71HOH     H1  400   3.234   3.997   3.341
   71HOH     H2  401   3.337   3.891   3.313
   72HOH      O  402   3.429   0.264   2.877
   72HOH     H1  403   3.382   0.239   2.957
   72HOH     H2  404   3.388   0.345   2.849
   73HOH      O  405   0.666   2.524   3.508
   73HOH     H1  406   0.756   2.497   3.488
   73HOH     H2  407   0.616   2.442   3.508
   74HOH      O  408   0.080   1.582   2.897
   74HOH     H1  409   0.006   1.525   2.877
   74HOH     H2  410   0.044   1.671   2.890
   75HOH      O  411   3.882   2.643   1.713
   75HOH     H1  412   3.878   2.579   1.642
   75HOH     H2  413   3.974   2.645   1.739
   76HOH      O  414   2.606   3.094   0.921
   76HOH     H1  415   2.563   3.174   0.893
   76HOH     H2  416   2.675   3.079   0.855
   77HOH      O  417   2.249   0.137   1.339
   77HOH     H1  418   2.331   0.150   1.291
   77HOH     H2  419   2.212   0.225   1.346
   78HOH      O  420   0.927   3.330   2.067
   78HOH     H1  421   0.928   3.306   2.160
   78HOH     H2  422   0.993   3.273   2.027
   79HOH      O  423   1.092   0.879   2.143
   79HOH     H1  424   1.182   0.845   2.141
   79HOH     H2  425   1.037   0.801   2.138
   80HOH      O  426   3.079   2.427   2.477
   80HOH     H1  427   3.098   2.345   2.431
   80HOH     H2  428   3.085   2.494   2.409
   81HOH      O  429   0.582   2.779   3.557
   81HOH     H1  430   0.631   2.702   3.529
   81HOH     H2  431   0.509   2.784   3.495
   82HOH      O  432   1.415   2.756   1.804
   82HOH     H1  433   1.357   2.759   1.880
   82HOH     H2  434   1.369   2.806   1.737
   83HOH      O  435   1.643   3.036   2.093
   83HOH     H1  436   1.656   3.095   2.168
   83HOH     H2  437   1.618   2.952   2.132
   84HOH      O  438   1.110   0.727   3.988
   84HOH     H1  439   1.206   0.721   3.995
   84HOH     H2  440   1.094   0.748   3.896
   85HOH      O  441   3.240   0.591   1.766
   85HOH     H1  442   3.314   0.621   1.714
   85HOH     H2  443   3.163   0.623   1.719
   86HOH      O  444   0.788   3.052   2.824
   86HOH     H1  445   0.696   3.054   2.798
   86HOH     H2  446   0.816   2.963   2.804
   87HOH      O  447   3.726   0.966   2.576
   87HOH     H1  448   3.729   0.998   2.666
   87HOH     H2  449   3.681   1.035   2.528
   88HOH      O  450   0.559   1.899   3.811
   88HOH     H1  451   0.543   1.889   3.905
   88HOH     H2  452   0.588   1.990   3.801
   89HOH      O  453   2.117   3.102   1.560
   89HOH     H1  454   2.038   3.135   1.518
   89HOH     H2  455   2.139   3.023   1.511
   90HOH      O  456   2.808   2.642   2.377
   90HOH     H1  457   2.787   2.552   2.400
   90HOH     H2  458   2.773   2.695   2.448
   91HOH      O  459   2.324   1.773   1.380
   91HOH     H1  460   2.334   1.688   1.422
   91HOH     H2  461   2.329   1.837   1.451
   92HOH      O  462   3.408   2.955   0.408
   92HOH     H1  463   3.474   3.023   0.398
   92HOH     H2  464   3.325   3.002   0.401
   93HOH      O  465   0.177   2.315   0.956
   93HOH     H1  466   0.143   2.404   0.961
   93HOH     H2  467   0.227   2.303   1.037
   94HOH      O  468   0.501   1.901   0.038
   94HOH     H1  469   0.471   1.819   0.076
   94HOH     H2  470   0.434   1.965   0.061
   95HOH      O  471   2.248   1.896   2.168
   95HOH     H1  472   2.237   1.883   2.262
   95HOH     H2  473   2.223   1.812   2.129
   96HOH      O  474   3.047   3.940   1.492
   96HOH     H1  475   2.978   3.949   1.559
   96HOH     H2  476   3.073   3.848   1.496
   97HOH      O  477   3.154   1.504   2.953
   97HOH     H1  478   3.118   1.590   2.930
   97HOH     H2  479   3.124   1.446   2.883
   98HOH      O  480   2.768   0.110   0.625
   98HOH     H1  481   2.839   0.128   0.687
   98HOH     H2  482   2.810   0.115   0.539
   99HOH      O  483   0.396   1.101   2.464
   99HOH     H1  484   0.334   1.172   2.447
   99HOH     H2  485   0.482   1.143   2.464
  100HOH      O  486   2.493   1.901   0.991
  100HOH     H1  487   2.438   1.837   1.037
  100HOH     H2  488   2.553   1.848   0.939
  101HOH      O  489   1.346   2.765   1.353
  101HOH     H1  490   1.348   2.830   1.283
  101HOH     H2  491   1.315   2.685   1.310
  102HOH      O  492   0.311   3.185   0.171
  102HOH     H1  493   0.280   3.166   0.259
  102HOH     H2  494   0.346   3.274   0.176
  103HOH      O  495   2.137   2.658   2.140
  103HOH     H1  496   2.183   2.576   2.159
  103HOH     H2  497   2.191   2.700   2.073
  104HOH      O  498   2.687   3.617   2.733
  104HOH     H1  499   2.632   3.669   2.791
  104HOH     H2  500   2.628   3.587   2.663
  105HOH      O  501   1.182   1.676   1.810
  105HOH     H1  502   1.238   1.608   1.773
  105HOH     H2  503   1.100   1.669   1.761
  106HOH      O  504   0.759   1.033   3.914
  106HOH     H1  505   0.687   1.095   3.927
  106HOH     H2  506   0.819   1.078   3.855
  107HOH      O  507   0.882   2.775   1.612
  107HOH     H1  508   0.924   2.832   1.548
  107HOH     H2  509   0.789   2.779   1.591
  108HOH      O  510   3.358   2.624   3.220
  108HOH     H1  511   3.395   2.708   3.249
  108HOH     H2  512   3.267   2.645   3.198
  109HOH      O  513   3.121   1.478   1.686
  109HOH     H1  514   3.211   1.508   1.692
  109HOH     H2  515   3.111   1.416   1.757
  110HOH      O  516   4.025   0.702   1.311
  110HOH     H1  517   3.951   0.719   1.254
  110HOH     H2  518   4.037   0.783   1.361
  111HOH      O  519   0.823   3.812   1.896
  111HOH     H1  520   0.809   3.767   1.979
  111HOH     H2  521   0.836   3.742   1.832
  112HOH      O  522   1.994   0.771   0.137
  112HOH     H1  523   2.082   0.746   0.164
  112HOH     H2  524   2.003   0.793   0.044
  113HOH      O  525   0.526   1.639   3.043
  113HOH     H1  526   0.487   1.694   2.974
  113HOH     H2  527   0.611   1.680   3.061
  114HOH      O  528   0.961   3.060   3.557
  114HOH     H1  529   0.964   3.114   3.636
  114HOH     H2  530   0.988   3.120   3.487
  115HOH      O  531   2.958   0.927   3.445
  115HOH     H1  532   3.027   0.989   3.469
  115HOH     H2  533   2.909   0.913   3.526
  116HOH      O  534   0.723   3.864   2.306
  116HOH     H1  535   0.743   3.899   2.392
  116HOH     H2  536   0.726   3.939   2.247
  117HOH      O  537   1.918   2.433   1.427
  117HOH     H1  538   1.898   2.369   1.495
  117HOH     H2  539   1.957   2.507   1.474
  118HOH      O  540   1.077   1.681   3.121
  118HOH     H1  541   1.155   1.723   3.158
  118HOH     H2  542   1.106   1.593   3.096
  119HOH      O  543  -0.004   3.683   2.109
  119HOH     H1  544   0.024   3.747   2.043
  119HOH     H2  545  -0.007   3.600   2.062
  120HOH      O  546  -0.009   3.468   3.052
  120HOH     H1  547   0.069   3.519   3.029
  120HOH     H2  548  -0.051   3.520   3.121
  121HOH      O  549   2.176   2.059   2.976
  121HOH     H1  550   2.227   2.114   3.036
  121HOH     H2  551   2.094   2.043   3.023
  122HOH      O  552   2.944   3.087   2.673
  122HOH     H1  553   2.916   3.002   2.705
  122HOH     H2  554   3.019   3.111   2.727
  123HOH      O  555   3.027   2.939   3.000
  123HOH     H1  556   2.958   2.902   2.944
  123HOH     H2  557   3.098   2.960   2.939
  124HOH      O  558   1.422   1.917   1.194
  124HOH     H1  559   1.413   1.897   1.287
  124HOH     H2  560   1.497   1.865   1.165
  125HOH      O  561   1.467   2.580   2.561
  125HOH     H1  562   1.543   2.531   2.529
  125HOH     H2  563   1.433   2.527   2.633
  126HOH      O  564   2.733   2.462   3.735
  126HOH     H1  565   2.716   2.546   3.778
  126HOH     H2  566   2.767   2.406   3.805
  127HOH      O  567   3.988   3.159   2.387
  127HOH     H1  568   3.923   3.221   2.420
  127HOH     H2  569   3.947   3.073   2.395
  128HOH      O  570   0.586   1.416   1.088
  128HOH     H1  571   0.524   1.431   1.017
  128HOH     H2  572   0.620   1.328   1.072
  129HOH      O  573   2.583   2.208   0.121
  129HOH     H1  574   2.584   2.133   0.061
  129HOH     H2  575   2.645   2.184   0.190
  130HOH      O  576   0.019   2.219   3.117
  130HOH     H1  577  -0.073   2.232   3.094
  130HOH     H2  578   0.056   2.307   3.120
  131HOH      O  579   3.137   0.132   0.405
  131HOH     H1  580   3.131   0.058   0.345
  131HOH     H2  581   3.197   0.104   0.474
  132HOH      O  582   3.123   0.019   0.156
  132HOH     H1  583   3.188   0.005   0.087
  132HOH     H2  584   3.087   0.106   0.138
  133HOH      O  585   1.282   2.758   2.031
  133HOH     H1  586   1.290   2.780   2.124
  133HOH     H2  587   1.188   2.759   2.014
  134HOH      O  588   2.078   3.915   3.144
  134HOH     H1  589   2.093   3.847   3.079
  134HOH     H2  590   1.985   3.905   3.168
  135HOH      O  591   2.726   2.181   1.925
  135HOH     H1  592   2.681   2.107   1.884
  135HOH     H2  593   2.666   2.211   1.994
  136HOH      O  594   1.216   3.123   1.468
  136HOH     H1  595   1.258   3.143   1.384
  136HOH     H2  596   1.246   3.192   1.527
  137HOH      O  597   1.513   2.834   0.814
  137HOH     H1  598   1.505   2.853   0.907
  137HOH     H2  599   1.572   2.902   0.780
  138HOH      O  600   2.024   2.611   1.831
  138HOH     H1  601   2.119   2.604   1.831
  138HOH     H2  602   1.995   2.535   1.882
  139HOH      O  603   0.207   3.616   3.005
  139HOH     H1  604   0.255   3.646   3.082
  139HOH     H2  605   0.230   3.677   2.936
  140HOH      O  606   2.589   3.217   0.033
  140HOH     H1  607   2.538   3.258   0.103
  140HOH     H2  608   2.648   3.286   0.003
  141HOH      O  609   3.960  -0.016   2.102
  141HOH     H1  610   3.885   0.022   2.056
  141HOH     H2  611   3.977   0.044   2.174
  142HOH      O  612   2.884   3.035   0.258
  142HOH     H1  613   2.950   3.037   0.188
  142HOH     H2  614   2.888   2.945   0.292
  143HOH      O  615   3.385   1.522   2.049
  143HOH     H1  616   3.318   1.516   2.117
  143HOH     H2  617   3.440   1.596   2.077
  144HOH      O  618   1.657   0.791   3.856
  144HOH     H1  619   1.615   0.767   3.774
  144HOH     H2  620   1.726   0.853   3.830
  145HOH      O  621   2.805   3.869   1.657
  145HOH     H1  622   2.751   3.948   1.657
  145HOH     H2  623   2.803   3.839   1.748
  146HOH      O  624   0.645   0.864   3.740
  146HOH     H1  625   0.681   0.933   3.796
  146HOH     H2  626   0.716   0.843   3.679
  147HOH      O  627   0.053   1.191   3.144
  147HOH     H1  628   0.001   1.267   3.167
  147HOH     H2  629   0.032   1.126   3.211
  148HOH      O  630   1.507   3.275   1.317
  148HOH     H1  631   1.545   3.341   1.260
  148HOH     H2  632   1.540   3.297   1.404
  149HOH      O  633   1.032   1.222   2.223
  149HOH     H1  634   0.977   1.160   2.176
  149HOH     H2  635   1.072   1.275   2.154
  150HOH      O  636   3.446   2.054   3.843
  150HOH     H1  637   3.513   2.112   3.808
  150HOH     H2  638   3.427   1.993   3.772
  151HOH      O  639   1.820   0.899   2.221
  151HOH     H1  640   1.860   0.910   2.135
  151HOH     H2  641   1.882   0.938   2.282
  152HOH      O  642   3.931   1.431   3.269
  152HOH     H1  643   3.921   1.408   3.361
  152HOH     H2  644   3.843   1.454   3.240
  153HOH      O  645   1.087   2.083   2.412
  153HOH     H1  646   1.089   2.179   2.407
  153HOH     H2  647   1.074   2.055   2.321
  154HOH      O  648   2.416   3.095   2.997
  154HOH     H1  649   2.326   3.063   2.997
  154HOH     H2  650   2.413   3.178   3.045
  155HOH      O  651   3.453   1.765   0.144
  155HOH     H1  652   3.502   1.789   0.223
  155HOH     H2  653   3.512   1.785   0.072
  156HOH      O  654   3.803   1.541   1.701
  156HOH     H1  655   3.769   1.502   1.621
  156HOH     H2  656   3.859   1.473   1.739
  157HOH      O  657   0.100   0.685   2.651
  157HOH     H1  658   0.114   0.750   2.720
  157HOH     H2  659   0.186   0.643   2.640
  158HOH      O  660   0.144   3.249   3.038
  158HOH     H1  661   0.093   3.329   3.056
  158HOH     H2  662   0.085   3.178   3.061
  159HOH      O  663   0.479   0.839   0.201
  159HOH     H1  664   0.478   0.794   0.116
  159HOH     H2  665   0.555   0.898   0.196
  160HOH      O  666   1.333   2.180   3.749
  160HOH     H1  667   1.349   2.086   3.750
  160HOH     H2  668   1.382   2.214   3.824
  161HOH      O  669   0.639   2.797   1.531
  161HOH     H1  670   0.569   2.734   1.549
  161HOH     H2  671   0.594   2.882   1.526
  162HOH      O  672   0.678   3.106   3.492
  162HOH     H1  673   0.606   3.065   3.539
  162HOH     H2  674   0.755   3.055   3.518
  163HOH      O  675   0.599   3.578   0.754
  163HOH     H1  676   0.656   3.648   0.787
  163HOH     H2  677   0.653   3.528   0.695
  164HOH      O  678   0.168   1.064   3.512
  164HOH     H1  679   0.222   1.070   3.590
  164HOH     H2  680   0.114   0.986   3.525
  165HOH      O  681   3.089   0.469   3.286
  165HOH     H1  682   3.180   0.495   3.302
  165HOH     H2  683   3.058   0.440   3.372
  166HOH      O  684   2.690   3.513   1.247
  166HOH     H1  685   2.692   3.442   1.312
  166HOH     H2  686   2.689   3.467   1.163
  167HOH      O  687   3.569   1.092   1.394
  167HOH     H1  688   3.598   1.157   1.330
  167HOH     H2  689   3.489   1.129   1.431
  168HOH      O  690   0.948   2.582   2.847
  168HOH     H1  691   0.927   2.506   2.793
  168HOH     H2  692   0.920   2.558   2.935
  169HOH      O  693   0.009   1.262   2.674
  169HOH     H1  694   0.011   1.228   2.584
  169HOH     H2  695   0.064   1.202   2.723
  170HOH      O  696   2.904   2.971   3.756
  170HOH     H1  697   2.828   2.935   3.802
  170HOH     H2  698   2.886   2.954   3.664
  171HOH      O  699   2.504   2.694   0.713
  171HOH     H1  700   2.574   2.758   0.702
  171HOH     H2  701   2.424   2.747   0.709
  172HOH      O  702   1.723   3.911   0.166
  172HOH     H1  703   1.789   3.939   0.229
  172HOH     H2  704   1.732   3.972   0.093
  173HOH      O  705   3.957   2.243   0.584
  173HOH     H1  706   3.867   2.273   0.578
  173HOH     H2  707   3.997   2.270   0.502
  174HOH      O  708   3.391   2.535   3.794
  174HOH     H1  709   3.367   2.457   3.744
  174HOH     H2  710   3.367   2.513   3.884
  175HOH      O  711   2.951   3.768   3.377
  175HOH     H1  712   2.901   3.841   3.414
  175HOH     H2  713   2.984   3.800   3.294
  176HOH      O  714   3.190   3.899   1.003
  176HOH     H1  715   3.238   3.843   1.064
  176HOH     H2  716   3.181   3.982   1.049
  177HOH      O  717   3.734   1.096   1.604
  177HOH     H1  718   3.817   1.126   1.566
  177HOH     H2  719   3.673   1.095   1.530
  178HOH      O  720   2.578   1.746   0.173
  178HOH     H1  721   2.571   1.781   0.262
  178HOH     H2  722   2.505   1.685   0.165
  179HOH      O  723   4.004   1.295   0.385
  179HOH     H1  724   4.001   1.224   0.322
  179HOH     H2  725   3.963   1.259   0.464
  180HOH      O  726   0.653   1.600   1.288
  180HOH     H1  727   0.633   1.524   1.233
  180HOH     H2  728   0.611   1.674   1.245
  181HOH      O  729   0.956   0.575   0.128
  181HOH     H1  730   0.905   0.502   0.093
  181HOH     H2  731   1.001   0.611   0.052
  182HOH      O  732   1.775   0.477   0.774
  182HOH     H1  733   1.707   0.443   0.715
  182HOH     H2  734   1.821   0.399   0.805
  183HOH      O  735   0.464   2.782   4.024
  183HOH     H1  736   0.424   2.829   3.950
  183HOH     H2  737   0.556   2.775   4.000
  184HOH      O  738   2.335   3.503   1.063
  184HOH     H1  739   2.372   3.552   1.136
  184HOH     H2  740   2.298   3.570   1.006
  185HOH      O  741   1.156   0.134   3.825
  185HOH     H1  742   1.123   0.217   3.790
  185HOH     H2  743   1.234   0.115   3.773
  186HOH      O  744   2.337   3.827   2.634
  186HOH     H1  745   2.342   3.788   2.721
  186HOH     H2  746   2.306   3.916   2.649
  187HOH      O  747   3.318   2.634   0.568
  187HOH     H1  748   3.366   2.698   0.516
  187HOH     H2  749   3.255   2.687   0.618
  188HOH      O  750   3.602   0.738   2.653
  188HOH     H1  751   3.524   0.752   2.600
  188HOH     H2  752   3.665   0.803   2.621
  189HOH      O  753   2.370   0.683   1.793
  189HOH     H1  754   2.463   0.702   1.783
  189HOH     H2  755   2.326   0.743   1.733
  190HOH      O  756   2.216   0.617   2.454
  190HOH     H1  757   2.265   0.546   2.496
  190HOH     H2  758   2.137   0.576   2.420
  191HOH      O  759   3.312   3.815   1.404
  191HOH     H1  760   3.351   3.903   1.400
  191HOH     H2  761   3.385   3.757   1.425
  192HOH      O  762   1.288   2.063   2.051
  192HOH     H1  763   1.295   1.998   2.120
  192HOH     H2  764   1.220   2.123   2.080
  193HOH      O  765   0.696   3.944   3.529
  193HOH     H1  766   0.791   3.936   3.519
  193HOH     H2  767   0.663   3.959   3.440
  194HOH      O  768   3.992   2.972   0.895
  194HOH     H1  769   3.905   2.940   0.872
  194HOH     H2  770   3.976   3.060   0.928
  195HOH      O  771   3.234   3.255   2.462
  195HOH     H1  772   3.214   3.282   2.552
  195HOH     H2  773   3.172   3.304   2.408
  196HOH      O  774   0.829   3.864   1.248
  196HOH     H1  775   0.766   3.919   1.296
  196HOH     H2  776   0.836   3.785   1.300
  197HOH      O  777   3.835   0.072   0.369
  197HOH     H1  778   3.812   0.161   0.342
  197HOH     H2  779   3.754   0.023   0.360
  198HOH      O  780   2.939   0.141   1.096
  198HOH     H1  781   2.956   0.157   1.003
  198HOH     H2  782   2.857   0.093   1.097
  199HOH      O  783   0.919   1.468   1.772
  199HOH     H1  784   0.894   1.520   1.696
  199HOH     H2  785   0.837   1.452   1.818
  200HOH      O  786   3.217   2.966   2.802
  200HOH     H1  787   3.282   2.942   2.737
  200HOH     H2  788   3.259   3.034   2.855
  201HOH      O  789   1.673   3.398   2.181
  201HOH     H1  790   1.640   3.488   2.172
  201HOH     H2  791   1.709   3.377   2.095
  202HOH      O  792   2.092   2.201   0.328
  202HOH     H1  793   2.009   2.248   0.318
  202HOH     H2  794   2.096   2.181   0.422
  203HOH      O  795   0.510   3.590   2.651
  203HOH     H1  796   0.436   3.630   2.606
  203HOH     H2  797   0.584   3.646   2.629
  204HOH      O  798   3.299   2.051   0.039
  204HOH     H1  799   3.274   1.959   0.049
  204HOH     H2  800   3.350   2.054  -0.042
  205HOH      O  801   2.496   0.523   3.191
  205HOH     H1  802   2.493   0.455   3.257
  205HOH     H2  803   2.404   0.541   3.170
  206HOH      O  804   3.163   3.753   0.451
  206HOH     H1  805   3.162   3.799   0.535
  206HOH     H2  806   3.072   3.726   0.438
  207HOH      O  807   2.747   2.390   2.401
  207HOH     H1  808   2.747   2.322   2.334
  207HOH     H2  809   2.659   2.387   2.439
  208HOH      O  810   2.734   3.196   3.717
  208HOH     H1  811   2.684   3.122   3.752
  208HOH     H2  812   2.824   3.162   3.709
  209HOH      O  813   2.213   1.262   3.206
  209HOH     H1  814   2.167   1.314   3.140
  209HOH     H2  815   2.234   1.325   3.276
  210HOH      O  816   1.660   2.336   2.503
  210HOH     H1  817   1.614   2.290   2.434
  210HOH     H2  818   1.633   2.292   2.584
  211HOH      O  819   0.072  -0.011   3.781
  211HOH     H1  820   0.081   0.084   3.780
  211HOH     H2  821   0.004  -0.029   3.715
  212HOH      O  822   0.406   1.908   2.476
  212HOH     H1  823   0.469   1.972   2.509
  212HOH     H2  824   0.447   1.873   2.396
  213HOH      O  825   0.073   3.145   2.103
  213HOH     H1  826   0.005   3.124   2.039
  213HOH     H2  827   0.025   3.163   2.183
  214HOH      O  828   3.416   1.078   1.125
  214HOH     H1  829   3.366   1.136   1.182
  214HOH     H2  830   3.419   1.125   1.041
  215HOH      O  831   3.790   0.551   0.099
  215HOH     H1  832   3.840   0.552   0.180
  215HOH     H2  833   3.836   0.488   0.043
  216HOH      O  834   0.847   0.456   3.667
  216HOH     H1  835   0.843   0.536   3.615
  216HOH     H2  836   0.933   0.418   3.647
  217HOH      O  837   1.182   0.864   0.454
  217HOH     H1  838   1.273   0.892   0.444
  217HOH     H2  839   1.144   0.874   0.366
  218HOH      O  840   3.324   0.720   0.554
  218HOH     H1  841   3.258   0.652   0.568
  218HOH     H2  842   3.299   0.791   0.614
  219HOH      O  843   1.472   3.524   0.681
  219HOH     H1  844   1.462   3.600   0.739
  219HOH     H2  845   1.524   3.557   0.608
  220HOH      O  846   2.549   2.735   1.311
  220HOH     H1  847   2.571   2.810   1.256
  220HOH     H2  848   2.477   2.692   1.265
  221HOH      O  849   1.750   2.183   3.448
  221HOH     H1  850   1.776   2.264   3.404
  221HOH     H2  851   1.685   2.211   3.512
  222HOH      O  852   0.626   2.174   3.776
  222HOH     H1  853   0.541   2.217   3.765
  222HOH     H2  854   0.684   2.219   3.715
  223HOH      O  855   1.352   0.101   2.253
  223HOH     H1  856   1.352   0.145   2.338
  223HOH     H2  857   1.414   0.151   2.200
  224HOH      O  858   2.448   1.922   1.586
  224HOH     H1  859   2.531   1.874   1.580
  224HOH     H2  860   2.421   1.910   1.677
  225HOH      O  861   2.053   2.741   1.227
  225HOH     H1  862   2.141   2.769   1.252
  225HOH     H2  863   2.002   2.743   1.308
  226HOH      O  864   1.684   0.711   1.970
  226HOH     H1  865   1.617   0.709   1.901
  226HOH     H2  866   1.642   0.756   2.043
  227HOH      O  867   3.456   1.068   0.013
  227HOH     H1  868   3.514   1.125   0.061
  227HOH     H2  869   3.504   1.045  -0.067
  228HOH      O  870   3.971   1.235   0.659
  228HOH     H1  871   3.884   1.257   0.690
  228HOH     H2  872   4.028   1.304   0.694
  229HOH      O  873   0.494   3.015   1.595
  229HOH     H1  874   0.500   3.027   1.690
  229HOH     H2  875   0.552   3.082   1.559
  230HOH      O  876   2.813   0.431   0.917
  230HOH     H1  877   2.805   0.401   1.008
  230HOH     H2  878   2.738   0.391   0.872
  231HOH      O  879   3.166   0.757   2.725
  231HOH     H1  880   3.184   0.836   2.673
  231HOH     H2  881   3.087   0.779   2.775
  232HOH      O  882   1.065   1.957   3.822
  232HOH     H1  883   1.046   2.037   3.873
  232HOH     H2  884   1.022   1.887   3.871
  233HOH      O  885   3.250   1.109   0.154
  233HOH     H1  886   3.311   1.112   0.081
  233HOH     H2  887   3.279   1.035   0.208
  234HOH      O  888   0.493   0.177   3.382
  234HOH     H1  889   0.417   0.122   3.404
  234HOH     H2  890   0.541   0.127   3.317
  235HOH      O  891   2.836   3.326   2.580
  235HOH     H1  892   2.852   3.252   2.639
  235HOH     H2  893   2.753   3.363   2.611
  236HOH      O  894   3.153   0.047   1.238
  236HOH     H1  895   3.066   0.057   1.199
  236HOH     H2  896   3.137   0.017   1.327
  237HOH      O  897   2.241   2.832   1.418
  237HOH     H1  898   2.313   2.770   1.412
  237HOH     H2  899   2.268   2.905   1.363
  238HOH      O  900   1.066   1.182   1.699
  238HOH     H1  901   0.974   1.206   1.703
  238HOH     H2  902   1.099   1.197   1.788
  239HOH      O  903   0.425   1.805   0.589
  239HOH     H1  904   0.369   1.860   0.535
  239HOH     H2  905   0.491   1.770   0.529
  240HOH      O  906   2.825   2.709   3.258
  240HOH     H1  907   2.799   2.788   3.305
  240HOH     H2  908   2.779   2.714   3.175
  241HOH      O  909   0.079   2.270   0.321
  241HOH     H1  910   0.124   2.301   0.400
  241HOH     H2  911   0.111   2.326   0.251
  242HOH      O  912   0.633   0.399   3.239
  242HOH     H1  913   0.579   0.358   3.307
  242HOH     H2  914   0.659   0.483   3.276
  243HOH      O  915   2.642   1.574   2.949
  243HOH     H1  916   2.591   1.616   2.880
  243HOH     H2  917   2.583   1.508   2.986
  244HOH      O  918   0.871   0.929   2.662
  244HOH     H1  919   0.932   0.869   2.705
  244HOH     H2  920   0.923   0.970   2.592
  245HOH      O  921   1.402   2.473   2.806
  245HOH     H1  922   1.342   2.516   2.867
  245HOH     H2  923   1.487   2.511   2.826
  246HOH      O  924   3.433   2.680   2.796
  246HOH     H1  925   3.380   2.616   2.843
  246HOH     H2  926   3.483   2.724   2.864
  247HOH      O  927   3.477   1.931   3.561
  247HOH     H1  928   3.384   1.953   3.554
  247HOH     H2  929   3.513   1.951   3.475
  248HOH      O  930   2.728   2.853   0.423
  248HOH     H1  931   2.685   2.938   0.435
  248HOH     H2  932   2.657   2.790   0.416
  249HOH      O  933   3.552   1.364   2.782
  249HOH     H1  934   3.632   1.412   2.764
  249HOH     H2  935   3.490   1.431   2.812
  250HOH      O  936   3.752   2.826   0.935
  250HOH     H1  937   3.660   2.846   0.917
  250HOH     H2  938   3.760   2.732   0.917
  251HOH      O  939   2.553   3.101   2.703
  251HOH     H1  940   2.459   3.085   2.708
  251HOH     H2  941   2.565   3.190   2.736
  252HOH      O  942   0.613   1.589   2.709
  252HOH     H1  943   0.523   1.601   2.737
  252HOH     H2  944   0.661   1.571   2.790
  253HOH      O  945   2.779   2.957   1.444
  253HOH     H1  946   2.733   2.963   1.360
  253HOH     H2  947   2.788   2.863   1.459
  254HOH      O  948   2.531   2.017   2.450
  254HOH     H1  949   2.549   1.933   2.408
  254HOH     H2  950   2.445   2.041   2.418
  255HOH      O  951   0.601   0.514   0.563
  255HOH     H1  952   0.696   0.521   0.570
  255HOH     H2  953   0.573   0.602   0.538
  256HOH      O  954   0.068   0.160   0.287
  256HOH     H1  955   0.021   0.140   0.205
  256HOH     H2  956   0.131   0.228   0.262
  257HOH      O  957   2.680   0.471   0.315
  257HOH     H1  958   2.701   0.458   0.408
  257HOH     H2  959   2.645   0.560   0.311
  258HOH      O  960   0.428   3.890   1.860
  258HOH     H1  961   0.449   3.875   1.952
  258HOH     H2  962   0.364   3.961   1.862
  259HOH      O  963   1.841   2.834   3.545
  259HOH     H1  964   1.870   2.762   3.601
  259HOH     H2  965   1.917   2.853   3.489
  260HOH      O  966   2.410   2.327   2.759
  260HOH     H1  967   2.429   2.364   2.845
  260HOH     H2  968   2.464   2.248   2.754
  261HOH      O  969   3.410   0.120   1.164
  261HOH     H1  970   3.438   0.125   1.256
  261HOH     H2  971   3.325   0.076   1.168
  262HOH      O  972   0.585   1.689   0.835
  262HOH     H1  973   0.619   1.774   0.804
  262HOH     H2  974   0.639   1.624   0.790
  263HOH      O  975   0.328   1.474   3.108
  263HOH     H1  976   0.409   1.522   3.089
  263HOH     H2  977   0.264   1.542   3.127
  264HOH      O  978   1.252   1.636   3.817
  264HOH     H1  979   1.233   1.549   3.782
  264HOH     H2  980   1.227   1.630   3.909
  265HOH      O  981   2.561   3.112   2.285
  265HOH     H1  982   2.468   3.115   2.308
  265HOH     H2  983   2.572   3.030   2.237
  266HOH      O  984   3.035   3.626   1.741
  266HOH     H1  985   3.072   3.637   1.653
  266HOH     H2  986   3.055   3.708   1.785
  267HOH      O  987   3.634   3.734   0.972
  267HOH     H1  988   3.669   3.818   0.942
  267HOH     H2  989   3.552   3.756   1.015
  268HOH      O  990   1.607   1.802   0.753
  268HOH     H1  991   1.588   1.728   0.811
  268HOH     H2  992   1.521   1.838   0.732
  269HOH      O  993   0.930   2.179   3.263
  269HOH     H1  994   0.905   2.239   3.333
  269HOH     H2  995   0.849   2.163   3.215
  270HOH      O  996   2.678   3.940   2.207
  270HOH     H1  997   2.597   3.955   2.256
  270HOH     H2  998   2.690   3.845   2.209
  271HOH      O  999   3.754   3.287   0.104
  271HOH     H1 1000   3.696   3.363   0.116
  271HOH     H2 1001   3.705   3.229   0.046
  272HOH      O 1002   3.861   0.428   3.362
  272HOH     H1 1003   3.870   0.350   3.418
  272HOH     H2 1004   3.926   0.489   3.396
  273HOH      O 1005   2.852   2.311   3.937
  273HOH     H1 1006   2.811   2.278   4.018
  273HOH     H2 1007   2.877   2.232   3.890
  274HOH      O 1008   3.923   0.783   2.146
  274HOH     H1 1009   3.945   0.730   2.222
  274HOH     H2 1010   3.873   0.724   2.089
  275HOH      O 1011   1.496   1.976   1.892
  275HOH     H1 1012   1.423   2.010   1.943
  275HOH     H2 1013   1.477   1.882   1.884
  276HOH      O 1014   2.326   2.349   1.561
  276HOH     H1 1015   2.368   2.435   1.552
  276HOH     H2 1016   2.298   2.346   1.652
  277HOH      O 1017   1.552   0.997   1.088
  277HOH     H1 1018   1.461   0.990   1.118
  277HOH     H2 1019   1.594   0.917   1.119
  278HOH      O 1020   0.957   3.284   3.707
  278HOH     H1 1021   0.905   3.354   3.669
  278HOH     H2 1022   0.987   3.319   3.791
  279HOH      O 1023   2.222   0.657   0.409
  279HOH     H1 1024   2.244   0.700   0.326
  279HOH     H2 1025   2.196   0.729   0.466
  280HOH      O 1026   3.652   1.104   2.836
  280HOH     H1 1027   3.580   1.041   2.843
  280HOH     H2 1028   3.610   1.186   2.809
  281HOH      O 1029   1.532   1.548   2.576
  281HOH     H1 1030   1.442   1.580   2.573
  281HOH     H2 1031   1.539   1.488   2.501
  282HOH      O 1032   3.559   3.270   1.096
  282HOH     H1 1033   3.467   3.296   1.091
  282HOH     H2 1034   3.585   3.254   1.006
  283HOH      O 1035   2.985   0.923   2.867
  283HOH     H1 1036   2.967   0.903   2.959
  283HOH     H2 1037   3.047   0.996   2.870
  284HOH      O 1038   1.707   2.143   1.899
  284HOH     H1 1039   1.769   2.069   1.894
  284HOH     H2 1040   1.621   2.102   1.892
  285HOH      O 1041   2.104   2.963   0.900
  285HOH     H1 1042   2.102   2.978   0.806
  285HOH     H2 1043   2.188   2.919   0.915
  286HOH      O 1044   2.652   1.057   0.734
  286HOH     H1 1045   2.646   1.139   0.684
  286HOH     H2 1046   2.609   0.992   0.679
  287HOH      O 1047   1.322   0.084   3.306
  287HOH     H1 1048   1.358   0.172   3.312
  287HOH     H2 1049   1.246   0.093   3.248
  288HOH      O 1050   1.481   1.036   1.724
  288HOH     H1 1051   1.559   1.010   1.674
  288HOH     H2 1052   1.414   0.972   1.699
  289HOH      O 1053   2.845   2.032   3.914
  289HOH     H1 1054   2.878   2.031   4.004
  289HOH     H2 1055   2.811   1.944   3.900
  290HOH      O 1056   0.948   2.394   2.625
  290HOH     H1 1057   0.977   2.386   2.534
  290HOH     H2 1058   1.015   2.349   2.676
  291HOH      O 1059   3.979   3.070   1.475
  291HOH     H1 1060   3.889   3.040   1.468
  291HOH     H2 1061   4.026   3.024   1.405
  292HOH      O 1062   0.997   2.062   2.935
  292HOH     H1 1063   0.949   2.066   2.852
  292HOH     H2 1064   1.088   2.053   2.910
  293HOH      O 1065   3.097   1.345   2.756
  293HOH     H1 1066   3.049   1.413   2.709
  293HOH     H2 1067   3.037   1.271   2.760
  294HOH      O 1068   0.487   3.458   3.992
  294HOH     H1 1069   0.559   3.478   4.053
  294HOH     H2 1070   0.411   3.503   4.028
  295HOH      O 1071   0.206   3.180   0.916
  295HOH     H1 1072   0.125   3.229   0.906
  295HOH     H2 1073   0.211   3.160   1.009
  296HOH      O 1074   0.184   2.186   2.881
  296HOH     H1 1075   0.269   2.144   2.869
  296HOH     H2 1076   0.158   2.161   2.970
  297HOH      O 1077   1.572   2.096   2.406
  297HOH     H1 1078   1.520   2.017   2.396
  297HOH     H2 1079   1.553   2.147   2.327
  298HOH      O 1080   1.930   1.073   0.165
  298HOH     H1 1081   1.895   1.139   0.105
  298HOH     H2 1082   1.997   1.028   0.114
  299HOH      O 1083   3.106   2.207   1.286
  299HOH     H1 1084   3.121   2.276   1.350
  299HOH     H2 1085   3.050   2.144   1.331
  300HOH      O 1086   0.391   2.184   1.540
  300HOH     H1 1087   0.468   2.140   1.504
  300HOH     H2 1088   0.347   2.222   1.463
  301HOH      O 1089   3.665   1.740   0.784
  301HOH     H1 1090   3.612   1.815   0.812
  301HOH     H2 1091   3.628   1.714   0.700
  302HOH      O 1092   3.206   2.212   2.327
  302HOH     H1 1093   3.258   2.278   2.281
  302HOH     H2 1094   3.267   2.174   2.390
  303HOH      O 1095   0.271   3.980   2.464
  303HOH     H1 1096   0.276   3.890   2.496
  303HOH     H2 1097   0.197   4.018   2.511
  304HOH      O 1098   1.343   0.469   1.615
  304HOH     H1 1099   1.358   0.556   1.579
  304HOH     H2 1100   1.278   0.483   1.685
  305HOH      O 1101   3.631   1.866   3.988
  305HOH     H1 1102   3.568   1.933   3.960
  305HOH     H2 1103   3.681   1.847   3.909
  306HOH      O 1104   2.852   3.980   2.969
  306HOH     H1 1105   2.823   4.000   2.880
  306HOH     H2 1106   2.828   4.058   3.020
  307HOH      O 1107   2.150   2.842   2.354
  307HOH     H1 1108   2.151   2.770   2.292
  307HOH     H2 1109   2.076   2.824   2.412
  308HOH      O 1110   0.897   3.443   0.942
  308HOH     H1 1111   0.820   3.470   0.992
  308HOH     H2 1112   0.948   3.524   0.930
  309HOH      O 1113   0.440   3.189   1.152
  309HOH     H1 1114   0.475   3.224   1.070
  309HOH     H2 1115   0.470   3.098   1.155
  310HOH      O 1116   0.576   0.707   3.933
  310HOH     H1 1117   0.619   0.780   3.978
  310HOH     H2 1118   0.590   0.724   3.840
  311HOH      O 1119   3.817   1.336   2.220
  311HOH     H1 1120   3.821   1.241   2.212
  311HOH     H2 1121   3.744   1.362   2.164
  312HOH      O 1122   0.752   1.828   1.523
  312HOH     H1 1123   0.752   1.755   1.460
  312HOH     H2 1124   0.844   1.856   1.527
  313HOH      O 1125   1.289   0.568   0.605
  313HOH     H1 1126   1.373   0.587   0.562
  313HOH     H2 1127   1.240   0.649   0.598
  314HOH      O 1128   3.793   1.042   2.225
  314HOH     H1 1129   3.700   1.018   2.221
  314HOH     H2 1130   3.836   0.979   2.168
  315HOH      O 1131   1.624   1.303   1.965
  315HOH     H1 1132   1.684   1.316   2.039
  315HOH     H2 1133   1.681   1.301   1.888
  316HOH      O 1134   2.352   3.084   1.711
  316HOH     H1 1135   2.261   3.057   1.695
  316HOH     H2 1136   2.345   3.151   1.779
  317HOH      O 1137   3.739   3.438   0.547
  317HOH     H1 1138   3.833   3.421   0.541
  317HOH     H2 1139   3.729   3.529   0.520
  318HOH      O 1140   1.510   3.989   0.467
  318HOH     H1 1141   1.503   4.084   0.456
  318HOH     H2 1142   1.480   3.953   0.383
  319HOH      O 1143   1.526   0.568   0.983
  319HOH     H1 1144   1.606   0.608   1.018
  319HOH     H2 1145   1.554   0.483   0.950
  320HOH      O 1146   3.156   0.738   3.422
  320HOH     H1 1147   3.089   0.803   3.404
  320HOH     H2 1148   3.221   0.750   3.352
  321HOH      O 1149   1.322   0.192   1.186
  321HOH     H1 1150   1.369   0.270   1.214
  321HOH     H2 1151   1.236   0.224   1.160
  322HOH      O 1152   3.270   1.250   1.287
  322HOH     H1 1153   3.327   1.325   1.307
  322HOH     H2 1154   3.199   1.256   1.350
  323HOH      O 1155   0.426   3.612   1.776
  323HOH     H1 1156   0.347   3.574   1.816
  323HOH     H2 1157   0.421   3.705   1.795
  324HOH      O 1158   3.563   2.473   3.120
  324HOH     H1 1159   3.489   2.517   3.162
  324HOH     H2 1160   3.618   2.543   3.087
  325HOH      O 1161   2.992   3.856   0.042
  325HOH     H1 1162   2.968   3.781   0.097
  325HOH     H2 1163   3.026   3.921   0.103
  326HOH      O 1164   1.913   3.743   3.651
  326HOH     H1 1165   1.996   3.756   3.697
  326HOH     H2 1166   1.874   3.830   3.648
  327HOH      O 1167   0.582   3.166   0.496
  327HOH     H1 1168   0.523   3.164   0.570
  327HOH     H2 1169   0.631   3.248   0.507
  328HOH      O 1170   0.961   0.436   1.988
  328HOH     H1 1171   0.881   0.414   2.035
  328HOH     H2 1172   1.032   0.405   2.044
  329HOH      O 1173   2.025   1.238   2.092
  329HOH     H1 1174   2.003   1.279   2.176
  329HOH     H2 1175   2.036   1.145   2.113
  330HOH      O 1176   2.371   1.513   2.259
  330HOH     H1 1177   2.341   1.594   2.299
  330HOH     H2 1178   2.291   1.461   2.248
  331HOH      O 1179   3.282   1.466   2.332
  331HOH     H1 1180   3.310   1.528   2.399
  331HOH     H2 1181   3.188   1.483   2.322
  332HOH      O 1182   0.653   1.431   1.809
  332HOH     H1 1183   0.558   1.422   1.813
  332HOH     H2 1184   0.669   1.524   1.828
  333HOH      O 1185   2.396   3.287   3.511
  333HOH     H1 1186   2.423   3.280   3.602
  333HOH     H2 1187   2.353   3.373   3.505
  334HOH      O 1188   0.526   0.290   1.812
  334HOH     H1 1189   0.612   0.316   1.779
  334HOH     H2 1190   0.542   0.207   1.857
  335HOH      O 1191   0.082   3.826   0.473
  335HOH     H1 1192   0.173   3.803   0.490
  335HOH     H2 1193   0.061   3.783   0.390
  336HOH      O 1194   2.263   3.335   1.868
  336HOH     H1 1195   2.179   3.327   1.914
  336HOH     H2 1196   2.327   3.347   1.938
  337HOH      O 1197   3.859   1.656   3.618
  337HOH     H1 1198   3.836   1.564   3.611
  337HOH     H2 1199   3.777   1.699   3.641
  338HOH      O 1200   0.949   1.658   2.061
  338HOH     H1 1201   0.952   1.672   1.967
  338HOH     H2 1202   0.857   1.642   2.081
  339HOH      O 1203   3.592   2.783   2.492
  339HOH     H1 1204   3.642   2.739   2.561
  339HOH     H2 1205   3.515   2.817   2.537
  340HOH      O 1206   0.143   2.687   3.702
  340HOH     H1 1207   0.117   2.773   3.735
  340HOH     H2 1208   0.127   2.692   3.608
  341HOH      O 1209   1.541   1.837   2.641
  341HOH     H1 1210   1.535   1.744   2.621
  341HOH     H2 1211   1.468   1.876   2.594
  342HOH      O 1212   1.757   3.673   2.875
  342HOH     H1 1213   1.734   3.584   2.850
  342HOH     H2 1214   1.686   3.701   2.933
  343HOH      O 1215   2.081   1.854   0.749
  343HOH     H1 1216   2.152   1.918   0.747
  343HOH     H2 1217   2.121   1.772   0.724
  344HOH      O 1218   3.404   3.226   0.160
  344HOH     H1 1219   3.455   3.224   0.079
  344HOH     H2 1220   3.385   3.134   0.178
  345HOH      O 1221   2.268   2.071   2.562
  345HOH     H1 1222   2.194   2.012   2.550
  345HOH     H2 1223   2.272   2.087   2.656
  346HOH      O 1224   2.593   1.594   0.532
  346HOH     H1 1225   2.672   1.600   0.479
  346HOH     H2 1226   2.625   1.564   0.618
  347HOH      O 1227   1.009   1.245   0.450
  347HOH     H1 1228   1.101   1.269   0.441
  347HOH     H2 1229   1.011   1.160   0.493
  348HOH      O 1230   0.739   3.384   3.416
  348HOH     H1 1231   0.783   3.376   3.331
  348HOH     H2 1232   0.724   3.294   3.443
  349HOH      O 1233   1.862   2.938   1.842
  349HOH     H1 1234   1.766   2.946   1.837
  349HOH     H2 1235   1.878   2.881   1.917
  350HOH      O 1236   1.241   3.558   4.003
  350HOH     H1 1237   1.187   3.569   3.925
  350HOH     H2 1238   1.295   3.481   3.983
  351HOH      O 1239   3.886   2.123   2.623
  351HOH     H1 1240   3.950   2.059   2.655
  351HOH     H2 1241   3.807   2.104   2.674
  352HOH      O 1242   3.317   1.818   2.940
  352HOH     H1 1243   3.375   1.836   2.866
  352HOH     H2 1244   3.232   1.800   2.900
  353HOH      O 1245   2.684   3.715   1.996
  353HOH     H1 1246   2.725   3.796   1.965
  353HOH     H2 1247   2.591   3.725   1.974
  354HOH      O 1248   3.980   1.299   1.815
  354HOH     H1 1249   4.009   1.218   1.857
  354HOH     H2 1250   4.034   1.367   1.856
  355HOH      O 1251   1.582   3.834   1.953
  355HOH     H1 1252   1.612   3.749   1.984
  355HOH     H2 1253   1.662   3.882   1.934
  356HOH      O 1254   0.763   2.149   2.750
  356HOH     H1 1255   0.715   2.187   2.824
  356HOH     H2 1256   0.724   2.190   2.673
  357HOH      O 1257   2.956   0.989   1.821
  357HOH     H1 1258   2.996   1.004   1.906
  357HOH     H2 1259   2.888   1.056   1.814
  358HOH      O 1260   3.276   2.795   3.741
  358HOH     H1 1261   3.186   2.784   3.773
  358HOH     H2 1262   3.315   2.709   3.749
  359HOH      O 1263   2.333   1.561   0.152
  359HOH     H1 1264   2.302   1.568   0.062
  359HOH     H2 1265   2.345   1.467   0.167
  360HOH      O 1266   0.484   2.681   1.867
  360HOH     H1 1267   0.407   2.626   1.852
  360HOH     H2 1268   0.508   2.663   1.958
  361HOH      O 1269   3.285   2.295   3.687
  361HOH     H1 1270   3.218   2.323   3.625
  361HOH     H2 1271   3.310   2.208   3.657
  362HOH      O 1272   0.072   0.122   1.153
  362HOH     H1 1273   0.114   0.203   1.181
  362HOH     H2 1274  -0.008   0.117   1.205
  363HOH      O 1275   2.629   3.934   3.302
  363HOH     H1 1276   2.698   3.989   3.338
  363HOH     H2 1277   2.596   3.981   3.226
  364HOH      O 1278   0.780   2.186   0.843
  364HOH     H1 1279   0.705   2.222   0.796
  364HOH     H2 1280   0.773   2.091   0.831
  365HOH      O 1281   1.294   1.662   1.438
  365HOH     H1 1282   1.279   1.602   1.512
  365HOH     H2 1283   1.366   1.622   1.389
  366HOH      O 1284   3.519   1.167   3.800
  366HOH     H1 1285   3.432   1.137   3.771
  366HOH     H2 1286   3.503   1.255   3.833
  367HOH      O 1287   1.253   3.453   3.544
  367HOH     H1 1288   1.261   3.414   3.457
  367HOH     H2 1289   1.342   3.480   3.566
  368HOH      O 1290   3.708   1.248   0.811
  368HOH     H1 1291   3.778   1.265   0.874
  368HOH     H2 1292   3.630   1.237   0.865
  369HOH      O 1293   1.692   2.515   2.290
  369HOH     H1 1294   1.737   2.466   2.221
  369HOH     H2 1295   1.705   2.462   2.369
  370HOH      O 1296   0.268   3.370   3.833
  370HOH     H1 1297   0.355   3.402   3.859
  370HOH     H2 1298   0.273   3.275   3.847
  371HOH      O 1299   0.214   0.788   0.291
  371HOH     H1 1300   0.170   0.747   0.217
  371HOH     H2 1301   0.303   0.803   0.260
  372HOH      O 1302   1.939   3.100   0.670
  372HOH     H1 1303   1.967   3.169   0.731
  372HOH     H2 1304   2.016   3.086   0.614
  373HOH      O 1305   0.874   2.448   0.025
  373HOH     H1 1306   0.907   2.534   0.000
  373HOH     H2 1307   0.932   2.386  -0.019
  374HOH      O 1308   3.641   2.557   1.522
  374HOH     H1 1309   3.709   2.494   1.499
  374HOH     H2 1310   3.687   2.625   1.571
  375HOH      O 1311   3.964   1.925   0.816
  375HOH     H1 1312   4.049   1.959   0.845
  375HOH     H2 1313   3.901   1.969   0.874
  376HOH      O 1314   0.251   1.902   0.417
  376HOH     H1 1315   0.224   1.958   0.490
  376HOH     H2 1316   0.171   1.857   0.390
  377HOH      O 1317   3.701   2.565   2.710
  377HOH     H1 1318   3.618   2.521   2.692
  377HOH     H2 1319   3.698   2.585   2.804
  378HOH      O 1320   1.657   1.627   3.224
  378HOH     H1 1321   1.727   1.652   3.286
  378HOH     H2 1322   1.631   1.540   3.253
  379HOH      O 1323   0.331   0.472   0.637
  379HOH     H1 1324   0.337   0.485   0.731
  379HOH     H2 1325   0.418   0.495   0.604
  380HOH      O 1326   3.598   4.005   3.565
  380HOH     H1 1327   3.526   3.944   3.582
  380HOH     H2 1328   3.562   4.091   3.584
  381HOH      O 1329   0.612   3.891   3.797
  381HOH     H1 1330   0.658   3.929   3.722
  381HOH     H2 1331   0.523   3.926   3.790
  382HOH      O 1332   3.553   0.093   1.858
  382HOH     H1 1333   3.592   0.035   1.923
  382HOH     H2 1334   3.569   0.181   1.892
  383HOH      O 1335   3.871   3.987   3.601
  383HOH     H1 1336   3.780   3.979   3.574
  383HOH     H2 1337   3.908   3.899   3.591
  384HOH      O 1338   0.997   3.970   2.932
  384HOH     H1 1339   1.042   3.936   2.855
  384HOH     H2 1340   0.969   3.892   2.980
  385HOH      O 1341   2.546   0.027   1.646
  385HOH     H1 1342   2.620   0.065   1.598
  385HOH     H2 1343   2.546  -0.065   1.620
  386HOH      O 1344   0.065   2.188   2.276
  386HOH     H1 1345   0.051   2.144   2.192
  386HOH     H2 1346   0.103   2.121   2.332
  387HOH      O 1347   2.313   1.180   1.770
  387HOH     H1 1348   2.346   1.139   1.850
  387HOH     H2 1349   2.391   1.218   1.729
  388HOH      O 1350   2.649   2.079   0.662
  388HOH     H1 1351   2.663   2.173   0.651
  388HOH     H2 1352   2.597   2.054   0.586
  389HOH      O 1353   1.719   1.483   0.538
  389HOH     H1 1354   1.809   1.507   0.513
  389HOH     H2 1355   1.664   1.547   0.493
  390HOH      O 1356   1.568   0.252   0.875
  390HOH     H1 1357   1.532   0.164   0.887
  390HOH     H2 1358   1.592   0.256   0.782
  391HOH      O 1359   2.206   3.399   0.105
  391HOH     H1 1360   2.266   3.346   0.157
  391HOH     H2 1361   2.253   3.418   0.025
  392HOH      O 1362   1.776   3.390   1.939
  392HOH     H1 1363   1.841   3.459   1.956
  392HOH     H2 1364   1.806   3.350   1.858
  393HOH      O 1365   3.804   0.858   3.767
  393HOH     H1 1366   3.785   0.832   3.857
  393HOH     H2 1367   3.804   0.954   3.770
  394HOH      O 1368   0.823   0.542   2.379
  394HOH     H1 1369   0.896   0.563   2.438
  394HOH     H2 1370   0.814   0.447   2.385
  395HOH      O 1371   1.013   2.969   3.113
  395HOH     H1 1372   0.966   2.919   3.047
  395HOH     H2 1373   1.053   3.041   3.065
  396HOH      O 1374   3.088   3.524   3.267
  396HOH     H1 1375   3.050   3.607   3.242
  396HOH     H2 1376   3.086   3.524   3.363
  397HOH      O 1377   4.032   3.554   1.390
  397HOH     H1 1378   3.959   3.498   1.364
  397HOH     H2 1379   4.088   3.496   1.443
  398HOH      O 1380   3.796   3.948   0.862
  398HOH     H1 1381   3.807   4.040   0.887
  398HOH     H2 1382   3.860   3.934   0.793
  399HOH      O 1383   3.922   2.064   0.334
  399HOH     H1 1384   3.962   2.147   0.309
  399HOH     H2 1385   3.965   1.999   0.279
  400HOH      O 1386   3.727   2.378   2.177
  400HOH     H1 1387   3.802   2.438   2.176
  400HOH     H2 1388   3.656   2.430   2.216
  401HOH      O 1389   3.925   0.089   1.358
  401HOH     H1 1390   4.002   0.090   1.414
  401HOH     H2 1391   3.852   0.107   1.417
  402HOH      O 1392   0.508   1.241   0.485
  402HOH     H1 1393   0.423   1.259   0.444
  402HOH     H2 1394   0.571   1.248   0.413
  403HOH      O 1395   2.714   0.895   1.893
  403HOH     H1 1396   2.673   0.813   1.921
  403HOH     H2 1397   2.802   0.870   1.865
  404HOH      O 1398   1.984   1.335   2.348
  404HOH     H1 1399   2.071   1.300   2.368
  404HOH     H2 1400   1.953   1.372   2.430
  405HOH      O 1401   0.060   3.760   0.155
  405HOH     H1 1402  -0.033   3.748   0.175
  405HOH     H2 1403   0.081   3.690   0.094
  406HOH      O 1404   0.909   4.004   2.550
  406HOH     H1 1405   0.897   4.085   2.599
  406HOH     H2 1406   0.913   3.936   2.617
  407HOH      O 1407   1.916   0.224   1.180
  407HOH     H1 1408   1.890   0.214   1.272
  407HOH     H2 1409   1.954   0.139   1.157
  408HOH      O 1410   1.342   1.327   0.289
  408HOH     H1 1411   1.324   1.390   0.220
  408HOH     H2 1412   1.408   1.369   0.344
  409HOH      O 1413   1.325   0.719   2.180
  409HOH     H1 1414   1.318   0.720   2.275
  409HOH     H2 1415   1.415   0.746   2.162
  410HOH      O 1416   0.210   1.641   3.942
  410HOH     H1 1417   0.282   1.654   4.004
  410HOH     H2 1418   0.132   1.668   3.990
  411HOH      O 1419   2.009   3.231   2.356
  411HOH     H1 1420   1.976   3.174   2.287
  411HOH     H2 1421   1.932   3.251   2.409
  412HOH      O 1422   1.831   1.995   2.355
  412HOH     H1 1423   1.876   2.059   2.300
  412HOH     H2 1424   1.752   2.040   2.385
  413HOH      O 1425   2.046   3.394   3.879
  413HOH     H1 1426   2.020   3.350   3.960
  413HOH     H2 1427   2.127   3.351   3.853
  414HOH      O 1428   1.347   1.981   1.554
  414HOH     H1 1429   1.270   2.021   1.513
  414HOH     H2 1430   1.311   1.924   1.622
  415HOH      O 1431   0.991   1.882   0.819
  415HOH     H1 1432   1.030   1.924   0.896
  415HOH     H2 1433   1.035   1.924   0.745
  416HOH      O 1434   2.972   2.225   1.837
  416HOH     H1 1435   2.892   2.226   1.888
  416HOH     H2 1436   3.040   2.256   1.897
  417HOH      O 1437   0.693   0.451   2.649
  417HOH     H1 1438   0.758   0.518   2.627
  417HOH     H2 1439   0.663   0.476   2.737
  418HOH      O 1440   1.498   0.715   1.777
  418HOH     H1 1441   1.498   0.667   1.694
  418HOH     H2 1442   1.424   0.775   1.771
  419HOH      O 1443   0.317   3.664   2.479
  419HOH     H1 1444   0.311   3.569   2.469
  419HOH     H2 1445   0.384   3.690   2.416
  420HOH      O 1446   2.327   3.342   0.517
  420HOH     H1 1447   2.334   3.430   0.554
  420HOH     H2 1448   2.407   3.298   0.544
  421HOH      O 1449   3.538   2.889   3.855
  421HOH     H1 1450   3.549   2.799   3.886
  421HOH     H2 1451   3.464   2.886   3.795
  422HOH      O 1452   2.885   2.747   3.574
  422HOH     H1 1453   2.940   2.718   3.647
  422HOH     H2 1454   2.930   2.716   3.496
  423HOH      O 1455   1.518   2.237   2.191
  423HOH     H1 1456   1.575   2.299   2.145
  423HOH     H2 1457   1.459   2.205   2.124
  424HOH      O 1458   3.298   0.534   3.989
  424HOH     H1 1459   3.363   0.490   4.043
  424HOH     H2 1460   3.294   0.623   4.024
  425HOH      O 1461   0.452   2.348   1.735
  425HOH     H1 1462   0.418   2.295   1.662
  425HOH     H2 1463   0.376   2.398   1.766
  426HOH      O 1464   2.947   0.288   3.422
  426HOH     H1 1465   2.862   0.256   3.392
  426HOH     H2 1466   2.930   0.321   3.510
  427HOH      O 1467   1.294   1.666   2.511
  427HOH     H1 1468   1.224   1.683   2.574
  427HOH     H2 1469   1.257   1.601   2.451
  428HOH      O 1470   3.056   1.773   2.839
  428HOH     H1 1471   3.010   1.850   2.873
  428HOH     H2 1472   3.087   1.799   2.753
  429HOH      O 1473   3.665   1.449   3.125
  429HOH     H1 1474   3.702   1.368   3.088
  429HOH     H2 1475   3.597   1.475   3.062
  430HOH      O 1476   0.815   3.015   2.060
  430HOH     H1 1477   0.750   3.044   1.997
  430HOH     H2 1478   0.764   2.988   2.136
  431HOH      O 1479   0.127   2.319   3.510
  431HOH     H1 1480   0.189   2.364   3.568
  431HOH     H2 1481   0.155   2.344   3.422
  432HOH      O 1482   2.325   2.392   3.257
  432HOH     H1 1483   2.239   2.434   3.255
  432HOH     H2 1484   2.334   2.360   3.347
  433HOH      O 1485   2.766   0.316   2.256
  433HOH     H1 1486   2.839   0.374   2.278
  433HOH     H2 1487   2.697   0.340   2.319
  434HOH      O 1488   2.699   2.453   1.633
  434HOH     H1 1489   2.740   2.370   1.609
  434HOH     H2 1490   2.693   2.451   1.728
  435HOH      O 1491   3.202   2.380   1.449
  435HOH     H1 1492   3.244   2.357   1.531
  435HOH     H2 1493   3.185   2.474   1.455
  436HOH      O 1494   1.064   3.446   3.013
  436HOH     H1 1495   1.116   3.450   2.933
  436HOH     H2 1496   1.087   3.525   3.061
  437HOH      O 1497   0.334   2.497   3.636
  437HOH     H1 1498   0.385   2.540   3.567
  437HOH     H2 1499   0.283   2.567   3.676
  438HOH      O 1500   0.590   1.173   3.539
  438HOH     H1 1501   0.514   1.217   3.577
  438HOH     H2 1502   0.654   1.244   3.526
  439HOH      O 1503   1.869   0.970   1.213
  439HOH     H1 1504   1.927   0.917   1.159
  439HOH     H2 1505   1.862   0.921   1.295
  440HOH      O 1506   3.767   1.934   2.400
  440HOH     H1 1507   3.775   2.013   2.454
  440HOH     H2 1508   3.742   1.865   2.462
  441HOH      O 1509   3.922   1.653   0.855
  441HOH     H1 1510   3.957   1.741   0.870
  441HOH     H2 1511   3.831   1.668   0.828
  442HOH      O 1512   3.566   1.342   0.396
  442HOH     H1 1513   3.606   1.266   0.439
  442HOH     H2 1514   3.578   1.325   0.302
  443HOH      O 1515   2.780   1.191   2.237
  443HOH     H1 1516   2.810   1.148   2.318
  443HOH     H2 1517   2.754   1.278   2.265
  444HOH      O 1518   0.095   2.894   0.492
  444HOH     H1 1519   0.134   2.972   0.453
  444HOH     H2 1520   0.126   2.894   0.582
  445HOH      O 1521   2.201   1.378   1.935
  445HOH     H1 1522   2.216   1.337   1.850
  445HOH     H2 1523   2.136   1.323   1.978
  446HOH      O 1524   0.441   3.209   2.178
  446HOH     H1 1525   0.391   3.281   2.138
  446HOH     H2 1526   0.378   3.137   2.185
  447HOH      O 1527   0.106   3.149   1.225
  447HOH     H1 1528   0.194   3.139   1.261
  447HOH     H2 1529   0.089   3.243   1.228
  448HOH      O 1530   2.916   0.305   1.988
  448HOH     H1 1531   3.008   0.298   1.966
  448HOH     H2 1532   2.911   0.277   2.080
  449HOH      O 1533   3.087   3.198   1.209
  449HOH     H1 1534   3.114   3.163   1.294
  449HOH     H2 1535   3.050   3.122   1.163
  450HOH      O 1536   3.548   1.759   1.919
  450HOH     H1 1537   3.479   1.780   1.983
  450HOH     H2 1538   3.621   1.727   1.972
  451HOH      O 1539   2.346   1.982   0.187
  451HOH     H1 1540   2.278   1.917   0.206
  451HOH     H2 1541   2.372   2.016   0.273
  452HOH      O 1542   1.176   1.100   1.448
  452HOH     H1 1543   1.097   1.066   1.406
  452HOH     H2 1544   1.152   1.109   1.540
  453HOH      O 1545   2.543   0.382   2.515
  453HOH     H1 1546   2.634   0.406   2.532
  453HOH     H2 1547   2.524   0.314   2.580
  454HOH      O 1548   3.643   2.728   3.599
  454HOH     H1 1549   3.567   2.714   3.656
  454HOH     H2 1550   3.713   2.755   3.659
  455HOH      O 1551   3.090   3.668   1.491
  455HOH     H1 1552   3.173   3.705   1.459
  455HOH     H2 1553   3.090   3.578   1.457
  456HOH      O 1554   1.429   2.369   1.903
  456HOH     H1 1555   1.354   2.382   1.960
  456HOH     H2 1556   1.404   2.297   1.845
  457HOH      O 1557   1.366   3.863   2.320
  457HOH     H1 1558   1.366   3.946   2.272
  457HOH     H2 1559   1.280   3.858   2.361
  458HOH      O 1560   3.947   1.199   1.449
  458HOH     H1 1561   3.887   1.257   1.402
  458HOH     H2 1562   4.018   1.256   1.479
  459HOH      O 1563   3.463   0.465   1.452
  459HOH     H1 1564   3.431   0.409   1.522
  459HOH     H2 1565   3.388   0.520   1.429
  460HOH      O 1566   3.057   1.272   0.052
  460HOH     H1 1567   3.004   1.194   0.042
  460HOH     H2 1568   3.145   1.240   0.074
  461HOH      O 1569   1.013   1.915   1.551
  461HOH     H1 1570   1.072   1.907   1.476
  461HOH     H2 1571   0.983   2.006   1.549
  462HOH      O 1572   0.135   2.008   2.451
  462HOH     H1 1573   0.227   1.982   2.458
  462HOH     H2 1574   0.101   1.995   2.540
  463HOH      O 1575   2.644   3.008   3.903
  463HOH     H1 1576   2.621   3.082   3.960
  463HOH     H2 1577   2.596   2.934   3.941
  464HOH      O 1578   2.760   0.868   1.573
  464HOH     H1 1579   2.717   0.811   1.509
  464HOH     H2 1580   2.748   0.823   1.656
  465HOH      O 1581   1.770   0.921   0.498
  465HOH     H1 1582   1.750   0.857   0.567
  465HOH     H2 1583   1.783   0.868   0.419
  466HOH      O 1584   1.536   1.585   0.908
  466HOH     H1 1585   1.454   1.624   0.937
  466HOH     H2 1586   1.527   1.492   0.930
  467HOH      O 1587   1.593   2.859   3.661
  467HOH     H1 1588   1.540   2.912   3.602
  467HOH     H2 1589   1.679   2.856   3.620
  468HOH      O 1590   2.087   2.208   0.592
  468HOH     H1 1591   2.111   2.139   0.654
  468HOH     H2 1592   2.015   2.254   0.635
  469HOH      O 1593   0.973   3.899   3.570
  469HOH     H1 1594   1.039   3.968   3.565
  469HOH     H2 1595   1.023   3.817   3.570
  470HOH      O 1596   3.623   3.337   2.949
  470HOH     H1 1597   3.590   3.307   2.865
  470HOH     H2 1598   3.600   3.430   2.952
  471HOH      O 1599   0.452   1.999   3.536
  471HOH     H1 1600   0.543   1.996   3.507
  471HOH     H2 1601   0.444   1.926   3.598
  472HOH      O 1602   3.056   0.727   0.298
  472HOH     H1 1603   3.047   0.815   0.335
  472HOH     H2 1604   3.057   0.669   0.374
  473HOH      O 1605   0.570   1.520   3.600
  473HOH     H1 1606   0.493   1.505   3.655
  473HOH     H2 1607   0.563   1.612   3.574
  474HOH      O 1608   3.400   3.298   1.792
  474HOH     H1 1609   3.419   3.384   1.757
  474HOH     H2 1610   3.485   3.254   1.799
  475HOH      O 1611   0.585   0.989   0.591
  475HOH     H1 1612   0.570   1.078   0.557
  475HOH     H2 1613   0.535   0.986   0.672
  476HOH      O 1614   1.907   2.499   3.039
  476HOH     H1 1615   1.935   2.432   2.977
  476HOH     H2 1616   1.966   2.573   3.022
  477HOH      O 1617   3.665   3.315   2.136
  477HOH     H1 1618   3.651   3.247   2.070
  477HOH     H2 1619   3.630   3.278   2.217
  478HOH      O 1620   2.161   3.671   1.701
  478HOH     H1 1621   2.139   3.762   1.720
  478HOH     H2 1622   2.104   3.620   1.757
  479HOH      O 1623   1.483   3.060   3.524
  479HOH     H1 1624   1.404   3.095   3.565
  479HOH     H2 1625   1.552   3.123   3.547
  480HOH      O 1626   2.891   2.357   2.119
  480HOH     H1 1627   2.967   2.380   2.172
  480HOH     H2 1628   2.853   2.280   2.161
  481HOH      O 1629   3.797   3.004   3.747
  481HOH     H1 1630   3.787   2.948   3.825
  481HOH     H2 1631   3.707   3.020   3.718
  482HOH      O 1632   1.371   3.844   3.365
  482HOH     H1 1633   1.358   3.932   3.329
  482HOH     H2 1634   1.428   3.857   3.441
  483HOH      O 1635   1.030   0.106   0.379
  483HOH     H1 1636   1.083   0.037   0.421
  483HOH     H2 1637   1.030   0.178   0.442
  484HOH      O 1638   1.699   3.599   0.503
  484HOH     H1 1639   1.755   3.677   0.505
  484HOH     H2 1640   1.759   3.526   0.517
  485HOH      O 1641   2.603   0.779   2.111
  485HOH     H1 1642   2.512   0.783   2.083
  485HOH     H2 1643   2.614   0.691   2.147
  486HOH      O 1644   1.823   3.319   3.308
  486HOH     H1 1645   1.744   3.325   3.361
  486HOH     H2 1646   1.895   3.332   3.369
  487HOH      O 1647   2.527   2.963   3.594
  487HOH     H1 1648   2.459   3.014   3.638
  487HOH     H2 1649   2.491   2.946   3.507
  488HOH      O 1650   1.175   3.728   3.527
  488HOH     H1 1651   1.206   3.637   3.524
  488HOH     H2 1652   1.222   3.772   3.457
  489HOH      O 1653   0.673   0.322   0.858
  489HOH     H1 1654   0.650   0.235   0.892
  489HOH     H2 1655   0.699   0.306   0.767
  490HOH      O 1656   1.373   0.067   0.951
  490HOH     H1 1657   1.289   0.064   0.904
  490HOH     H2 1658   1.353   0.113   1.032
  491HOH      O 1659   0.816   0.208   2.739
  491HOH     H1 1660   0.751   0.268   2.700
  491HOH     H2 1661   0.899   0.255   2.733
  492HOH      O 1662   0.155   1.090   1.195
  492HOH     H1 1663   0.146   1.001   1.162
  492HOH     H2 1664   0.149   1.145   1.116
  493HOH      O 1665   2.057   3.558   2.156
  493HOH     H1 1666   2.058   3.463   2.145
  493HOH     H2 1667   2.019   3.571   2.243
  494HOH      O 1668   0.894   3.757   3.060
  494HOH     H1 1669   0.856   3.806   3.132
  494HOH     H2 1670   0.819   3.729   3.008
  495HOH      O 1671   0.603   1.931   0.319
  495HOH     H1 1672   0.526   1.959   0.269
  495HOH     H2 1673   0.617   1.840   0.294
  496HOH      O 1674   2.196   1.923   3.620
  496HOH     H1 1675   2.117   1.959   3.578
  496HOH     H2 1676   2.179   1.933   3.713
  497HOH      O 1677   1.960   2.158   1.360
  497HOH     H1 1678   1.943   2.119   1.274
  497HOH     H2 1679   1.986   2.248   1.341
  498HOH      O 1680   1.876   3.795   0.554
  498HOH     H1 1681   1.862   3.889   0.542
  498HOH     H2 1682   1.967   3.780   0.528
  499HOH      O 1683   0.020   3.589   2.361
  499HOH     H1 1684   0.112   3.570   2.380
  499HOH     H2 1685   0.018   3.606   2.267
  500HOH      O 1686   0.870   3.514   3.943
  500HOH     H1 1687   0.822   3.518   3.861
  500HOH     H2 1688   0.955   3.554   3.923
  501HOH      O 1689   0.605   2.945   3.170
  501HOH     H1 1690   0.572   3.029   3.202
  501HOH     H2 1691   0.693   2.964   3.139
  502HOH      O 1692   0.166   3.379   0.649
  502HOH     H1 1693   0.134   3.412   0.733
  502HOH     H2 1694   0.250   3.424   0.636
  503HOH      O 1695   2.230   1.498   3.437
  503HOH     H1 1696   2.185   1.561   3.493
  503HOH     H2 1697   2.298   1.461   3.494
  504HOH      O 1698   2.611   3.800   2.943
  504HOH     H1 1699   2.614   3.883   2.992
  504HOH     H2 1700   2.642   3.735   3.005
  505HOH      O 1701   1.442   1.398   0.679
  505HOH     H1 1702   1.533   1.426   0.691
  505HOH     H2 1703   1.403   1.468   0.626
  506HOH      O 1704   2.755   2.736   2.123
  506HOH     H1 1705   2.754   2.683   2.203
  506HOH     H2 1706   2.828   2.701   2.072
  507HOH      O 1707   1.247   3.984   0.502
  507HOH     H1 1708   1.212   3.896   0.514
  507HOH     H2 1709   1.339   3.977   0.527
  508HOH      O 1710   0.752   0.909   2.892
  508HOH     H1 1711   0.662   0.874   2.892
  508HOH     H2 1712   0.771   0.924   2.799
  509HOH      O 1713   3.381   2.047   2.005
  509HOH     H1 1714   3.425   2.110   1.948
  509HOH     H2 1715   3.453   2.007   2.055
  510HOH      O 1716   1.746   1.696   0.158
  510HOH     H1 1717   1.715   1.734   0.241
  510HOH     H2 1718   1.783   1.771   0.111
  511HOH      O 1719   1.065   2.603   0.774
  511HOH     H1 1720   1.097   2.556   0.850
  511HOH     H2 1721   1.071   2.696   0.798
  512HOH      O 1722   0.459   1.744   3.364
  512HOH     H1 1723   0.454   1.711   3.274
  512HOH     H2 1724   0.387   1.700   3.409
  513HOH      O 1725   0.187   2.741   2.592
  513HOH     H1 1726   0.147   2.826   2.611
  513HOH     H2 1727   0.150   2.682   2.658
  514HOH      O 1728   2.496   3.373   0.832
  514HOH     H1 1729   2.410   3.333   0.838
  514HOH     H2 1730   2.481   3.465   0.853
  515HOH      O 1731   0.411   1.077   2.893
  515HOH     H1 1732   0.451   1.144   2.838
  515HOH     H2 1733   0.387   1.123   2.973
  516HOH      O 1734   3.888   2.600   2.157
  516HOH     H1 1735   3.865   2.663   2.225
  516HOH     H2 1736   3.961   2.640   2.110
  517HOH      O 1737   3.282   0.778   0.056
  517HOH     H1 1738   3.347   0.848   0.069
  517HOH     H2 1739   3.245   0.763   0.143
  518HOH      O 1740   2.397   0.922   1.588
  518HOH     H1 1741   2.477   0.974   1.587
  518HOH     H2 1742   2.329   0.984   1.614
  519HOH      O 1743   2.118   3.289   2.906
  519HOH     H1 1744   2.037   3.307   2.857
  519HOH     H2 1745   2.162   3.374   2.911
  520HOH      O 1746   1.474   3.420   1.767
  520HOH     H1 1747   1.500   3.427   1.859
  520HOH     H2 1748   1.498   3.504   1.729
  521HOH      O 1749   0.967   2.795   3.345
  521HOH     H1 1750   0.992   2.853   3.417
  521HOH     H2 1751   0.980   2.847   3.266
  522HOH      O 1752   2.247   2.669   0.450
  522HOH     H1 1753   2.244   2.628   0.364
  522HOH     H2 1754   2.155   2.678   0.476
  523HOH      O 1755   2.813   2.333   2.657
  523HOH     H1 1756   2.793   2.419   2.695
  523HOH     H2 1757   2.846   2.353   2.570
  524HOH      O 1758   2.989   2.664   2.590
  524HOH     H1 1759   3.007   2.571   2.586
  524HOH     H2 1760   2.996   2.694   2.499
  525HOH      O 1761   0.039   2.698   3.456
  525HOH     H1 1762  -0.026   2.628   3.448
  525HOH     H2 1763  -0.011   2.774   3.484
  526HOH      O 1764   3.499   2.058   0.537
  526HOH     H1 1765   3.515   2.111   0.459
  526HOH     H2 1766   3.587   2.040   0.572
  527HOH      O 1767   2.317   0.757   2.070
  527HOH     H1 1768   2.280   0.762   1.982
  527HOH     H2 1769   2.287   0.672   2.104
  528HOH      O 1770   0.754   3.606   1.125
  528HOH     H1 1771   0.764   3.616   1.220
  528HOH     H2 1772   0.764   3.695   1.091
  529HOH      O 1773   0.896   1.486   2.290
  529HOH     H1 1774   0.848   1.490   2.208
  529HOH     H2 1775   0.981   1.526   2.270
  530HOH      O 1776   2.766   0.247   0.145
  530HOH     H1 1777   2.750   0.270   0.054
  530HOH     H2 1778   2.717   0.312   0.196
  531HOH      O 1779   3.551   2.857   2.981
  531HOH     H1 1780   3.518   2.935   2.934
  531HOH     H2 1781   3.614   2.892   3.044
  532HOH      O 1782   3.936   3.618   2.602
  532HOH     H1 1783   3.964   3.620   2.510
  532HOH     H2 1784   3.956   3.706   2.634
  533HOH      O 1785   3.536   3.539   1.431
  533HOH     H1 1786   3.576   3.536   1.344
  533HOH     H2 1787   3.606   3.511   1.491
  534HOH      O 1788   3.296   3.297   1.050
  534HOH     H1 1789   3.251   3.219   1.084
  534HOH     H2 1790   3.265   3.305   0.960
  535HOH      O 1791   2.312   2.988   1.229
  535HOH     H1 1792   2.340   2.943   1.149
  535HOH     H2 1793   2.308   3.080   1.204
  536HOH      O 1794   0.988   1.732   2.820
  536HOH     H1 1795   0.977   1.807   2.761
  536HOH     H2 1796   1.082   1.719   2.825
  537HOH      O 1797   1.890   3.360   2.806
  537HOH     H1 1798   1.819   3.375   2.869
  537HOH     H2 1799   1.847   3.319   2.731
  538HOH      O 1800   0.048   1.399   2.293
  538HOH     H1 1801   0.074   1.307   2.290
  538HOH     H2 1802  -0.047   1.398   2.286
  539HOH      O 1803   3.083   1.254   1.472
  539HOH     H1 1804   2.995   1.217   1.469
  539HOH     H2 1805   3.069   1.349   1.470
  540HOH      O 1806   3.747   1.457   1.434
  540HOH     H1 1807   3.797   1.526   1.389
  540HOH     H2 1808   3.656   1.483   1.422
  541HOH      O 1809   0.378   0.510   0.898
  541HOH     H1 1810   0.459   0.460   0.906
  541HOH     H2 1811   0.386   0.580   0.962
  542HOH      O 1812   2.003   2.653   1.546
  542HOH     H1 1813   2.043   2.740   1.534
  542HOH     H2 1814   2.030   2.627   1.634
  543HOH      O 1815   0.947   3.202   0.806
  543HOH     H1 1816   1.042   3.193   0.797
  543HOH     H2 1817   0.935   3.273   0.870
  544HOH      O 1818   0.125   1.966   1.181
  544HOH     H1 1819   0.215   1.934   1.189
  544HOH     H2 1820   0.110   1.971   1.087
  545HOH      O 1821   3.173   0.384   2.608
  545HOH     H1 1822   3.082   0.365   2.583
  545HOH     H2 1823   3.174   0.374   2.703
  546HOH      O 1824   0.300   3.025   1.901
  546HOH     H1 1825   0.239   3.000   1.970
  546HOH     H2 1826   0.257   2.998   1.820
  547HOH      O 1827   1.278   3.614   3.260
  547HOH     H1 1828   1.315   3.695   3.296
  547HOH     H2 1829   1.254   3.637   3.170
  548HOH      O 1830   2.703   1.824   1.637
  548HOH     H1 1831   2.778   1.859   1.685
  548HOH     H2 1832   2.741   1.764   1.573
  549HOH      O 1833   2.704   1.557   3.534
  549HOH     H1 1834   2.785   1.520   3.570
  549HOH     H2 1835   2.691   1.511   3.451
  550HOH      O 1836   2.845   3.623   0.182
  550HOH     H1 1837   2.876   3.627   0.273
  550HOH     H2 1838   2.869   3.535   0.153
  551HOH      O 1839   1.374   0.777   4.038
  551HOH     H1 1840   1.376   0.872   4.054
  551HOH     H2 1841   1.433   0.764   3.964
  552HOH      O 1842   2.959   3.827   2.651
  552HOH     H1 1843   2.970   3.758   2.716
  552HOH     H2 1844   2.884   3.878   2.682
  553HOH      O 1845   0.054   2.867   1.126
  553HOH     H1 1846   0.104   2.943   1.155
  553HOH     H2 1847   0.011   2.895   1.045
  554HOH      O 1848   2.521   3.813   0.971
  554HOH     H1 1849   2.535   3.899   0.931
  554HOH     H2 1850   2.429   3.793   0.956
  555HOH      O 1851   2.047   1.477   3.138
  555HOH     H1 1852   2.109   1.543   3.167
  555HOH     H2 1853   2.011   1.512   3.057
  556HOH      O 1854   2.539   1.678   2.089
  556HOH     H1 1855   2.457   1.684   2.139
  556HOH     H2 1856   2.550   1.585   2.073
  557HOH      O 1857   0.578   1.871   2.257
  557HOH     H1 1858   0.611   1.794   2.304
  557HOH     H2 1859   0.642   1.940   2.275
  558HOH      O 1860   0.272   2.121   2.034
  558HOH     H1 1861   0.329   2.045   2.039
  558HOH     H2 1862   0.323   2.191   2.075
  559HOH      O 1863   3.858   2.539   3.494
  559HOH     H1 1864   3.773   2.583   3.486
  559HOH     H2 1865   3.843   2.452   3.456
  560HOH      O 1866   3.699   4.017   2.930
  560HOH     H1 1867   3.703   3.990   2.838
  560HOH     H2 1868   3.607   4.005   2.954
  561HOH      O 1869   1.294   1.542   2.104
  561HOH     H1 1870   1.380   1.504   2.124
  561HOH     H2 1871   1.234   1.467   2.108
  562HOH      O 1872   3.490   0.022   1.441
  562HOH     H1 1873   3.548   0.098   1.449
  562HOH     H2 1874   3.446   0.017   1.526
  563HOH      O 1875   1.255   0.610   1.262
  563HOH     H1 1876   1.282   0.641   1.176
  563HOH     H2 1877   1.323   0.546   1.286
  564HOH      O 1878   1.542   2.955   2.425
  564HOH     H1 1879   1.546   3.048   2.403
  564HOH     H2 1880   1.628   2.921   2.401
  565HOH      O 1881   2.112   1.903   1.258
  565HOH     H1 1882   2.030   1.856   1.272
  565HOH     H2 1883   2.178   1.850   1.302
  566HOH      O 1884   1.191   2.488   0.000
  566HOH     H1 1885   1.167   2.474   0.092
  566HOH     H2 1886   1.287   2.493   0.001
  567HOH      O 1887   0.814   3.738   0.383
  567HOH     H1 1888   0.748   3.692   0.332
  567HOH     H2 1889   0.870   3.669   0.418
  568HOH      O 1890   3.435   0.498   3.716
  568HOH     H1 1891   3.519   0.491   3.759
  568HOH     H2 1892   3.372   0.515   3.787
  569HOH      O 1893   2.615   2.658   0.082
  569HOH     H1 1894   2.530   2.619   0.062
  569HOH     H2 1895   2.596   2.728   0.144
  570HOH      O 1896   1.671   0.409   1.853
  570HOH     H1 1897   1.740   0.468   1.884
  570HOH     H2 1898   1.590   0.444   1.891
  571HOH      O 1899   3.380   3.807   3.704
  571HOH     H1 1900   3.364   3.893   3.741
  571HOH     H2 1901   3.305   3.754   3.732
  572HOH      O 1902   1.437   1.311   3.122
  572HOH     H1 1903   1.486   1.316   3.204
  572HOH     H2 1904   1.418   1.217   3.112
  573HOH      O 1905   0.594   3.586   0.221
  573HOH     H1 1906   0.665   3.524   0.236
  573HOH     H2 1907   0.519   3.547   0.265
  574HOH      O 1908   0.942   2.997   1.481
  574HOH     H1 1909   1.009   3.061   1.457
  574HOH     H2 1910   0.861   3.047   1.484
  575HOH      O 1911   1.698   2.311   1.101
  575HOH     H1 1912   1.646   2.348   1.029
  575HOH     H2 1913   1.788   2.341   1.083
  576HOH      O 1914   0.710   1.151   0.236
  576HOH     H1 1915   0.686   1.086   0.171
  576HOH     H2 1916   0.794   1.121   0.271
  577HOH      O 1917   2.556   3.214   0.556
  577HOH     H1 1918   2.599   3.202   0.471
  577HOH     H2 1919   2.627   3.227   0.618
  578HOH      O 1920   1.275   3.165   2.583
  578HOH     H1 1921   1.304   3.074   2.577
  578HOH     H2 1922   1.186   3.164   2.548
  579HOH      O 1923   2.118   3.051   0.163
  579HOH     H1 1924   2.160   2.965   0.161
  579HOH     H2 1925   2.053   3.045   0.232
  580HOH      O 1926   3.317   0.852   3.231
  580HOH     H1 1927   3.394   0.824   3.182
  580HOH     H2 1928   3.329   0.946   3.243
  581HOH      O 1929   3.330   3.151   2.978
  581HOH     H1 1930   3.403   3.117   3.030
  581HOH     H2 1931   3.294   3.221   3.032
  582HOH      O 1932   3.879   3.855   2.317
  582HOH     H1 1933   3.962   3.809   2.331
  582HOH     H2 1934   3.879   3.875   2.223
  583HOH      O 1935   3.343   3.674   3.337
  583HOH     H1 1936   3.406   3.629   3.281
  583HOH     H2 1937   3.281   3.714   3.275
  584HOH      O 1938   2.633   1.362   1.429
  584HOH     H1 1939   2.540   1.359   1.409
  584HOH     H2 1940   2.664   1.273   1.413
  585HOH      O 1941   3.554   3.608   2.923
  585HOH     H1 1942   3.598   3.597   2.839
  585HOH     H2 1943   3.461   3.615   2.901
  586HOH      O 1944   0.032   1.843   0.215
  586HOH     H1 1945   0.086   1.887   0.150
  586HOH     H2 1946  -0.032   1.793   0.164
  587HOH      O 1947   0.823   1.163   3.028
  587HOH     H1 1948   0.752   1.120   2.981
  587HOH     H2 1949   0.901   1.143   2.976
  588HOH      O 1950   2.798   3.511   2.199
  588HOH     H1 1951   2.739   3.442   2.168
  588HOH     H2 1952   2.752   3.593   2.178
  589HOH      O 1953   1.414   2.822   0.042
  589HOH     H1 1954   1.373   2.860   0.120
  589HOH     H2 1955   1.341   2.804  -0.017
  590HOH      O 1956   1.218   1.282   0.734
  590HOH     H1 1957   1.299   1.303   0.688
  590HOH     H2 1958   1.192   1.365   0.775
  591HOH      O 1959   2.444   3.876   2.037
  591HOH     H1 1960   2.412   3.819   2.107
  591HOH     H2 1961   2.490   3.946   2.083
  592HOH      O 1962   3.545   0.803   1.206
  592HOH     H1 1963   3.501   0.799   1.291
  592HOH     H2 1964   3.535   0.894   1.178
  593HOH      O 1965   0.701   0.949   1.214
  593HOH     H1 1966   0.610   0.953   1.244
  593HOH     H2 1967   0.715   0.857   1.192
  594HOH      O 1968   1.514   1.734   2.902
  594HOH     H1 1969   1.574   1.661   2.912
  594HOH     H2 1970   1.540   1.776   2.821
  595HOH      O 1971   1.086   0.045   0.134
  595HOH     H1 1972   1.067  -0.049   0.135
  595HOH     H2 1973   1.092   0.069   0.226
  596HOH      O 1974   0.251   3.522   3.400
  596HOH     H1 1975   0.205   3.532   3.484
  596HOH     H2 1976   0.303   3.442   3.411
  597HOH      O 1977   2.296   2.389   0.486
  597HOH     H1 1978   2.254   2.467   0.522
  597HOH     H2 1979   2.248   2.316   0.525
  598HOH      O 1980   3.482   1.485   0.120
  598HOH     H1 1981   3.466   1.579   0.115
  598HOH     H2 1982   3.441   1.458   0.202
  599HOH      O 1983   2.357   0.436   1.119
  599HOH     H1 1984   2.305   0.393   1.052
  599HOH     H2 1985   2.295   0.491   1.166
  600HOH      O 1986   1.539   3.606   2.429
  600HOH     H1 1987   1.475   3.666   2.392
  600HOH     H2 1988   1.487   3.538   2.471
  601HOH      O 1989   0.178   3.613   1.855
  601HOH     H1 1990   0.115   3.543   1.871
  601HOH     H2 1991   0.126   3.693   1.865
  602HOH      O 1992   0.536   0.992   1.590
  602HOH     H1 1993   0.615   0.943   1.566
  602HOH     H2 1994   0.499   1.020   1.507
  603HOH      O 1995   0.458   3.597   3.156
  603HOH     H1 1996   0.425   3.560   3.238
  603HOH     H2 1997   0.447   3.691   3.166
  604HOH      O 1998   0.246   0.435   1.843
  604HOH     H1 1999   0.335   0.413   1.815
  604HOH     H2 2000   0.211   0.488   1.772
  605HOH      O 2001   1.338   2.495   1.221
  605HOH     H1 2002   1.391   2.435   1.273
  605HOH     H2 2003   1.250   2.487   1.257
  606HOH      O 2004   3.981   2.199   1.237
  606HOH     H1 2005   4.075   2.183   1.244
  606HOH     H2 2006   3.945   2.119   1.198
  607HOH      O 2007   1.895   0.747   0.836
  607HOH     H1 2008   1.820   0.804   0.819
  607HOH     H2 2009   1.870   0.662   0.799
  608HOH      O 2010   1.103   1.986   0.590
  608HOH     H1 2011   1.063   1.916   0.540
  608HOH     H2 2012   1.071   2.066   0.550
  609HOH      O 2013   1.585   1.659   3.683
  609HOH     H1 2014   1.669   1.622   3.710
  609HOH     H2 2015   1.526   1.642   3.756
  610HOH      O 2016   3.845   1.567   1.125
  610HOH     H1 2017   3.932   1.549   1.160
  610HOH     H2 2018   3.862   1.601   1.037
  611HOH      O 2019   3.359   1.629   3.779
  611HOH     H1 2020   3.290   1.685   3.743
  611HOH     H2 2021   3.437   1.686   3.781
  612HOH      O 2022   1.191   2.236   3.079
  612HOH     H1 2023   1.109   2.199   3.113
  612HOH     H2 2024   1.211   2.182   3.003
  613HOH      O 2025   0.942   1.414   3.942
  613HOH     H1 2026   0.856   1.413   3.901
  613HOH     H2 2027   0.924   1.392   4.034
  614HOH      O 2028   2.067   3.431   3.408
  614HOH     H1 2029   2.037   3.517   3.378
  614HOH     H2 2030   2.121   3.449   3.485
  615HOH      O 2031   3.887   2.452   1.530
  615HOH     H1 2032   3.874   2.359   1.545
  615HOH     H2 2033   3.929   2.456   1.443
  616HOH      O 2034   0.217   2.409   0.136
  616HOH     H1 2035   0.306   2.443   0.140
  616HOH     H2 2036   0.175   2.461   0.068
  617HOH      O 2037   1.535   2.244   2.722
  617HOH     H1 2038   1.482   2.305   2.772
  617HOH     H2 2039   1.585   2.196   2.788
  618HOH      O 2040   2.692   0.672   1.294
  618HOH     H1 2041   2.635   0.697   1.221
  618HOH     H2 2042   2.640   0.608   1.344
  619HOH      O 2043   0.701   3.161   1.424
  619HOH     H1 2044   0.701   3.235   1.485
  619HOH     H2 2045   0.698   3.202   1.337
  620HOH      O 2046   2.235   0.788   1.204
  620HOH     H1 2047   2.144   0.774   1.180
  620HOH     H2 2048   2.247   0.883   1.199
  621HOH      O 2049   0.564   0.599   2.434
  621HOH     H1 2050   0.657   0.586   2.413
  621HOH     H2 2051   0.559   0.690   2.462
  622HOH      O 2052   2.942   1.188   0.327
  622HOH     H1 2053   2.875   1.255   0.341
  622HOH     H2 2054   2.938   1.169   0.233
  623HOH      O 2055   0.276   1.259   0.338
  623HOH     H1 2056   0.215   1.190   0.365
  623HOH     H2 2057   0.225   1.340   0.345
  624HOH      O 2058   1.152   3.870   0.789
  624HOH     H1 2059   1.146   3.960   0.821
  624HOH     H2 2060   1.076   3.860   0.730
  625HOH      O 2061   1.714   1.777   2.282
  625HOH     H1 2062   1.619   1.790   2.285
  625HOH     H2 2063   1.750   1.857   2.320
  626HOH      O 2064   3.573   2.989   2.271
  626HOH     H1 2065   3.535   2.933   2.339
  626HOH     H2 2066   3.563   3.078   2.306
  627HOH      O 2067   3.115   3.561   0.907
  627HOH     H1 2068   3.120   3.542   1.000
  627HOH     H2 2069   3.155   3.485   0.865
  628HOH      O 2070   0.964   3.564   0.547
  628HOH     H1 2071   1.002   3.614   0.619
  628HOH     H2 2072   1.035   3.507   0.517
  629HOH      O 2073   1.417   3.252   0.088
  629HOH     H1 2074   1.419   3.344   0.114
  629HOH     H2 2075   1.409   3.254  -0.008
  630HOH      O 2076   3.605   3.143   1.923
  630HOH     H1 2077   3.628   3.147   1.830
  630HOH     H2 2078   3.567   3.056   1.935
  631HOH      O 2079   0.904   2.040   3.612
  631HOH     H1 2080   0.978   2.086   3.571
  631HOH     H2 2081   0.943   1.998   3.689
  632HOH      O 2082   0.556   2.132   2.545
  632HOH     H1 2083   0.525   2.222   2.539
  632HOH     H2 2084   0.629   2.127   2.483
  633HOH      O 2085   3.345   2.586   0.124
  633HOH     H1 2086   3.399   2.641   0.179
  633HOH     H2 2087   3.398   2.508   0.108
  634HOH      O 2088   0.036   2.264   1.918
  634HOH     H1 2089   0.087   2.344   1.904
  634HOH     H2 2090   0.088   2.214   1.981
  635HOH      O 2091   0.425   2.794   2.712
  635HOH     H1 2092   0.456   2.728   2.774
  635HOH     H2 2093   0.353   2.751   2.666
  636HOH      O 2094   2.554   0.034   2.520
  636HOH     H1 2095   2.499  -0.028   2.472
  636HOH     H2 2096   2.585   0.095   2.453
  637HOH      O 2097   3.600   2.684  -0.009
  637HOH     H1 2098   3.645   2.601   0.001
  637HOH     H2 2099   3.600   2.722   0.079
  638HOH      O 2100   1.821   2.637   2.585
  638HOH     H1 2101   1.775   2.569   2.633
  638HOH     H2 2102   1.891   2.591   2.539
  639HOH      O 2103   1.986   1.473   0.293
  639HOH     H1 2104   2.005   1.444   0.203
  639HOH     H2 2105   1.923   1.544   0.282
  640HOH      O 2106   1.271   0.441   3.914
  640HOH     H1 2107   1.201   0.421   3.976
  640HOH     H2 2108   1.227   0.454   3.831
  641HOH      O 2109   1.957   3.573   1.887
  641HOH     H1 2110   2.001   3.585   1.971
  641HOH     H2 2111   1.914   3.657   1.870
  642HOH      O 2112   1.555   0.873   2.155
  642HOH     H1 2113   1.636   0.893   2.201
  642HOH     H2 2114   1.524   0.957   2.122
  643HOH      O 2115   3.224   0.146   3.960
  643HOH     H1 2116   3.181   0.198   3.892
  643HOH     H2 2117   3.224   0.056   3.926
  644HOH      O 2118   2.762   3.340   1.465
  644HOH     H1 2119   2.702   3.266   1.451
  644HOH     H2 2120   2.720   3.392   1.533
  645HOH      O 2121   1.435   2.562   0.706
  645HOH     H1 2122   1.438   2.657   0.717
  645HOH     H2 2123   1.420   2.528   0.795
  646HOH      O 2124   0.899   3.911   3.282
  646HOH     H1 2125   0.942   3.994   3.266
  646HOH     H2 2126   0.924   3.887   3.371
  647HOH      O 2127   1.535   0.291   2.132
  647HOH     H1 2128   1.564   0.341   2.209
  647HOH     H2 2129   1.519   0.358   2.066
  648HOH      O 2130   2.420   3.729   1.578
  648HOH     H1 2131   2.340   3.716   1.630
  648HOH     H2 2132   2.399   3.803   1.520
  649HOH      O 2133   1.410   3.329   2.761
  649HOH     H1 2134   1.372   3.266   2.700
  649HOH     H2 2135   1.399   3.289   2.847
  650HOH      O 2136   3.858   3.099   0.348
  650HOH     H1 2137   3.903   3.082   0.265
  650HOH     H2 2138   3.898   3.180   0.380
  651HOH      O 2139   0.785   0.053   3.027
  651HOH     H1 2140   0.851   0.007   2.976
  651HOH     H2 2141   0.749   0.118   2.966
  652HOH      O 2142   2.848   3.175   3.059
  652HOH     H1 2143   2.912   3.110   3.030
  652HOH     H2 2144   2.764   3.140   3.031
  653HOH      O 2145   2.822   3.173   2.347
  653HOH     H1 2146   2.843   3.229   2.421
  653HOH     H2 2147   2.726   3.165   2.349
  654HOH      O 2148   2.272   3.688   2.874
  654HOH     H1 2149   2.178   3.680   2.889
  654HOH     H2 2150   2.312   3.672   2.960
  655HOH      O 2151   2.806   2.728   1.800
  655HOH     H1 2152   2.728   2.782   1.786
  655HOH     H2 2153   2.772   2.643   1.830
  656HOH      O 2154   3.829   3.901   1.655
  656HOH     H1 2155   3.906   3.859   1.618
  656HOH     H2 2156   3.861   3.985   1.688
  657HOH      O 2157   2.825   1.945   2.908
  657HOH     H1 2158   2.839   1.893   2.987
  657HOH     H2 2159   2.732   1.932   2.887
  658HOH      O 2160   0.822   0.272   2.343
  658HOH     H1 2161   0.848   0.183   2.321
  658HOH     H2 2162   0.731   0.278   2.315
  659HOH      O 2163   2.399   2.079   2.057
  659HOH     H1 2164   2.330   2.031   2.104
  659HOH     H2 2165   2.444   2.011   2.007
  660HOH      O 2166   2.140   0.861   0.546
  660HOH     H1 2167   2.127   0.897   0.634
  660HOH     H2 2168   2.157   0.937   0.491
  661HOH      O 2169   0.093   1.988   4.001
  661HOH     H1 2170   0.152   2.000   3.926
  661HOH     H2 2171   0.018   1.941   3.964
  662HOH      O 2172   3.942   2.114   3.536
  662HOH     H1 2173   4.007   2.171   3.495
  662HOH     H2 2174   3.859   2.141   3.496
  663HOH      O 2175   1.046   1.738   3.565
  663HOH     H1 2176   1.062   1.646   3.585
  663HOH     H2 2177   1.118   1.784   3.608
  664HOH      O 2178   2.864   0.744   0.093
  664HOH     H1 2179   2.940   0.745   0.150
  664HOH     H2 2180   2.900   0.743   0.004
  665HOH      O 2181   3.182   0.826   0.848
  665HOH     H1 2182   3.105   0.782   0.811
  665HOH     H2 2183   3.201   0.778   0.928
  666HOH      O 2184   3.569   1.446   3.386
  666HOH     H1 2185   3.603   1.438   3.297
  666HOH     H2 2186   3.504   1.516   3.380
  667HOH      O 2187   1.180   1.835   0.072
  667HOH     H1 2188   1.172   1.929   0.057
  667HOH     H2 2189   1.254   1.808   0.017
  668HOH      O 2190   0.897   0.312   3.177
  668HOH     H1 2191   0.901   0.294   3.271
  668HOH     H2 2192   0.806   0.334   3.160
  669HOH      O 2193   0.420   3.430   1.312
  669HOH     H1 2194   0.411   3.350   1.261
  669HOH     H2 2195   0.508   3.425   1.350
  670HOH      O 2196   2.898   0.070   2.191
  670HOH     H1 2197   2.808   0.052   2.165
  670HOH     H2 2198   2.926  -0.009   2.237
  671HOH      O 2199   0.450   1.514   0.301
  671HOH     H1 2200   0.364   1.486   0.333
  671HOH     H2 2201   0.504   1.521   0.380
  672HOH      O 2202   0.544   3.970   1.586
  672HOH     H1 2203   0.512   3.923   1.663
  672HOH     H2 2204   0.635   3.992   1.608
  673HOH      O 2205   3.198   1.236   2.475
  673HOH     H1 2206   3.104   1.251   2.483
  673HOH     H2 2207   3.233   1.319   2.441
  674HOH      O 2208   0.360   1.018   3.761
  674HOH     H1 2209   0.439   0.966   3.747
  674HOH     H2 2210   0.390   1.109   3.755
  675HOH      O 2211   2.775   1.714   2.343
  675HOH     H1 2212   2.828   1.779   2.297
  675HOH     H2 2213   2.767   1.749   2.432
  676HOH      O 2214   0.967   3.062   2.491
  676HOH     H1 2215   0.881   3.092   2.520
  676HOH     H2 2216   0.960   2.966   2.490
  677HOH      O 2217   3.300   1.795   2.194
  677HOH     H1 2218   3.256   1.760   2.271
  677HOH     H2 2219   3.242   1.865   2.163
  678HOH      O 2220   3.280   0.407   2.362
  678HOH     H1 2221   3.238   0.356   2.293
  678HOH     H2 2222   3.220   0.404   2.436
  679HOH      O 2223   0.230   3.443   1.536
  679HOH     H1 2224   0.279   3.418   1.614
  679HOH     H2 2225   0.292   3.490   1.481
  680HOH      O 2226   2.125   1.102   3.403
  680HOH     H1 2227   2.185   1.129   3.334
  680HOH     H2 2228   2.095   1.015   3.377
  681HOH      O 2229   1.952   0.556   0.516
  681HOH     H1 2230   2.047   0.566   0.509
  681HOH     H2 2231   1.933   0.571   0.609
  682HOH      O 2232   0.041   3.553   3.980
  682HOH     H1 2233  -0.046   3.563   3.941
  682HOH     H2 2234   0.095   3.517   3.909
  683HOH      O 2235   3.346   2.960   1.228
  683HOH     H1 2236   3.397   3.005   1.296
  683HOH     H2 2237   3.293   2.896   1.276
  684HOH      O 2238   2.121   2.054   1.034
  684HOH     H1 2239   2.121   1.983   1.099
  684HOH     H2 2240   2.191   2.031   0.973
  685HOH      O 2241   1.082   0.092   3.167
  685HOH     H1 2242   1.057   0.052   3.084
  685HOH     H2 2243   1.045   0.180   3.164
  686HOH      O 2244   0.788   1.382   0.131
  686HOH     H1 2245   0.802   1.417   0.219
  686HOH     H2 2246   0.739   1.301   0.145
  687HOH      O 2247   0.711   0.648   3.339
  687HOH     H1 2248   0.710   0.725   3.283
  687HOH     H2 2249   0.771   0.670   3.410
  688HOH      O 2250   3.781   2.002   0.590
  688HOH     H1 2251   3.824   1.990   0.674
  688HOH     H2 2252   3.848   2.043   0.535
  689HOH      O 2253   2.439   2.413   3.727
  689HOH     H1 2254   2.390   2.472   3.784
  689HOH     H2 2255   2.530   2.440   3.738
  690HOH      O 2256   0.866   2.747   1.245
  690HOH     H1 2257   0.891   2.795   1.166
  690HOH     H2 2258   0.817   2.810   1.298
  691HOH      O 2259   1.944   0.236   0.781
  691HOH     H1 2260   1.902   0.152   0.760
  691HOH     H2 2261   2.002   0.253   0.707
  692HOH      O 2262   0.258   1.628   3.468
  692HOH     H1 2263   0.212   1.695   3.519
  692HOH     H2 2264   0.221   1.635   3.380
  693HOH      O 2265   2.084   2.510   3.277
  693HOH     H1 2266   2.034   2.501   3.359
  693HOH     H2 2267   2.017   2.517   3.209
  694HOH      O 2268   2.050   1.921   2.558
  694HOH     H1 2269   1.988   1.853   2.532
  694HOH     H2 2270   2.008   2.003   2.531
  695HOH      O 2271   3.257   1.774   3.477
  695HOH     H1 2272   3.174   1.775   3.431
  695HOH     H2 2273   3.239   1.819   3.560
  696HOH      O 2274   3.307   0.628   2.900
  696HOH     H1 2275   3.255   0.673   2.833
  696HOH     H2 2276   3.248   0.561   2.935
  697HOH      O 2277   2.533   2.674   0.399
  697HOH     H1 2278   2.534   2.587   0.360
  697HOH     H2 2279   2.471   2.667   0.471
  698HOH      O 2280   3.444   0.300   0.030
  698HOH     H1 2281   3.392   0.252  -0.034
  698HOH     H2 2282   3.400   0.286   0.113
  699HOH      O 2283   0.299   1.616   0.882
  699HOH     H1 2284   0.378   1.658   0.846
  699HOH     H2 2285   0.294   1.649   0.972
  700HOH      O 2286   2.059   2.127   3.828
  700HOH     H1 2287   2.136   2.160   3.875
  700HOH     H2 2288   2.037   2.196   3.766
  701HOH      O 2289   3.907   3.688   0.943
  701HOH     H1 2290   3.815   3.713   0.939
  701HOH     H2 2291   3.944   3.744   1.012
  702HOH      O 2292   0.125   1.247   0.989
  702HOH     H1 2293   0.128   1.290   0.903
  702HOH     H2 2294   0.159   1.312   1.050
  703HOH      O 2295   0.846   3.144   0.164
  703HOH     H1 2296   0.754   3.141   0.136
  703HOH     H2 2297   0.842   3.154   0.259
  704HOH      O 2298   0.989   3.361   2.589
  704HOH     H1 2299   0.923   3.366   2.659
  704HOH     H2 2300   1.066   3.404   2.627
  705HOH      O 2301   0.699   2.734   2.333
  705HOH     H1 2302   0.700   2.826   2.305
  705HOH     H2 2303   0.677   2.738   2.426
  706HOH      O 2304   2.021   1.410   3.913
  706HOH     H1 2305   1.947   1.352   3.932
  706HOH     H2 2306   1.980   1.491   3.881
  707HOH      O 2307   3.450   3.975   0.863
  707HOH     H1 2308   3.486   4.051   0.909
  707HOH     H2 2309   3.404   3.925   0.930
  708HOH      O 2310   0.350   3.430   0.299
  708HOH     H1 2311   0.357   3.435   0.394
  708HOH     H2 2312   0.257   3.448   0.281
  709HOH      O 2313   2.495   3.372   3.048
  709HOH     H1 2314   2.421   3.421   3.085
  709HOH     H2 2315   2.522   3.313   3.118
  710HOH      O 2316   1.646   0.600   3.593
  710HOH     H1 2317   1.567   0.646   3.622
  710HOH     H2 2318   1.635   0.510   3.625
  711HOH      O 2319   1.093   0.097   0.905
  711HOH     H1 2320   1.118   0.173   0.959
  711HOH     H2 2321   1.087   0.133   0.816
  712HOH      O 2322   0.608   1.790   1.118
  712HOH     H1 2323   0.685   1.841   1.142
  712HOH     H2 2324   0.624   1.763   1.028
  713HOH      O 2325   2.802   1.262   1.778
  713HOH     H1 2326   2.868   1.307   1.831
  713HOH     H2 2327   2.787   1.320   1.703
  714HOH      O 2328   1.987   3.458   3.132
  714HOH     H1 2329   2.040   3.390   3.091
  714HOH     H2 2330   1.938   3.412   3.201
  715HOH      O 2331   0.389   0.634   2.655
  715HOH     H1 2332   0.410   0.727   2.668
  715HOH     H2 2333   0.444   0.607   2.582
  716HOH      O 2334   2.866   1.366   0.908
  716HOH     H1 2335   2.916   1.299   0.954
  716HOH     H2 2336   2.870   1.342   0.816
  717HOH      O 2337   2.854   1.205   2.811
  717HOH     H1 2338   2.778   1.178   2.759
  717HOH     H2 2339   2.847   1.153   2.891
  718HOH      O 2340   2.823   1.451   2.026
  718HOH     H1 2341   2.764   1.450   1.951
  718HOH     H2 2342   2.764   1.454   2.102
  719HOH      O 2343   1.731   2.607   0.696
  719HOH     H1 2344   1.774   2.663   0.760
  719HOH     H2 2345   1.643   2.595   0.731
  720HOH      O 2346   1.380   2.547   3.132
  720HOH     H1 2347   1.465   2.546   3.088
  720HOH     H2 2348   1.325   2.601   3.075
  721HOH      O 2349   3.545   0.565   0.521
  721HOH     H1 2350   3.487   0.633   0.553
  721HOH     H2 2351   3.633   0.599   0.537
  722HOH      O 2352   2.772   0.331   2.872
  722HOH     H1 2353   2.743   0.416   2.905
  722HOH     H2 2354   2.741   0.268   2.937
  723HOH      O 2355   3.226   3.768   3.117
  723HOH     H1 2356   3.227   3.832   3.046
  723HOH     H2 2357   3.134   3.741   3.123
  724HOH      O 2358   2.144   0.053   2.217
  724HOH     H1 2359   2.114  -0.011   2.153
  724HOH     H2 2360   2.200   0.112   2.167
  725HOH      O 2361   2.933   0.641   1.159
  725HOH     H1 2362   2.845   0.620   1.192
  725HOH     H2 2363   2.920   0.717   1.103
  726HOH      O 2364   2.760   0.705   2.642
  726HOH     H1 2365   2.679   0.722   2.594
  726HOH     H2 2366   2.829   0.728   2.580
  727HOH      O 2367   3.896   3.286   3.777
  727HOH     H1 2368   3.812   3.244   3.758
  727HOH     H2 2369   3.874   3.377   3.796
  728HOH      O 2370   2.484   1.056   0.107
  728HOH     H1 2371   2.511   1.119   0.040
  728HOH     H2 2372   2.566   1.019   0.139
  729HOH      O 2373   3.048   0.654   3.691
  729HOH     H1 2374   3.102   0.680   3.617
  729HOH     H2 2375   3.069   0.717   3.760
  730HOH      O 2376   3.247   3.034   2.299
  730HOH     H1 2377   3.257   3.117   2.348
  730HOH     H2 2378   3.168   2.994   2.336
  731HOH      O 2379   1.234   3.453   1.682
  731HOH     H1 2380   1.314   3.438   1.732
  731HOH     H2 2381   1.164   3.453   1.747
  732HOH      O 2382   1.889   0.321   0.081
  732HOH     H1 2383   1.906   0.391   0.017
  732HOH     H2 2384   1.801   0.289   0.059
  733HOH      O 2385   0.056   0.176   0.868
  733HOH     H1 2386   0.037   0.135   0.952
  733HOH     H2 2387   0.111   0.251   0.890
  734HOH      O 2388   3.879   1.404   2.879
  734HOH     H1 2389   3.810   1.365   2.933
  734HOH     H2 2390   3.907   1.332   2.822
  735HOH      O 2391   0.226   3.095   2.412
  735HOH     H1 2392   0.140   3.134   2.397
  735HOH     H2 2393   0.253   3.128   2.498
  736HOH      O 2394   0.903   0.252   3.430
  736HOH     H1 2395   0.971   0.185   3.430
  736HOH     H2 2396   0.905   0.289   3.518
  737HOH      O 2397   3.760   2.437   3.913
  737HOH     H1 2398   3.800   2.365   3.962
  737HOH     H2 2399   3.826   2.460   3.846
  738HOH      O 2400   3.162   3.120   1.502
  738HOH     H1 2401   3.143   3.055   1.570
  738HOH     H2 2402   3.131   3.203   1.539
  739HOH      O 2403   3.358   0.171   0.657
  739HOH     H1 2404   3.375   0.077   0.650
  739HOH     H2 2405   3.441   0.213   0.634
  740HOH      O 2406   0.205   0.901   2.438
  740HOH     H1 2407   0.166   0.909   2.525
  740HOH     H2 2408   0.247   0.985   2.422
  741HOH      O 2409   3.302   3.063   1.876
  741HOH     H1 2410   3.324   3.063   1.969
  741HOH     H2 2411   3.316   3.153   1.847
  742HOH      O 2412   1.863   1.678   3.429
  742HOH     H1 2413   1.959   1.679   3.432
  742HOH     H2 2414   1.837   1.656   3.518
  743HOH      O 2415   3.836   3.378   1.348
  743HOH     H1 2416   3.796   3.434   1.281
  743HOH     H2 2417   3.799   3.291   1.332
  744HOH      O 2418   1.930   3.046   2.184
  744HOH     H1 2419   1.889   3.017   2.103
  744HOH     H2 2420   1.908   2.978   2.248
  745HOH      O 2421   3.533   2.816   3.359
  745HOH     H1 2422   3.454   2.845   3.404
  745HOH     H2 2423   3.588   2.779   3.429
  746HOH      O 2424   2.643   2.708   3.694
  746HOH     H1 2425   2.729   2.719   3.652
  746HOH     H2 2426   2.580   2.737   3.628
  747HOH      O 2427   2.913   3.237   2.092
  747HOH     H1 2428   2.898   3.226   2.185
  747HOH     H2 2429   2.961   3.158   2.066
  748HOH      O 2430   0.886   0.963   2.317
  748HOH     H1 2431   0.922   1.021   2.383
  748HOH     H2 2432   0.962   0.921   2.277
  749HOH      O 2433   0.363   1.812   1.226
  749HOH     H1 2434   0.451   1.814   1.188
  749HOH     H2 2435   0.356   1.726   1.266
  750HOH      O 2436   3.176   2.244   0.905
  750HOH     H1 2437   3.166   2.218   0.814
  750HOH     H2 2438   3.267   2.225   0.926
  751HOH      O 2439   1.184   1.605   0.795
  751HOH     H1 2440   1.200   1.687   0.842
  751HOH     H2 2441   1.245   1.606   0.722
  752HOH      O 2442   3.403   0.054   2.721
  752HOH     H1 2443   3.310   0.044   2.702
  752HOH     H2 2444   3.407   0.131   2.778
  753HOH      O 2445   1.900   1.720   1.649
  753HOH     H1 2446   1.858   1.753   1.728
  753HOH     H2 2447   1.993   1.717   1.672
  754HOH      O 2448   0.408   3.719   0.060
  754HOH     H1 2449   0.345   3.728   0.131
  754HOH     H2 2450   0.492   3.703   0.105
  755HOH      O 2451   3.291   3.226   3.316
  755HOH     H1 2452   3.347   3.159   3.276
  755HOH     H2 2453   3.287   3.296   3.251
  756HOH      O 2454   0.456   2.274   3.467
  756HOH     H1 2455   0.452   2.179   3.456
  756HOH     H2 2456   0.421   2.290   3.554
  757HOH      O 2457   2.971   2.488   2.960
  757HOH     H1 2458   2.949   2.580   2.979
  757HOH     H2 2459   2.909   2.462   2.892
  758HOH      O 2460   0.451   1.914   2.022
  758HOH     H1 2461   0.498   1.898   2.104
  758HOH     H2 2462   0.377   1.853   2.025
  759HOH      O 2463   3.570   3.959   0.342
  759HOH     H1 2464   3.549   3.915   0.424
  759HOH     H2 2465   3.530   4.046   0.350
  760HOH      O 2466   1.260   2.033   2.892
  760HOH     H1 2467   1.337   2.029   2.948
  760HOH     H2 2468   1.248   1.942   2.862
  761HOH      O 2469   2.901   3.760   0.944
  761HOH     H1 2470   2.919   3.733   1.034
  761HOH     H2 2471   2.972   3.723   0.892
  762HOH      O 2472   1.602   1.365   3.361
  762HOH     H1 2473   1.695   1.351   3.345
  762HOH     H2 2474   1.596   1.386   3.455
  763HOH      O 2475   3.977   0.184   2.311
  763HOH     H1 2476   3.954   0.162   2.401
  763HOH     H2 2477   4.030   0.263   2.319
  764HOH      O 2478   1.341   2.832   2.275
  764HOH     H1 2479   1.265   2.887   2.253
  764HOH     H2 2480   1.399   2.889   2.325
  765HOH      O 2481   3.318   0.328   1.793
  765HOH     H1 2482   3.296   0.420   1.811
  765HOH     H2 2483   3.404   0.316   1.833
  766HOH      O 2484   1.651   3.689   3.401
  766HOH     H1 2485   1.631   3.666   3.310
  766HOH     H2 2486   1.698   3.772   3.394
  767HOH      O 2487   3.277   3.506   0.556
  767HOH     H1 2488   3.334   3.556   0.615
  767HOH     H2 2489   3.279   3.554   0.474
  768HOH      O 2490   2.119   3.759   0.444
  768HOH     H1 2491   2.124   3.782   0.351
  768HOH     H2 2492   2.195   3.703   0.459
  769HOH      O 2493   1.511   1.012   3.948
  769HOH     H1 2494   1.473   1.045   3.867
  769HOH     H2 2495   1.571   0.943   3.921
  770HOH      O 2496   3.655   2.222   2.459
  770HOH     H1 2497   3.658   2.240   2.364
  770HOH     H2 2498   3.698   2.299   2.498
  771HOH      O 2499   3.801   1.984   1.038
  771HOH     H1 2500   3.827   1.925   1.110
  771HOH     H2 2501   3.710   1.961   1.021
  772HOH      O 2502   1.372   1.912   3.748
  772HOH     H1 2503   1.278   1.897   3.746
  772HOH     H2 2504   1.409   1.844   3.692
  773HOH      O 2505   0.564   2.616   0.631
  773HOH     H1 2506   0.638   2.558   0.651
  773HOH     H2 2507   0.512   2.618   0.711
  774HOH      O 2508   3.448   3.970   2.958
  774HOH     H1 2509   3.357   3.960   2.986
  774HOH     H2 2510   3.441   3.993   2.865
  775HOH      O 2511   3.529   0.649   0.859
  775HOH     H1 2512   3.452   0.630   0.913
  775HOH     H2 2513   3.520   0.591   0.784
  776HOH      O 2514   1.293   1.102   0.108
  776HOH     H1 2515   1.337   1.139   0.184
  776HOH     H2 2516   1.362   1.095   0.041
  777HOH      O 2517   2.783   1.368   4.044
  777HOH     H1 2518   2.693   1.387   4.019
  777HOH     H2 2519   2.806   1.290   3.994
  778HOH      O 2520   3.285   1.667   0.685
  778HOH     H1 2521   3.320   1.734   0.627
  778HOH     H2 2522   3.346   1.593   0.675
  779HOH      O 2523   1.430   1.016   0.463
  779HOH     H1 2524   1.484   1.088   0.431
  779HOH     H2 2525   1.452   1.009   0.556
  780HOH      O 2526   3.700   3.337   3.438
  780HOH     H1 2527   3.761   3.298   3.376
  780HOH     H2 2528   3.643   3.392   3.383
  781HOH      O 2529   2.652   2.988   2.936
  781HOH     H1 2530   2.576   3.036   2.967
  781HOH     H2 2531   2.649   2.996   2.840
  782HOH      O 2532   2.257   1.498   2.629
  782HOH     H1 2533   2.260   1.443   2.707
  782HOH     H2 2534   2.164   1.509   2.610
  783HOH      O 2535   0.759   0.852   1.525
  783HOH     H1 2536   0.813   0.858   1.446
  783HOH     H2 2537   0.808   0.796   1.585
  784HOH      O 2538   1.665   1.287   3.646
  784HOH     H1 2539   1.599   1.233   3.690
  784HOH     H2 2540   1.721   1.224   3.601
  785HOH      O 2541   1.454   1.094   2.033
  785HOH     H1 2542   1.451   1.047   1.950
  785HOH     H2 2543   1.500   1.175   2.013
  786HOH      O 2544   1.046   0.791   1.817
  786HOH     H1 2545   0.974   0.845   1.846
  786HOH     H2 2546   1.005   0.724   1.762
  787HOH      O 2547   1.848   3.145   1.505
  787HOH     H1 2548   1.807   3.080   1.448
  787HOH     H2 2549   1.778   3.207   1.526
  788HOH      O 2550   1.452   0.710   1.507
  788HOH     H1 2551   1.441   0.805   1.511
  788HOH     H2 2552   1.527   0.697   1.449
  789HOH      O 2553   1.043   3.192   3.327
  789HOH     H1 2554   1.096   3.120   3.293
  789HOH     H2 2555   1.106   3.261   3.346
  790HOH      O 2556   1.081   0.863   0.204
  790HOH     H1 2557   1.118   0.835   0.120
  790HOH     H2 2558   1.054   0.954   0.189
  791HOH      O 2559   3.470   3.061   3.204
  791HOH     H1 2560   3.561   3.092   3.205
  791HOH     H2 2561   3.473   2.977   3.250
  792HOH      O 2562   3.515   0.536   1.174
  792HOH     H1 2563   3.531   0.630   1.187
  792HOH     H2 2564   3.518   0.500   1.263
  793HOH      O 2565   3.360   1.817   0.503
  793HOH     H1 2566   3.411   1.898   0.503
  793HOH     H2 2567   3.337   1.803   0.411
  794HOH      O 2568   0.414   0.992   1.341
  794HOH     H1 2569   0.396   1.067   1.284
  794HOH     H2 2570   0.346   0.929   1.319
  795HOH      O 2571   1.261   2.602   2.394
  795HOH     H1 2572   1.288   2.674   2.337
  795HOH     H2 2573   1.330   2.598   2.461
  796HOH      O 2574   2.941   1.563   2.672
  796HOH     H1 2575   2.920   1.646   2.716
  796HOH     H2 2576   2.856   1.533   2.638
  797HOH      O 2577   1.273   2.881   1.581
  797HOH     H1 2578   1.268   2.971   1.550
  797HOH     H2 2579   1.294   2.829   1.504
  798HOH      O 2580   1.918   2.559   0.474
  798HOH     H1 2581   1.860   2.624   0.512
  798HOH     H2 2582   1.977   2.534   0.545
  799HOH      O 2583   3.119   2.503   1.770
  799HOH     H1 2584   3.162   2.456   1.840
  799HOH     H2 2585   3.049   2.444   1.740
  800HOH      O 2586   0.944   1.117   3.748
  800HOH     H1 2587   0.974   1.188   3.692
  800HOH     H2 2588   1.021   1.093   3.800
  801HOH      O 2589   3.149   3.336   1.716
  801HOH     H1 2590   3.137   3.430   1.734
  801HOH     H2 2591   3.236   3.316   1.750
  802HOH      O 2592   3.793   1.202   3.041
  802HOH     H1 2593   3.874   1.209   2.990
  802HOH     H2 2594   3.737   1.145   2.989
  803HOH      O 2595   0.333   1.981   1.749
  803HOH     H1 2596   0.333   2.002   1.842
  803HOH     H2 2597   0.269   2.042   1.711
  804HOH      O 2598   0.295   3.704   3.848
  804HOH     H1 2599   0.308   3.799   3.848
  804HOH     H2 2600   0.331   3.674   3.931
  805HOH      O 2601   0.470   2.530   0.096
  805HOH     H1 2602   0.470   2.626   0.092
  805HOH     H2 2603   0.519   2.504   0.018
  806HOH      O 2604   2.958   1.392   0.648
  806HOH     H1 2605   2.948   1.480   0.614
  806HOH     H2 2606   3.040   1.361   0.610
  807HOH      O 2607   2.424   2.893   0.980
  807HOH     H1 2608   2.483   2.966   0.962
  807HOH     H2 2609   2.482   2.818   0.990
  808HOH      O 2610   3.361   0.044   1.686
  808HOH     H1 2611   3.300   0.118   1.694
  808HOH     H2 2612   3.419   0.052   1.762
  809HOH      O 2613   2.812   1.923   0.810
  809HOH     H1 2614   2.769   1.990   0.758
  809HOH     H2 2615   2.883   1.891   0.754
  810HOH      O 2616   2.331   1.700   1.104
  810HOH     H1 2617   2.246   1.656   1.106
  810HOH     H2 2618   2.350   1.719   1.196
  811HOH      O 2619   2.232   1.295   1.523
  811HOH     H1 2620   2.159   1.260   1.472
  811HOH     H2 2621   2.218   1.261   1.612
  812HOH      O 2622   3.016   3.830   2.156
  812HOH     H1 2623   3.010   3.825   2.251
  812HOH     H2 2624   3.037   3.741   2.129
  813HOH      O 2625   2.227   2.546   2.694
  813HOH     H1 2626   2.268   2.462   2.715
  813HOH     H2 2627   2.244   2.601   2.770
  814HOH      O 2628   3.451   2.270   0.919
  814HOH     H1 2629   3.546   2.278   0.928
  814HOH     H2 2630   3.429   2.321   0.842
  815HOH      O 2631   0.070   2.204   1.625
  815HOH     H1 2632  -0.016   2.177   1.593
  815HOH     H2 2633   0.066   2.192   1.719
  816HOH      O 2634   2.491   3.292   3.763
  816HOH     H1 2635   2.581   3.259   3.762
  816HOH     H2 2636   2.472   3.307   3.856
  817HOH      O 2637   0.078   3.395   0.203
  817HOH     H1 2638   0.081   3.313   0.154
  817HOH     H2 2639   0.038   3.458   0.143
  818HOH      O 2640   1.283   2.480   1.691
  818HOH     H1 2641   1.233   2.492   1.772
  818HOH     H2 2642   1.221   2.502   1.621
  819HOH      O 2643   3.964   0.118   1.708
  819HOH     H1 2644   3.992   0.133   1.799
  819HOH     H2 2645   4.008   0.186   1.658
  820HOH      O 2646   0.762   0.111   0.662
  820HOH     H1 2647   0.738   0.061   0.739
  820HOH     H2 2648   0.735   0.056   0.588
  821HOH      O 2649   0.136   1.824   3.585
  821HOH     H1 2650   0.092   1.898   3.545
  821HOH     H2 2651   0.156   1.853   3.674
  822HOH      O 2652   1.528   2.239   0.462
  822HOH     H1 2653   1.580   2.230   0.542
  822HOH     H2 2654   1.458   2.174   0.472
  823HOH      O 2655   2.771   1.757   3.116
  823HOH     H1 2656   2.837   1.692   3.139
  823HOH     H2 2657   2.701   1.707   3.074
  824HOH      O 2658   1.950   1.661   2.212
  824HOH     H1 2659   1.867   1.705   2.235
  824HOH     H2 2660   1.934   1.624   2.125
  825HOH      O 2661   1.929   2.007   1.958
  825HOH     H1 2662   1.920   1.927   2.009
  825HOH     H2 2663   2.004   1.990   1.900
  826HOH      O 2664   0.402   1.575   2.214
  826HOH     H1 2665   0.363   1.494   2.182
  826HOH     H2 2666   0.338   1.643   2.191
  827HOH      O 2667   3.353   3.790   0.242
  827HOH     H1 2668   3.289   3.775   0.312
  827HOH     H2 2669   3.428   3.830   0.286
  828HOH      O 2670   2.109   2.481   1.166
  828HOH     H1 2671   2.057   2.414   1.122
  828HOH     H2 2672   2.044   2.543   1.201
  829HOH      O 2673   2.425   2.704   3.122
  829HOH     H1 2674   2.414   2.758   3.201
  829HOH     H2 2675   2.432   2.614   3.156
  830HOH      O 2676   3.641   0.625   3.482
  830HOH     H1 2677   3.551   0.607   3.453
  830HOH     H2 2678   3.678   0.538   3.499
  831HOH      O 2679   1.768   0.151   2.132
  831HOH     H1 2680   1.692   0.208   2.124
  831HOH     H2 2681   1.733   0.072   2.175
  832HOH      O 2682   2.187   3.355   2.497
  832HOH     H1 2683   2.128   3.318   2.432
  832HOH     H2 2684   2.157   3.446   2.507
  833HOH      O 2685   1.318   1.240   2.218
  833HOH     H1 2686   1.224   1.221   2.221
  833HOH     H2 2687   1.355   1.165   2.172
  834HOH      O 2688   1.202   1.426   2.397
  834HOH     H1 2689   1.194   1.363   2.469
  834HOH     H2 2690   1.236   1.374   2.324
  835HOH      O 2691   1.628   0.237   0.072
  835HOH     H1 2692   1.602   0.300   0.139
  835HOH     H2 2693   1.563   0.166   0.079
  836HOH      O 2694   1.220   1.451   3.030
  836HOH     H1 2695   1.289   1.394   3.064
  836HOH     H2 2696   1.169   1.394   2.973
  837HOH      O 2697   0.378   3.841   3.192
  837HOH     H1 2698   0.352   3.860   3.102
  837HOH     H2 2699   0.296   3.833   3.239
  838HOH      O 2700   2.028   2.502   2.476
  838HOH     H1 2701   2.048   2.470   2.388
  838HOH     H2 2702   2.113   2.501   2.521
  839HOH      O 2703   3.708   3.139   1.310
  839HOH     H1 2704   3.650   3.157   1.236
  839HOH     H2 2705   3.664   3.069   1.358
  840HOH      O 2706   1.761   1.502   2.749
  840HOH     H1 2707   1.739   1.457   2.830
  840HOH     H2 2708   1.677   1.512   2.704
  841HOH      O 2709   0.151   0.517   3.941
  841HOH     H1 2710   0.099   0.439   3.961
  841HOH     H2 2711   0.160   0.516   3.846
  842HOH      O 2712   1.251   2.770   3.884
  842HOH     H1 2713   1.187   2.712   3.922
  842HOH     H2 2714   1.291   2.719   3.813
  843HOH      O 2715   2.578   1.854   2.788
  843HOH     H1 2716   2.546   1.945   2.789
  843HOH     H2 2717   2.498   1.801   2.791
  844HOH      O 2718   0.982   1.576   0.614
  844HOH     H1 2719   0.955   1.659   0.574
  844HOH     H2 2720   1.072   1.591   0.643
  845HOH      O 2721   2.834   3.502   1.864
  845HOH     H1 2722   2.900   3.539   1.806
  845HOH     H2 2723   2.781   3.577   1.892
  846HOH      O 2724   3.777   3.551   3.900
  846HOH     H1 2725   3.751   3.641   3.879
  846HOH     H2 2726   3.772   3.546   3.995
  847HOH      O 2727   2.260   0.698   0.120
  847HOH     H1 2728   2.318   0.625   0.100
  847HOH     H2 2729   2.245   0.741   0.036
  848HOH      O 2730   1.439   3.015   1.236
  848HOH     H1 2731   1.447   3.060   1.152
  848HOH     H2 2732   1.499   3.062   1.294
  849HOH      O 2733   3.651   3.750   1.870
  849HOH     H1 2734   3.704   3.828   1.887
  849HOH     H2 2735   3.585   3.779   1.808
  850HOH      O 2736   0.797   1.770   3.034
  850HOH     H1 2737   0.829   1.772   2.943
  850HOH     H2 2738   0.858   1.712   3.079
  851HOH      O 2739   1.304   1.643   0.556
  851HOH     H1 2740   1.328   1.732   0.583
  851HOH     H2 2741   1.280   1.652   0.463
  852HOH      O 2742   1.492   0.294   3.852
  852HOH     H1 2743   1.562   0.305   3.916
  852HOH     H2 2744   1.434   0.369   3.867
  853HOH      O 2745   3.629   1.724   1.580
  853HOH     H1 2746   3.682   1.675   1.643
  853HOH     H2 2747   3.692   1.762   1.520
  854HOH      O 2748   0.420   2.326   2.158
  854HOH     H1 2749   0.352   2.363   2.215
  854HOH     H2 2750   0.498   2.323   2.213
  855HOH      O 2751   1.658   0.453   2.788
  855HOH     H1 2752   1.692   0.426   2.703
  855HOH     H2 2753   1.729   0.434   2.850
  856HOH      O 2754   3.677   1.184   0.169
  856HOH     H1 2755   3.756   1.218   0.126
  856HOH     H2 2756   3.700   1.094   0.193
  857HOH      O 2757   0.863   1.214   1.956
  857HOH     H1 2758   0.793   1.244   2.014
  857HOH     H2 2759   0.828   1.224   1.868
  858HOH      O 2760   0.522  -0.023   2.665
  858HOH     H1 2761   0.455   0.028   2.619
  858HOH     H2 2762   0.586   0.042   2.694
  859HOH      O 2763   2.966   3.613   2.820
  859HOH     H1 2764   2.875   3.606   2.791
  859HOH     H2 2765   2.991   3.522   2.839
  860HOH      O 2766   0.809   0.194   1.435
  860HOH     H1 2767   0.837   0.209   1.345
  860HOH     H2 2768   0.746   0.122   1.429
  861HOH      O 2769   0.038   1.423   3.567
  861HOH     H1 2770   0.081   1.477   3.501
  861HOH     H2 2771  -0.054   1.446   3.561
  862HOH      O 2772   0.015   3.999   0.703
  862HOH     H1 2773   0.072   3.925   0.721
  862HOH     H2 2774   0.041   4.066   0.767
  863HOH      O 2775   1.658   0.527   1.469
  863HOH     H1 2776   1.742   0.511   1.426
  863HOH     H2 2777   1.648   0.453   1.529
  864HOH      O 2778   0.817   3.418   0.176
  864HOH     H1 2779   0.824   3.335   0.129
  864HOH     H2 2780   0.866   3.480   0.122
  865HOH      O 2781   3.311   0.980   3.747
  865HOH     H1 2782   3.377   0.912   3.731
  865HOH     H2 2783   3.237   0.932   3.784
  866HOH      O 2784   2.469   0.234   0.484
  866HOH     H1 2785   2.504   0.208   0.399
  866HOH     H2 2786   2.388   0.280   0.463
  867HOH      O 2787   1.096   3.949   1.256
  867HOH     H1 2788   1.001   3.938   1.257
  867HOH     H2 2789   1.124   3.907   1.175
  868HOH      O 2790   2.916   1.000   0.702
  868HOH     H1 2791   2.946   1.091   0.708
  868HOH     H2 2792   2.826   1.002   0.735
  869HOH      O 2793   2.301   0.867   2.333
  869HOH     H1 2794   2.275   0.803   2.399
  869HOH     H2 2795   2.314   0.816   2.253
  870HOH      O 2796   3.937   1.723   1.842
  870HOH     H1 2797   3.878   1.684   1.776
  870HOH     H2 2798   4.018   1.740   1.794
  871HOH      O 2799   0.054   2.507   3.127
  871HOH     H1 2800  -0.007   2.542   3.191
  871HOH     H2 2801   0.132   2.483   3.178
  872HOH      O 2802   2.394   1.690   3.621
  872HOH     H1 2803   2.422   1.719   3.535
  872HOH     H2 2804   2.408   1.595   3.620
  873HOH      O 2805   3.426   3.528   1.674
  873HOH     H1 2806   3.425   3.617   1.708
  873HOH     H2 2807   3.452   3.538   1.582
  874HOH      O 2808   3.882   1.268   4.033
  874HOH     H1 2809   3.889   1.266   3.937
  874HOH     H2 2810   3.966   1.235   4.064
  875HOH      O 2811   2.698   0.328   3.934
  875HOH     H1 2812   2.617   0.294   3.895
  875HOH     H2 2813   2.753   0.352   3.860
  876HOH      O 2814   0.649   2.992   2.288
  876HOH     H1 2815   0.650   3.046   2.367
  876HOH     H2 2816   0.560   3.000   2.254
  877HOH      O 2817   2.157   3.126   0.509
  877HOH     H1 2818   2.202   3.200   0.549
  877HOH     H2 2819   2.174   3.135   0.415
  878HOH      O 2820   2.663   0.558   3.637
  878HOH     H1 2821   2.590   0.584   3.692
  878HOH     H2 2822   2.633   0.577   3.548
  879HOH      O 2823   1.529   1.263   1.462
  879HOH     H1 2824   1.539   1.276   1.556
  879HOH     H2 2825   1.544   1.169   1.450
  880HOH      O 2826   2.775   2.113   0.277
  880HOH     H1 2827   2.833   2.076   0.211
  880HOH     H2 2828   2.831   2.171   0.328
  881HOH      O 2829   3.406   0.876   0.345
  881HOH     H1 2830   3.455   0.832   0.275
  881HOH     H2 2831   3.390   0.808   0.409
  882HOH      O 2832   0.333   1.197   3.154
  882HOH     H1 2833   0.360   1.288   3.141
  882HOH     H2 2834   0.238   1.201   3.164
  883HOH      O 2835   0.215   2.439   1.518
  883HOH     H1 2836   0.146   2.387   1.559
  883HOH     H2 2837   0.213   2.413   1.426
  884HOH      O 2838   0.638   2.352   1.957
  884HOH     H1 2839   0.596   2.368   1.873
  884HOH     H2 2840   0.568   2.367   2.022
  885HOH      O 2841   3.890   1.734   0.054
  885HOH     H1 2842   3.890   1.748  -0.041
  885HOH     H2 2843   3.836   1.656   0.066
  886HOH      O 2844   0.634   3.344   3.048
  886HOH     H1 2845   0.726   3.348   3.073
  886HOH     H2 2846   0.632   3.375   2.957
  887HOH      O 2847   2.959   3.198   0.931
  887HOH     H1 2848   2.922   3.236   1.011
  887HOH     H2 2849   3.051   3.183   0.952
  888HOH      O 2850   0.758   2.127   2.366
  888HOH     H1 2851   0.763   2.187   2.292
  888HOH     H2 2852   0.842   2.136   2.410
  889HOH      O 2853   2.781   1.836   2.586
  889HOH     H1 2854   2.694   1.816   2.622
  889HOH     H2 2855   2.794   1.929   2.605
  890HOH      O 2856   0.347   0.106   2.218
  890HOH     H1 2857   0.346   0.068   2.305
  890HOH     H2 2858   0.271   0.164   2.215
  891HOH      O 2859   0.234   2.415   3.285
  891HOH     H1 2860   0.276   2.501   3.287
  891HOH     H2 2861   0.302   2.355   3.315
  892HOH      O 2862   2.664   0.429   1.151
  892HOH     H1 2863   2.643   0.414   1.243
  892HOH     H2 2864   2.579   0.426   1.107
  893HOH      O 2865   1.398   3.110   1.718
  893HOH     H1 2866   1.459   3.043   1.687
  893HOH     H2 2867   1.430   3.134   1.805
  894HOH      O 2868   1.860   2.510   3.459
  894HOH     H1 2869   1.870   2.555   3.543
  894HOH     H2 2870   1.771   2.532   3.431
  895HOH      O 2871   1.435   0.213   1.573
  895HOH     H1 2872   1.401   0.300   1.594
  895HOH     H2 2873   1.357   0.160   1.555
  896HOH      O 2874   0.712   0.904   3.176
  896HOH     H1 2875   0.777   0.921   3.107
  896HOH     H2 2876   0.683   0.992   3.202
  897HOH      O 2877   3.166   0.079   2.600
  897HOH     H1 2878   3.160   0.152   2.538
  897HOH     H2 2879   3.127   0.005   2.553
  898HOH      O 2880   1.591   2.458   3.849
  898HOH     H1 2881   1.617   2.374   3.811
  898HOH     H2 2882   1.498   2.448   3.868
  899HOH      O 2883   2.735   3.588   3.091
  899HOH     H1 2884   2.760   3.549   3.175
  899HOH     H2 2885   2.657   3.540   3.064
  900HOH      O 2886   0.390   1.786   2.863
  900HOH     H1 2887   0.333   1.756   2.792
  900HOH     H2 2888   0.356   1.873   2.885
  901HOH      O 2889   2.424   2.725   2.248
  901HOH     H1 2890   2.428   2.759   2.337
  901HOH     H2 2891   2.366   2.786   2.202
  902HOH      O 2892   1.596   2.510   0.455
  902HOH     H1 2893   1.624   2.524   0.545
  902HOH     H2 2894   1.585   2.415   0.448
  903HOH      O 2895   0.732   1.924   0.765
  903HOH     H1 2896   0.721   1.956   0.676
  903HOH     H2 2897   0.826   1.909   0.774
  904HOH      O 2898   3.612   0.895   3.348
  904HOH     H1 2899   3.639   0.817   3.396
  904HOH     H2 2900   3.629   0.874   3.256
  905HOH      O 2901   1.822   1.978   0.707
  905HOH     H1 2902   1.902   1.927   0.723
  905HOH     H2 2903   1.754   1.913   0.692
  906HOH      O 2904   3.907   2.394   2.836
  906HOH     H1 2905   3.918   2.329   2.767
  906HOH     H2 2906   3.996   2.420   2.860
  907HOH      O 2907   1.623   1.454   3.004
  907HOH     H1 2908   1.542   1.408   3.028
  907HOH     H2 2909   1.645   1.505   3.082
  908HOH      O 2910   0.253   0.726   1.459
  908HOH     H1 2911   0.233   0.773   1.540
  908HOH     H2 2912   0.167   0.710   1.419
  909HOH      O 2913   3.591   3.714   2.140
  909HOH     H1 2914   3.618   3.708   2.049
  909HOH     H2 2915   3.649   3.653   2.186
  910HOH      O 2916   0.919   2.589   2.216
  910HOH     H1 2917   0.842   2.617   2.265
  910HOH     H2 2918   0.943   2.665   2.164
  911HOH      O 2919   1.093   3.987   2.149
  911HOH     H1 2920   1.111   3.977   2.242
  911HOH     H2 2921   1.098   3.898   2.114
  912HOH      O 2922   1.889   1.106   3.566
  912HOH     H1 2923   1.939   1.185   3.588
  912HOH     H2 2924   1.900   1.096   3.472
  913HOH      O 2925   3.823   2.046   3.801
  913HOH     H1 2926   3.890   2.107   3.768
  913HOH     H2 2927   3.779   2.095   3.871
  914HOH      O 2928   1.112   0.090   3.522
  914HOH     H1 2929   1.120   0.167   3.578
  914HOH     H2 2930   1.193   0.089   3.471
  915HOH      O 2931   0.895   2.314   1.042
  915HOH     H1 2932   0.875   2.264   1.122
  915HOH     H2 2933   0.872   2.255   0.971
  916HOH      O 2934   2.112   2.739   3.074
  916HOH     H1 2935   2.127   2.822   3.028
  916HOH     H2 2936   2.193   2.690   3.062
  917HOH      O 2937   0.832   0.931   1.932
  917HOH     H1 2938   0.841   0.880   2.012
  917HOH     H2 2939   0.882   1.011   1.949
  918HOH      O 2940   0.519   0.770   2.923
  918HOH     H1 2941   0.508   0.678   2.948
  918HOH     H2 2942   0.476   0.819   2.993
  919HOH      O 2943   1.192   2.503   3.515
  919HOH     H1 2944   1.271   2.543   3.478
  919HOH     H2 2945   1.156   2.571   3.572
  920HOH      O 2946   0.428   0.488   2.124
  920HOH     H1 2947   0.413   0.556   2.059
  920HOH     H2 2948   0.386   0.520   2.203
  921HOH      O 2949   3.014   0.197   1.586
  921HOH     H1 2950   2.981   0.252   1.515
  921HOH     H2 2951   3.078   0.140   1.544
  922HOH      O 2952   1.067   0.791   2.811
  922HOH     H1 2953   1.071   0.698   2.789
  922HOH     H2 2954   1.089   0.795   2.904
  923HOH      O 2955   2.586   2.217   2.176
  923HOH     H1 2956   2.498   2.182   2.160
  923HOH     H2 2957   2.625   2.156   2.239
  924HOH      O 2958   2.135   0.383   1.311
  924HOH     H1 2959   2.101   0.463   1.349
  924HOH     H2 2960   2.061   0.345   1.263
  925HOH      O 2961   2.587   1.945  -0.007
  925HOH     H1 2962   2.621   1.906   0.074
  925HOH     H2 2963   2.492   1.944   0.005
  926HOH      O 2964   1.095   2.773   0.130
  926HOH     H1 2965   1.092   2.680   0.153
  926HOH     H2 2966   1.139   2.815   0.204
  927HOH      O 2967   1.223   0.046   1.484
  927HOH     H1 2968   1.256  -0.041   1.506
  927HOH     H2 2969   1.201   0.041   1.391
  928HOH      O 2970   2.492   2.439   2.520
  928HOH     H1 2971   2.458   2.418   2.607
  928HOH     H2 2972   2.470   2.531   2.507
  929HOH      O 2973   0.453   2.918   1.069
  929HOH     H1 2974   0.472   2.900   0.977
  929HOH     H2 2975   0.539   2.932   1.109
  930HOH      O 2976   0.020   3.439   1.987
  930HOH     H1 2977   0.043   3.347   1.998
  930HOH     H2 2978  -0.058   3.437   1.932
  931HOH      O 2979   1.430   3.695   3.809
  931HOH     H1 2980   1.475   3.733   3.884
  931HOH     H2 2981   1.405   3.607   3.839
  932HOH      O 2982   2.025   2.768   3.322
  932HOH     H1 2983   2.040   2.776   3.227
  932HOH     H2 2984   2.062   2.682   3.343
  933HOH      O 2985   1.183   3.014   3.820
  933HOH     H1 2986   1.215   2.931   3.857
  933HOH     H2 2987   1.119   3.045   3.884
  934HOH      O 2988   3.603   3.163   0.411
  934HOH     H1 2989   3.602   3.256   0.389
  934HOH     H2 2990   3.692   3.134   0.392
  935HOH      O 2991   0.445   1.956   0.825
  935HOH     H1 2992   0.536   1.986   0.822
  935HOH     H2 2993   0.435   1.900   0.748
  936HOH      O 2994   3.586   1.714   1.249
  936HOH     H1 2995   3.635   1.789   1.282
  936HOH     H2 2996   3.501   1.750   1.224
  937HOH      O 2997   1.684   0.301   1.619
  937HOH     H1 2998   1.694   0.333   1.709
  937HOH     H2 2999   1.600   0.255   1.619
  938HOH      O 3000   2.903   3.214   1.694
  938HOH     H1 3001   2.986   3.258   1.712
  938HOH     H2 3002   2.879   3.243   1.606
  939HOH      O 3003   0.761   0.115   0.339
  939HOH     H1 3004   0.856   0.126   0.339
  939HOH     H2 3005   0.726   0.202   0.358
  940HOH      O 3006   2.295   0.042   0.898
  940HOH     H1 3007   2.362   0.023   0.833
  940HOH     H2 3008   2.216   0.001   0.863
  941HOH      O 3009   2.599   1.688   3.785
  941HOH     H1 3010   2.520   1.716   3.739
  941HOH     H2 3011   2.643   1.630   3.723
  942HOH      O 3012   0.159   3.571   3.660
  942HOH     H1 3013   0.195   3.487   3.688
  942HOH     H2 3014   0.201   3.635   3.716
  943HOH      O 3015   2.945   2.317   1.109
  943HOH     H1 3016   3.012   2.311   1.041
  943HOH     H2 3017   2.990   2.292   1.189
  944HOH      O 3018   2.263   1.270   2.422
  944HOH     H1 3019   2.350   1.235   2.405
  944HOH     H2 3020   2.273   1.322   2.502
  945HOH      O 3021   2.967   1.762   1.544
  945HOH     H1 3022   2.986   1.785   1.635
  945HOH     H2 3023   2.967   1.666   1.544
  946HOH      O 3024   0.440   2.625   1.580
  946HOH     H1 3025   0.378   2.559   1.549
  946HOH     H2 3026   0.401   2.658   1.661
  947HOH      O 3027   2.432   1.411   3.583
  947HOH     H1 3028   2.521   1.381   3.602
  947HOH     H2 3029   2.378   1.333   3.594
  948HOH      O 3030   1.777  -0.010   1.622
  948HOH     H1 3031   1.694   0.006   1.576
  948HOH     H2 3032   1.765   0.031   1.708
  949HOH      O 3033   2.595   2.123   2.693
  949HOH     H1 3034   2.658   2.184   2.655
  949HOH     H2 3035   2.554   2.081   2.617
  950HOH      O 3036   2.701   1.899   2.098
  950HOH     H1 3037   2.642   1.824   2.107
  950HOH     H2 3038   2.755   1.877   2.022
  951HOH      O 3039   2.221   3.098   3.435
  951HOH     H1 3040   2.226   3.047   3.516
  951HOH     H2 3041   2.278   3.173   3.451
  952HOH      O 3042   1.066   2.201   2.140
  952HOH     H1 3043   0.999   2.135   2.122
  952HOH     H2 3044   1.022   2.284   2.124
  953HOH      O 3045   1.822   1.879   3.741
  953HOH     H1 3046   1.875   1.919   3.673
  953HOH     H2 3047   1.764   1.818   3.694
  954HOH      O 3048   3.339   2.161   0.279
  954HOH     H1 3049   3.246   2.180   0.290
  954HOH     H2 3050   3.346   2.125   0.191
  955HOH      O 3051   0.781   3.366   0.636
  955HOH     H1 3052   0.847   3.435   0.628
  955HOH     H2 3053   0.806   3.318   0.714
  956HOH      O 3054   1.221   3.501   2.663
  956HOH     H1 3055   1.242   3.581   2.712
  956HOH     H2 3056   1.297   3.445   2.674
  957HOH      O 3057   2.667   0.722   2.898
  957HOH     H1 3058   2.585   0.673   2.900
  957HOH     H2 3059   2.704   0.702   2.812
  958HOH      O 3060   3.650   3.173   1.668
  958HOH     H1 3061   3.565   3.187   1.627
  958HOH     H2 3062   3.681   3.090   1.630
  959HOH      O 3063   3.161   3.853   0.734
  959HOH     H1 3064   3.182   3.869   0.826
  959HOH     H2 3065   3.183   3.761   0.720
  960HOH      O 3066   1.114   3.730   2.050
  960HOH     H1 3067   1.038   3.698   2.099
  960HOH     H2 3068   1.177   3.659   2.054
  961HOH      O 3069   2.943   3.375   0.056
  961HOH     H1 3070   2.932   3.303  -0.007
  961HOH     H2 3071   3.037   3.382   0.068
  962HOH      O 3072   4.015   3.888   2.672
  962HOH     H1 3073   4.013   3.876   2.767
  962HOH     H2 3074   3.989   3.979   2.658
  963HOH      O 3075   2.994   2.067   0.115
  963HOH     H1 3076   3.039   2.138   0.162
  963HOH     H2 3077   3.058   1.996   0.113
  964HOH      O 3078   0.679   0.684   1.244
  964HOH     H1 3079   0.737   0.634   1.302
  964HOH     H2 3080   0.670   0.629   1.166
  965HOH      O 3081   3.895   3.721   0.645
  965HOH     H1 3082   3.953   3.784   0.603
  965HOH     H2 3083   3.943   3.692   0.723
  966HOH      O 3084   1.885   3.662   2.372
  966HOH     H1 3085   1.790   3.652   2.381
  966HOH     H2 3086   1.918   3.666   2.462
  967HOH      O 3087   2.684   0.832   0.922
  967HOH     H1 3088   2.661   0.913   0.877
  967HOH     H2 3089   2.608   0.814   0.978
  968HOH      O 3090   3.021   1.811   0.668
  968HOH     H1 3091   3.038   1.859   0.587
  968HOH     H2 3092   3.104   1.769   0.689
  969HOH      O 3093   1.125   0.507   0.848
  969HOH     H1 3094   1.210   0.488   0.808
  969HOH     H2 3095   1.066   0.521   0.774
  970HOH      O 3096   1.113   1.815   1.304
  970HOH     H1 3097   1.047   1.755   1.268
  970HOH     H2 3098   1.182   1.758   1.337
  971HOH      O 3099   0.890   0.543   0.688
  971HOH     H1 3100   0.913   0.580   0.603
  971HOH     H2 3101   0.834   0.609   0.729
  972HOH      O 3102   3.410   2.474   2.554
  972HOH     H1 3103   3.367   2.396   2.589
  972HOH     H2 3104   3.354   2.546   2.583
  973HOH      O 3105   2.197   3.764   0.186
  973HOH     H1 3106   2.144   3.754   0.107
  973HOH     H2 3107   2.228   3.855   0.182
  974HOH      O 3108   0.740   1.499   0.711
  974HOH     H1 3109   0.745   1.419   0.763
  974HOH     H2 3110   0.831   1.526   0.699
  975HOH      O 3111   2.137   3.025   3.032
  975HOH     H1 3112   2.101   3.109   3.002
  975HOH     H2 3113   2.113   3.021   3.125
  976HOH      O 3114   1.542   2.670   1.533
  976HOH     H1 3115   1.500   2.709   1.456
  976HOH     H2 3116   1.558   2.744   1.592
  977HOH      O 3117   0.479   0.676   3.580
  977HOH     H1 3118   0.462   0.770   3.578
  977HOH     H2 3119   0.534   0.660   3.503
  978HOH      O 3120   2.485   3.673   2.309
  978HOH     H1 3121   2.419   3.700   2.372
  978HOH     H2 3122   2.568   3.697   2.351
  979HOH      O 3123   3.984   1.504   2.587
  979HOH     H1 3124   4.011   1.418   2.618
  979HOH     H2 3125   3.906   1.525   2.637
  980HOH      O 3126   0.046   0.372   2.009
  980HOH     H1 3127  -0.041   0.408   1.991
  980HOH     H2 3128   0.102   0.408   1.941
  981HOH      O 3129   1.189   1.370   3.999
  981HOH     H1 3130   1.194   1.275   3.996
  981HOH     H2 3131   1.097   1.390   3.983
  982HOH      O 3132   1.827   1.809   1.291
  982HOH     H1 3133   1.787   1.885   1.334
  982HOH     H2 3134   1.759   1.777   1.232
  983HOH      O 3135   2.466   0.832   3.649
  983HOH     H1 3136   2.485   0.802   3.560
  983HOH     H2 3137   2.459   0.753   3.701
  984HOH      O 3138   0.710   2.107   4.040
  984HOH     H1 3139   0.661   2.148   3.969
  984HOH     H2 3140   0.662   2.027   4.061
  985HOH      O 3141   3.381   1.375   3.894
  985HOH     H1 3142   3.377   1.466   3.865
  985HOH     H2 3143   3.404   1.380   3.987
  986HOH      O 3144   2.523   1.224   2.583
  986HOH     H1 3145   2.510   1.167   2.507
  986HOH     H2 3146   2.523   1.165   2.658
  987HOH      O 3147   1.660   3.451   3.944
  987HOH     H1 3148   1.729   3.415   4.000
  987HOH     H2 3149   1.692   3.538   3.920
  988HOH      O 3150   3.855   2.917   2.333
  988HOH     H1 3151   3.765   2.935   2.306
  988HOH     H2 3152   3.846   2.866   2.413
  989HOH      O 3153   1.513   3.696   1.733
  989HOH     H1 3154   1.533   3.757   1.803
  989HOH     H2 3155   1.424   3.718   1.706
  990HOH      O 3156   0.938   0.595   0.427
  990HOH     H1 3157   0.987   0.678   0.426
  990HOH     H2 3158   0.941   0.565   0.337
  991HOH      O 3159   0.123   2.918   1.698
  991HOH     H1 3160   0.055   2.967   1.653
  991HOH     H2 3161   0.187   2.897   1.630
  992HOH      O 3162   3.831   2.775   0.526
  992HOH     H1 3163   3.896   2.839   0.554
  992HOH     H2 3164   3.881   2.696   0.506
  993HOH      O 3165   2.952   3.766   3.097
  993HOH     H1 3166   2.920   3.839   3.045
  993HOH     H2 3167   2.904   3.690   3.064
  994HOH      O 3168   0.693   2.969   1.210
  994HOH     H1 3169   0.684   3.014   1.293
  994HOH     H2 3170   0.757   3.022   1.161
  995HOH      O 3171   3.183   1.752   2.422
  995HOH     H1 3172   3.143   1.804   2.493
  995HOH     H2 3173   3.113   1.693   2.394
  996HOH      O 3174   3.324   1.531   1.098
  996HOH     H1 3175   3.417   1.534   1.074
  996HOH     H2 3176   3.279   1.513   1.016
  997HOH      O 3177   2.191   1.721   1.738
  997HOH     H1 3178   2.214   1.693   1.826
  997HOH     H2 3179   2.250   1.672   1.681
  998HOH      O 3180   3.546   0.790   0.143
  998HOH     H1 3181   3.574   0.710   0.098
  998HOH     H2 3182   3.628   0.834   0.167
  999HOH      O 3183   0.499   3.702   2.293
  999HOH     H1 3184   0.530   3.615   2.267
  999HOH     H2 3185   0.579   3.754   2.300
 1000HOH      O 3186   0.333  -0.010   1.198
 1000HOH     H1 3187   0.362   0.027   1.114
 1000HOH     H2 3188   0.238  -0.015   1.191
 1001HOH      O 3189   1.461   3.215   1.989
 1001HOH     H1 3190   1.530   3.162   2.030
 1001HOH     H2 3191   1.465   3.299   2.034
 1002HOH      O 3192   2.345   1.028   3.827
 1002HOH     H1 3193   2.418   1.071   3.872
 1002HOH     H2 3194   2.381   0.945   3.797
 1003HOH      O 3195   2.045   1.411   0.552
 1003HOH     H1 3196   2.045   1.413   0.457
 1003HOH     H2 3197   2.015   1.323   0.575
 1004HOH      O 3198   0.184   0.705   3.166
 1004HOH     H1 3199   0.201   0.627   3.112
 1004HOH     H2 3200   0.267   0.752   3.167
 1005HOH      O 3201   3.162   1.275   0.466
 1005HOH     H1 3202   3.097   1.236   0.408
 1005HOH     H2 3203   3.221   1.203   0.489
 1006HOH      O 3204   0.817   1.966   1.174
 1006HOH     H1 3205   0.830   2.057   1.201
 1006HOH     H2 3206   0.896   1.943   1.125
 1007HOH      O 3207   2.803   1.731   3.984
 1007HOH     H1 3208   2.770   1.727   4.074
 1007HOH     H2 3209   2.725   1.718   3.930
 1008HOH      O 3210   2.793   3.951   3.548
 1008HOH     H1 3211   2.716   3.894   3.549
 1008HOH     H2 3212   2.821   3.956   3.639
 1009HOH      O 3213   2.055   0.176   0.529
 1009HOH     H1 3214   1.978   0.232   0.519
 1009HOH     H2 3215   2.124   0.220   0.479
 1010HOH      O 3216   3.063   1.357   1.943
 1010HOH     H1 3217   3.100   1.307   2.016
 1010HOH     H2 3218   2.982   1.393   1.978
 1011HOH      O 3219   2.679   3.457   4.005
 1011HOH     H1 3220   2.764   3.443   4.048
 1011HOH     H2 3221   2.697   3.528   3.942
 1012HOH      O 3222   2.144   0.203   1.882
 1012HOH     H1 3223   2.178   0.287   1.853
 1012HOH     H2 3224   2.212   0.140   1.858
 1013HOH      O 3225   2.813   3.165   3.341
 1013HOH     H1 3226   2.762   3.242   3.313
 1013HOH     H2 3227   2.857   3.136   3.261
 1014HOH      O 3228   1.968   3.709   3.363
 1014HOH     H1 3229   1.903   3.747   3.305
 1014HOH     H2 3230   1.931   3.719   3.451
 1015HOH      O 3231   2.149   2.094   1.566
 1015HOH     H1 3232   2.107   2.105   1.481
 1015HOH     H2 3233   2.189   2.179   1.585
 1016HOH      O 3234   0.666   2.795   3.810
 1016HOH     H1 3235   0.621   2.797   3.725
 1016HOH     H2 3236   0.726   2.870   3.806
 1017HOH      O 3237   0.144   1.125   2.878
 1017HOH     H1 3238   0.226   1.080   2.897
 1017HOH     H2 3239   0.133   1.185   2.953
 1018HOH      O 3240   2.075   0.009   1.531
 1018HOH     H1 3241   2.135   0.030   1.459
 1018HOH     H2 3242   2.018   0.085   1.538
 1019HOH      O 3243   3.605   3.968   0.040
 1019HOH     H1 3244   3.612   3.956   0.135
 1019HOH     H2 3245   3.512   3.955   0.020
 1020HOH      O 3246   0.126   2.828   2.936
 1020HOH     H1 3247   0.170   2.850   3.019
 1020HOH     H2 3248   0.147   2.901   2.878
 1021HOH      O 3249   1.754   4.037   1.094
 1021HOH     H1 3250   1.768   3.994   1.178
 1021HOH     H2 3251   1.659   4.041   1.084
 1022HOH      O 3252   0.860   3.140   0.455
 1022HOH     H1 3253   0.924   3.072   0.476
 1022HOH     H2 3254   0.882   3.213   0.512
 1023HOH      O 3255   0.702   0.742   0.755
 1023HOH     H1 3256   0.696   0.797   0.677
 1023HOH     H2 3257   0.654   0.790   0.822
 1024HOH      O 3258   0.820   0.328   1.167
 1024HOH     H1 3259   0.727   0.332   1.191
 1024HOH     H2 3260   0.860   0.404   1.209
 1025HOH      O 3261   3.032   1.150   0.971
 1025HOH     H1 3262   3.097   1.123   0.907
 1025HOH     H2 3263   3.083   1.180   1.047
 1026HOH      O 3264   1.262   3.458   1.069
 1026HOH     H1 3265   1.240   3.449   0.976
 1026HOH     H2 3266   1.352   3.490   1.070
 1027HOH      O 3267   2.739   3.757   2.427
 1027HOH     H1 3268   2.786   3.687   2.470
 1027HOH     H2 3269   2.777   3.838   2.462
 1028HOH      O 3270   0.723   1.220   2.385
 1028HOH     H1 3271   0.722   1.124   2.380
 1028HOH     H2 3272   0.695   1.249   2.298
 1029HOH      O 3273   2.725   1.365   0.299
 1029HOH     H1 3274   2.759   1.445   0.338
 1029HOH     H2 3275   2.759   1.365   0.210
 1030HOH      O 3276   3.962   0.160   2.597
 1030HOH     H1 3277   3.870   0.137   2.612
 1030HOH     H2 3278   3.976   0.237   2.652
 1031HOH      O 3279   0.167   1.488   0.408
 1031HOH     H1 3280   0.105   1.429   0.451
 1031HOH     H2 3281   0.119   1.570   0.398
 1032HOH      O 3282   3.172   1.922   3.745
 1032HOH     H1 3283   3.117   1.995   3.714
 1032HOH     H2 3284   3.161   1.922   3.840
 1033HOH      O 3285   3.157   0.388   2.904
 1033HOH     H1 3286   3.148   0.308   2.955
 1033HOH     H2 3287   3.084   0.443   2.932
 1034HOH      O 3288   1.987   2.284   1.041
 1034HOH     H1 3289   2.030   2.199   1.044
 1034HOH     H2 3290   1.960   2.295   0.950
 1035HOH      O 3291   3.568   1.925   2.725
 1035HOH     H1 3292   3.553   1.890   2.637
 1035HOH     H2 3293   3.591   2.017   2.709
 1036HOH      O 3294   2.897   0.419   3.661
 1036HOH     H1 3295   2.809   0.454   3.651
 1036HOH     H2 3296   2.954   0.496   3.658
 1037HOH      O 3297   2.496   0.794   1.108
 1037HOH     H1 3298   2.442   0.733   1.057
 1037HOH     H2 3299   2.434   0.837   1.167
 1038HOH      O 3300   2.306   2.873   0.642
 1038HOH     H1 3301   2.288   2.821   0.563
 1038HOH     H2 3302   2.277   2.961   0.620
 1039HOH      O 3303   1.162   2.124   1.394
 1039HOH     H1 3304   1.076   2.115   1.354
 1039HOH     H2 3305   1.187   2.215   1.378
 1040HOH      O 3306   3.768   1.144   3.666
 1040HOH     H1 3307   3.754   1.082   3.595
 1040HOH     H2 3308   3.681   1.156   3.705
 1041HOH      O 3309   2.406   2.419   0.047
 1041HOH     H1 3310   2.326   2.367   0.035
 1041HOH     H2 3311   2.477   2.355   0.049
 1042HOH      O 3312   3.296   0.209   3.123
 1042HOH     H1 3313   3.309   0.135   3.183
 1042HOH     H2 3314   3.320   0.286   3.175
 1043HOH      O 3315   2.296   3.449   1.605
 1043HOH     H1 3316   2.244   3.525   1.630
 1043HOH     H2 3317   2.295   3.393   1.682
 1044HOH      O 3318   2.655   3.924   0.366
 1044HOH     H1 3319   2.727   3.984   0.386
 1044HOH     H2 3320   2.624   3.894   0.451
 1045HOH      O 3321   3.538   3.238   2.386
 1045HOH     H1 3322   3.445   3.255   2.401
 1045HOH     H2 3323   3.582   3.283   2.458
 1046HOH      O 3324   0.266   0.028   0.557
 1046HOH     H1 3325   0.323   0.030   0.634
 1046HOH     H2 3326   0.326   0.033   0.482
 1047HOH      O 3327   0.308   0.064   0.935
 1047HOH     H1 3328   0.232   0.024   0.892
 1047HOH     H2 3329   0.378   0.058   0.870
 1048HOH      O 3330   3.609   1.979   1.731
 1048HOH     H1 3331   3.637   1.930   1.653
 1048HOH     H2 3332   3.572   1.912   1.788
 1049HOH      O 3333   2.568   2.415   1.133
 1049HOH     H1 3334   2.550   2.504   1.163
 1049HOH     H2 3335   2.488   2.366   1.154
 1050HOH      O 3336   2.931   0.803   2.457
 1050HOH     H1 3337   3.026   0.816   2.458
 1050HOH     H2 3338   2.912   0.773   2.368
 1051HOH      O 3339   1.866   2.328   1.700
 1051HOH     H1 3340   1.817   2.261   1.748
 1051HOH     H2 3341   1.955   2.322   1.735
 1052HOH      O 3342   0.212   3.033   3.350
 1052HOH     H1 3343   0.296   3.062   3.315
 1052HOH     H2 3344   0.221   3.042   3.445
 1053HOH      O 3345   0.278   2.355   0.475
 1053HOH     H1 3346   0.341   2.284   0.465
 1053HOH     H2 3347   0.316   2.429   0.428
 1054HOH      O 3348   0.640   2.960   0.337
 1054HOH     H1 3349   0.677   2.896   0.398
 1054HOH     H2 3350   0.625   3.038   0.391
 1055HOH      O 3351   3.609   1.293   2.022
 1055HOH     H1 3352   3.585   1.367   1.966
 1055HOH     H2 3353   3.543   1.293   2.091
 1056HOH      O 3354   3.765   2.014   3.153
 1056HOH     H1 3355   3.672   2.004   3.170
 1056HOH     H2 3356   3.772   2.095   3.102
 1057HOH      O 3357   3.191   0.673   2.315
 1057HOH     H1 3358   3.214   0.581   2.327
 1057HOH     H2 3359   3.152   0.676   2.227
 1058HOH      O 3360   1.177   2.108   0.056
 1058HOH     H1 3361   1.091   2.136   0.023
 1058HOH     H2 3362   1.239   2.165   0.010
 1059HOH      O 3363   0.204   1.767   2.101
 1059HOH     H1 3364   0.140   1.760   2.173
 1059HOH     H2 3365   0.153   1.750   2.022
 1060HOH      O 3366   1.841   1.220   3.971
 1060HOH     H1 3367   1.826   1.157   3.900
 1060HOH     H2 3368   1.761   1.217   4.024
 1061HOH      O 3369   3.135   3.113   0.642
 1061HOH     H1 3370   3.158   3.126   0.550
 1061HOH     H2 3371   3.137   3.018   0.654
 1062HOH      O 3372   2.017   1.703   3.850
 1062HOH     H1 3373   2.055   1.751   3.924
 1062HOH     H2 3374   1.936   1.749   3.830
 1063HOH      O 3375   0.444   0.901   2.669
 1063HOH     H1 3376   0.444   0.943   2.755
 1063HOH     H2 3377   0.395   0.961   2.613
 1064HOH      O 3378   2.656   3.037   1.216
 1064HOH     H1 3379   2.576   3.072   1.257
 1064HOH     H2 3380   2.656   3.075   1.128
 1065HOH      O 3381   0.064   1.088   1.938
 1065HOH     H1 3382   0.086   1.003   1.901
 1065HOH     H2 3383   0.043   1.069   2.030
 1066HOH      O 3384   0.669   2.494   2.684
 1066HOH     H1 3385   0.676   2.584   2.652
 1066HOH     H2 3386   0.750   2.453   2.655
 1067HOH      O 3387   1.464   2.976   0.286
 1067HOH     H1 3388   1.521   3.007   0.216
 1067HOH     H2 3389   1.495   2.888   0.306
 1068HOH      O 3390   1.663   2.742   1.061
 1068HOH     H1 3391   1.700   2.700   1.139
 1068HOH     H2 3392   1.720   2.818   1.046
 1069HOH      O 3393   1.165   1.086   3.888
 1069HOH     H1 3394   1.217   1.085   3.807
 1069HOH     H2 3395   1.229   1.071   3.957
 1070HOH      O 3396   3.138  -0.002   2.965
 1070HOH     H1 3397   3.177   0.076   3.005
 1070HOH     H2 3398   3.044   0.010   2.975
 1071HOH      O 3399   1.410   0.995   1.393
 1071HOH     H1 3400   1.387   0.947   1.313
 1071HOH     H2 3401   1.333   1.049   1.411
 1072HOH      O 3402   3.444   0.179   0.355
 1072HOH     H1 3403   3.515   0.228   0.397
 1072HOH     H2 3404   3.382   0.247   0.326
 1073HOH      O 3405   2.363   3.781   3.139
 1073HOH     H1 3406   2.315   3.805   3.218
 1073HOH     H2 3407   2.396   3.864   3.105
 1074HOH      O 3408   1.429   0.517   2.001
 1074HOH     H1 3409   1.402   0.593   2.052
 1074HOH     H2 3410   1.385   0.527   1.917
 1075HOH      O 3411   2.734   3.063   1.917
 1075HOH     H1 3412   2.820   3.032   1.946
 1075HOH     H2 3413   2.672   3.017   1.974
 1076HOH      O 3414   0.369   2.287   3.792
 1076HOH     H1 3415   0.342   2.287   3.884
 1076HOH     H2 3416   0.359   2.378   3.765
 1077HOH      O 3417   0.318   1.381   2.478
 1077HOH     H1 3418   0.223   1.391   2.467
 1077HOH     H2 3419   0.353   1.465   2.448
 1078HOH      O 3420   2.109   3.991   3.568
 1078HOH     H1 3421   2.101   3.927   3.639
 1078HOH     H2 3422   2.020   4.003   3.536
 1079HOH      O 3423   3.244   0.404   0.284
 1079HOH     H1 3424   3.215   0.365   0.367
 1079HOH     H2 3425   3.168   0.398   0.227
 1080HOH      O 3426   2.935   0.697   0.819
 1080HOH     H1 3427   2.873   0.636   0.858
 1080HOH     H2 3428   2.882   0.772   0.794
 1081HOH      O 3429   2.593   1.273   0.560
 1081HOH     H1 3430   2.616   1.308   0.473
 1081HOH     H2 3431   2.515   1.323   0.585
 1082HOH      O 3432   3.600   1.189   2.475
 1082HOH     H1 3433   3.542   1.229   2.540
 1082HOH     H2 3434   3.554   1.201   2.392
 1083HOH      O 3435   3.056   3.871   2.411
 1083HOH     H1 3436   3.136   3.818   2.417
 1083HOH     H2 3437   3.013   3.859   2.496
 1084HOH      O 3438   0.746   1.234   2.725
 1084HOH     H1 3439   0.751   1.143   2.695
 1084HOH     H2 3440   0.652   1.255   2.722
 1085HOH      O 3441   3.381   2.954   2.576
 1085HOH     H1 3442   3.329   3.006   2.515
 1085HOH     H2 3443   3.353   2.864   2.560
 1086HOH      O 3444   3.038   2.652   3.793
 1086HOH     H1 3445   3.085   2.572   3.817
 1086HOH     H2 3446   2.967   2.657   3.856
 1087HOH      O 3447   2.368   3.504   2.119
 1087HOH     H1 3448   2.277   3.529   2.103
 1087HOH     H2 3449   2.402   3.571   2.179
 1088HOH      O 3450   2.996   2.677   1.978
 1088HOH     H1 3451   3.054   2.619   1.928
 1088HOH     H2 3452   2.942   2.719   1.912
 1089HOH      O 3453   1.052   1.215   1.109
 1089HOH     H1 3454   1.011   1.265   1.039
 1089HOH     H2 3455   1.118   1.274   1.145
 1090HOH      O 3456   2.899   2.812   2.820
 1090HOH     H1 3457   2.955   2.784   2.748
 1090HOH     H2 3458   2.855   2.731   2.849
 1091HOH      O 3459   0.347   1.719   0.165
 1091HOH     H1 3460   0.392   1.646   0.208
 1091HOH     H2 3461   0.307   1.767   0.237
 1092HOH      O 3462   0.473   1.423   0.025
 1092HOH     H1 3463   0.509   1.447   0.110
 1092HOH     H2 3464   0.393   1.375   0.045
 1093HOH      O 3465   3.221   2.700   1.577
 1093HOH     H1 3466   3.215   2.783   1.624
 1093HOH     H2 3467   3.211   2.634   1.646
 1094HOH      O 3468   2.294   1.058   1.216
 1094HOH     H1 3469   2.292   1.120   1.144
 1094HOH     H2 3470   2.370   1.084   1.268
 1095HOH      O 3471   0.927   2.901   1.015
 1095HOH     H1 3472   0.990   2.888   0.944
 1095HOH     H2 3473   0.932   2.994   1.035
 1096HOH      O 3474   2.367   0.366   3.406
 1096HOH     H1 3475   2.303   0.312   3.359
 1096HOH     H2 3476   2.333   0.372   3.495
 1097HOH      O 3477   1.673   0.960   1.513
 1097HOH     H1 3478   1.741   0.897   1.487
 1097HOH     H2 3479   1.606   0.951   1.446
 1098HOH      O 3480   3.360   0.140   3.659
 1098HOH     H1 3481   3.340   0.232   3.670
 1098HOH     H2 3482   3.275   0.096   3.665
 1099HOH      O 3483   2.929   1.901   2.245
 1099HOH     H1 3484   3.004   1.867   2.195
 1099HOH     H2 3485   2.865   1.925   2.178
 1100HOH      O 3486   3.508   2.224   1.816
 1100HOH     H1 3487   3.529   2.143   1.769
 1100HOH     H2 3488   3.593   2.259   1.842
 1101HOH      O 3489   1.436   1.847   2.360
 1101HOH     H1 3490   1.369   1.863   2.294
 1101HOH     H2 3491   1.391   1.798   2.429
 1102HOH      O 3492   3.813   0.984   0.990
 1102HOH     H1 3493   3.718   0.978   0.979
 1102HOH     H2 3494   3.833   1.076   0.975
 1103HOH      O 3495   3.357   2.970   3.486
 1103HOH     H1 3496   3.288   2.922   3.532
 1103HOH     H2 3497   3.316   3.052   3.461
 1104HOH      O 3498   2.426   0.053   1.136
 1104HOH     H1 3499   2.514   0.081   1.110
 1104HOH     H2 3500   2.376   0.053   1.054
 1105HOH      O 3501   1.465   3.817   0.251
 1105HOH     H1 3502   1.551   3.818   0.210
 1105HOH     H2 3503   1.404   3.831   0.178
 1106HOH      O 3504   2.251   3.524   3.588
 1106HOH     H1 3505   2.298   3.567   3.516
 1106HOH     H2 3506   2.306   3.541   3.665
 1107HOH      O 3507   0.645   3.434   1.468
 1107HOH     H1 3508   0.669   3.425   1.561
 1107HOH     H2 3509   0.694   3.510   1.438
 1108HOH      O 3510   0.565   2.559   1.300
 1108HOH     H1 3511   0.633   2.626   1.315
 1108HOH     H2 3512   0.527   2.545   1.386
 1109HOH      O 3513   2.921   1.280   2.494
 1109HOH     H1 3514   2.880   1.194   2.497
 1109HOH     H2 3515   2.853   1.340   2.522
 1110HOH      O 3516   2.007   2.316   3.624
 1110HOH     H1 3517   2.096   2.322   3.590
 1110HOH     H2 3518   1.952   2.354   3.555
 1111HOH      O 3519   0.597   0.524   1.568
 1111HOH     H1 3520   0.647   0.600   1.539
 1111HOH     H2 3521   0.628   0.508   1.657
 1112HOH      O 3522   2.290   0.689   0.909
 1112HOH     H1 3523   2.261   0.718   0.995
 1112HOH     H2 3524   2.289   0.769   0.855
 1113HOH      O 3525   0.704   3.318   1.188
 1113HOH     H1 3526   0.746   3.404   1.180
 1113HOH     H2 3527   0.624   3.325   1.135
 1114HOH      O 3528   2.199   1.849   2.796
 1114HOH     H1 3529   2.157   1.880   2.716
 1114HOH     H2 3530   2.195   1.923   2.856
 1115HOH      O 3531   2.880   3.932   3.826
 1115HOH     H1 3532   2.920   3.935   3.913
 1115HOH     H2 3533   2.861   3.839   3.812
 1116HOH      O 3534   0.150   1.092   3.936
 1116HOH     H1 3535   0.099   1.134   3.867
 1116HOH     H2 3536   0.217   1.043   3.890
 1117HOH      O 3537   2.602   1.077   1.700
 1117HOH     H1 3538   2.649   1.152   1.736
 1117HOH     H2 3539   2.641   1.001   1.743
 1118HOH      O 3540   2.005   0.780   1.072
 1118HOH     H1 3541   2.019   0.755   0.981
 1118HOH     H2 3542   1.920   0.741   1.095
 1119HOH      O 3543   2.798   1.101   1.422
 1119HOH     H1 3544   2.839   1.048   1.353
 1119HOH     H2 3545   2.782   1.039   1.494
 1120HOH      O 3546   1.200   1.662   0.289
 1120HOH     H1 3547   1.202   1.731   0.222
 1120HOH     H2 3548   1.212   1.581   0.240
 1121HOH      O 3549   3.312   0.864   2.106
 1121HOH     H1 3550   3.237   0.805   2.110
 1121HOH     H2 3551   3.339   0.863   2.015
 1122HOH      O 3552   1.306   3.692   0.445
 1122HOH     H1 3553   1.246   3.656   0.379
 1122HOH     H2 3554   1.369   3.743   0.395
 1123HOH      O 3555   3.106   3.526   3.572
 1123HOH     H1 3556   3.065   3.440   3.559
 1123HOH     H2 3557   3.036   3.588   3.556
 1124HOH      O 3558   0.876   1.823   2.432
 1124HOH     H1 3559   0.817   1.749   2.448
 1124HOH     H2 3560   0.920   1.837   2.516
 1125HOH      O 3561   2.407   1.758   2.496
 1125HOH     H1 3562   2.314   1.758   2.474
 1125HOH     H2 3563   2.410   1.726   2.586
 1126HOH      O 3564   3.820   1.773   2.070
 1126HOH     H1 3565   3.881   1.834   2.112
 1126HOH     H2 3566   3.863   1.749   1.988
 1127HOH      O 3567   2.913   2.275   1.591
 1127HOH     H1 3568   2.925   2.256   1.684
 1127HOH     H2 3569   2.935   2.193   1.547
 1128HOH      O 3570   3.352   1.763   1.614
 1128HOH     H1 3571   3.353   1.687   1.673
 1128HOH     H2 3572   3.441   1.765   1.577
 1129HOH      O 3573   3.040   0.074   0.699
 1129HOH     H1 3574   3.089   0.130   0.759
 1129HOH     H2 3575   3.082  -0.011   0.705
 1130HOH      O 3576   1.466   2.538   0.070
 1130HOH     H1 3577   1.511   2.605   0.019
 1130HOH     H2 3578   1.458   2.576   0.158
 1131HOH      O 3579   3.116   3.093   0.112
 1131HOH     H1 3580   3.152   3.004   0.109
 1131HOH     H2 3581   3.078   3.106   0.025
 1132HOH      O 3582   2.657   0.066   1.398
 1132HOH     H1 3583   2.742   0.047   1.358
 1132HOH     H2 3584   2.601  -0.006   1.371
 1133HOH      O 3585   3.061   2.753   1.369
 1133HOH     H1 3586   3.126   2.741   1.438
 1133HOH     H2 3587   2.978   2.731   1.411
 1134HOH      O 3588   2.653   0.993   2.720
 1134HOH     H1 3589   2.569   0.950   2.701
 1134HOH     H2 3590   2.690   0.943   2.792
 1135HOH      O 3591   0.626   2.456   3.909
 1135HOH     H1 3592   0.676   2.501   3.841
 1135HOH     H2 3593   0.677   2.376   3.927
 1136HOH      O 3594   0.803   0.619   2.962
 1136HOH     H1 3595   0.780   0.712   2.953
 1136HOH     H2 3596   0.873   0.605   2.899
 1137HOH      O 3597   3.708   0.568   2.045
 1137HOH     H1 3598   3.688   0.596   2.134
 1137HOH     H2 3599   3.693   0.646   1.991
 1138HOH      O 3600   0.957   2.442   3.078
 1138HOH     H1 3601   0.931   2.425   3.168
 1138HOH     H2 3602   1.042   2.398   3.069
 1139HOH      O 3603   1.644   3.514   1.285
 1139HOH     H1 3604   1.722   3.543   1.236
 1139HOH     H2 3605   1.664   3.536   1.376
 1140HOH      O 3606   1.076   3.622   3.782
 1140HOH     H1 3607   1.073   3.705   3.831
 1140HOH     H2 3608   1.103   3.648   3.694
 1141HOH      O 3609   3.194   1.452   3.209
 1141HOH     H1 3610   3.179   1.469   3.116
 1141HOH     H2 3611   3.113   1.478   3.252
 1142HOH      O 3612   3.390   3.847   2.266
 1142HOH     H1 3613   3.333   3.790   2.318
 1142HOH     H2 3614   3.460   3.790   2.236
 1143HOH      O 3615   0.894   3.589   1.642
 1143HOH     H1 3616   0.954   3.533   1.690
 1143HOH     H2 3617   0.810   3.578   1.686
 1144HOH      O 3618   3.680   3.312   0.818
 1144HOH     H1 3619   3.730   3.344   0.743
 1144HOH     H2 3620   3.591   3.299   0.784
 1145HOH      O 3621   0.236   3.481   1.103
 1145HOH     H1 3622   0.325   3.461   1.132
 1145HOH     H2 3623   0.206   3.548   1.164
 1146HOH      O 3624   1.519   2.334   1.319
 1146HOH     H1 3625   1.594   2.343   1.261
 1146HOH     H2 3626   1.548   2.270   1.385
 1147HOH      O 3627   3.496   0.649   1.677
 1147HOH     H1 3628   3.569   0.651   1.738
 1147HOH     H2 3629   3.523   0.705   1.604
 1148HOH      O 3630   1.473   2.192   3.994
 1148HOH     H1 3631   1.545   2.140   3.957
 1148HOH     H2 3632   1.509   2.227   4.075
 1149HOH      O 3633   0.313   0.082   1.965
 1149HOH     H1 3634   0.313   0.173   1.937
 1149HOH     H2 3635   0.342   0.085   2.057
 1150HOH      O 3636   0.084   1.481   2.002
 1150HOH     H1 3637   0.108   1.413   2.064
 1150HOH     H2 3638   0.020   1.534   2.048
 1151HOH      O 3639   0.738   3.041   0.754
 1151HOH     H1 3640   0.770   3.002   0.672
 1151HOH     H2 3641   0.816   3.082   0.792
 1152HOH      O 3642   1.973   1.604   2.911
 1152HOH     H1 3643   1.889   1.601   2.866
 1152HOH     H2 3644   2.017   1.681   2.875
 1153HOH      O 3645   0.011   0.431   1.326
 1153HOH     H1 3646   0.006   0.523   1.350
 1153HOH     H2 3647  -0.000   0.430   1.231
 1154HOH      O 3648   3.357   1.092   0.520
 1154HOH     H1 3649   3.449   1.115   0.535
 1154HOH     H2 3650   3.361   1.021   0.457
 1155HOH      O 3651   0.971   0.985   1.248
 1155HOH     H1 3652   0.989   1.069   1.206
 1155HOH     H2 3653   0.877   0.972   1.236
 1156HOH      O 3654   2.486   3.692   1.219
 1156HOH     H1 3655   2.569   3.648   1.236
 1156HOH     H2 3656   2.500   3.741   1.138
 1157HOH      O 3657   3.259   2.409   1.175
 1157HOH     H1 3658   3.241   2.321   1.141
 1157HOH     H2 3659   3.249   2.401   1.269
 1158HOH      O 3660   2.134   0.954   0.822
 1158HOH     H1 3661   2.210   1.010   0.834
 1158HOH     H2 3662   2.060   1.004   0.856
 1159HOH      O 3663   2.892   0.562   1.964
 1159HOH     H1 3664   2.803   0.560   1.927
 1159HOH     H2 3665   2.911   0.471   1.986
 1160HOH      O 3666  -0.004   3.303   0.462
 1160HOH     H1 3667   0.054   3.318   0.536
 1160HOH     H2 3668   0.039   3.346   0.388
 1161HOH      O 3669   1.315   1.539   1.104
 1161HOH     H1 3670   1.391   1.525   1.161
 1161HOH     H2 3671   1.258   1.464   1.122
 1162HOH      O 3672   3.572   1.559   1.017
 1162HOH     H1 3673   3.621   1.592   1.092
 1162HOH     H2 3674   3.612   1.602   0.941
 1163HOH      O 3675   2.636   3.327   2.807
 1163HOH     H1 3676   2.663   3.417   2.790
 1163HOH     H2 3677   2.585   3.333   2.888
 1164HOH      O 3678   2.041   0.478   2.313
 1164HOH     H1 3679   1.972   0.521   2.262
 1164HOH     H2 3680   2.002   0.395   2.338
 1165HOH      O 3681   0.085   0.754   0.034
 1165HOH     H1 3682   0.068   0.665   0.004
 1165HOH     H2 3683  -0.001   0.795   0.037
 1166HOH      O 3684   1.301   1.339   3.670
 1166HOH     H1 3685   1.340   1.253   3.686
 1166HOH     H2 3686   1.211   1.319   3.643
 1167HOH      O 3687   2.368   1.368   0.701
 1167HOH     H1 3688   2.306   1.426   0.657
 1167HOH     H2 3689   2.408   1.422   0.769
 1168HOH      O 3690   1.412   3.765   1.325
 1168HOH     H1 3691   1.430   3.676   1.358
 1168HOH     H2 3692   1.394   3.816   1.404
 1169HOH      O 3693   3.786   1.172   3.330
 1169HOH     H1 3694   3.797   1.175   3.235
 1169HOH     H2 3695   3.852   1.109   3.360
 1170HOH      O 3696   1.735   1.801   1.861
 1170HOH     H1 3697   1.668   1.869   1.866
 1170HOH     H2 3698   1.688   1.721   1.885
 1171HOH      O 3699   1.194   1.043   3.209
 1171HOH     H1 3700   1.280   1.012   3.238
 1171HOH     H2 3701   1.137   1.031   3.285
 1172HOH      O 3702   2.699   1.403   3.290
 1172HOH     H1 3703   2.610   1.414   3.257
 1172HOH     H2 3704   2.730   1.324   3.247
 1173HOH      O 3705   2.546   2.889   1.749
 1173HOH     H1 3706   2.619   2.947   1.770
 1173HOH     H2 3707   2.470   2.948   1.741
 1174HOH      O 3708   3.052   3.267   3.483
 1174HOH     H1 3709   2.984   3.239   3.421
 1174HOH     H2 3710   3.133   3.264   3.433
 1175HOH      O 3711   2.983   0.207   3.131
 1175HOH     H1 3712   3.033   0.278   3.170
 1175HOH     H2 3713   2.896   0.214   3.170
 1176HOH      O 3714   0.755   2.735   0.474
 1176HOH     H1 3715   0.703   2.679   0.531
 1176HOH     H2 3716   0.776   2.679   0.398
 1177HOH      O 3717   3.220   3.303   2.742
 1177HOH     H1 3718   3.275   3.265   2.810
 1177HOH     H2 3719   3.132   3.303   2.779
 1178HOH      O 3720   1.398   2.628   3.716
 1178HOH     H1 3721   1.393   2.570   3.640
 1178HOH     H2 3722   1.490   2.652   3.723
 1179HOH      O 3723   3.793   0.920   0.224
 1179HOH     H1 3724   3.873   0.965   0.194
 1179HOH     H2 3725   3.793   0.931   0.319
 1180HOH      O 3726   1.349   1.879   0.707
 1180HOH     H1 3727   1.286   1.924   0.651
 1180HOH     H2 3728   1.317   1.894   0.796
 1181HOH      O 3729   2.686   3.636   0.839
 1181HOH     H1 3730   2.634   3.695   0.894
 1181HOH     H2 3731   2.776   3.664   0.851
 1182HOH      O 3732   3.148   1.832   0.069
 1182HOH     H1 3733   3.078   1.770   0.049
 1182HOH     H2 3734   3.209   1.782   0.124
 1183HOH      O 3735   2.950   2.017   1.423
 1183HOH     H1 3736   2.868   2.016   1.373
 1183HOH     H2 3737   2.953   1.930   1.464
 1184HOH      O 3738   2.318   2.662   3.805
 1184HOH     H1 3739   2.407   2.692   3.788
 1184HOH     H2 3740   2.316   2.646   3.900
 1185HOH      O 3741   2.389   1.659   2.796
 1185HOH     H1 3742   2.388   1.609   2.878
 1185HOH     H2 3743   2.319   1.724   2.806
 1186HOH      O 3744   2.272   1.860   3.878
 1186HOH     H1 3745   2.341   1.863   3.944
 1186HOH     H2 3746   2.306   1.803   3.810
 1187HOH      O 3747   0.564   0.480   2.989
 1187HOH     H1 3748   0.563   0.432   3.071
 1187HOH     H2 3749   0.645   0.532   2.993
 1188HOH      O 3750   0.790   1.771   0.211
 1188HOH     H1 3751   0.770   1.811   0.126
 1188HOH     H2 3752   0.825   1.684   0.189
 1189HOH      O 3753   0.220   2.900   0.740
 1189HOH     H1 3754   0.169   2.955   0.799
 1189HOH     H2 3755   0.311   2.917   0.765
 1190HOH      O 3756   2.587   1.144   3.900
 1190HOH     H1 3757   2.658   1.100   3.854
 1190HOH     H2 3758   2.589   1.233   3.866
 1191HOH      O 3759   2.275   1.508   3.921
 1191HOH     H1 3760   2.266   1.579   3.857
 1191HOH     H2 3761   2.188   1.467   3.924
 1192HOH      O 3762   1.956   1.930   0.044
 1192HOH     H1 3763   1.891   1.981   0.091
 1192HOH     H2 3764   1.977   1.983  -0.033
 1193HOH      O 3765   3.661   0.445   3.176
 1193HOH     H1 3766   3.656   0.350   3.186
 1193HOH     H2 3767   3.727   0.473   3.240
 1194HOH      O 3768   0.982   0.400   3.913
 1194HOH     H1 3769   0.987   0.433   3.824
 1194HOH     H2 3770   0.890   0.373   3.923
 1195HOH      O 3771   3.984   2.432   3.723
 1195HOH     H1 3772   4.053   2.379   3.684
 1195HOH     H2 3773   3.948   2.482   3.649
 1196HOH      O 3774   1.973   3.341   0.848
 1196HOH     H1 3775   1.883   3.347   0.815
 1196HOH     H2 3776   1.967   3.282   0.923
 1197HOH      O 3777   3.153   3.769   3.868
 1197HOH     H1 3778   3.094   3.797   3.938
 1197HOH     H2 3779   3.097   3.719   3.808
 1198HOH      O 3780   3.767   2.301   1.931
 1198HOH     H1 3781   3.750   2.322   2.023
 1198HOH     H2 3782   3.862   2.295   1.925
 1199HOH      O 3783   0.992   2.759   1.989
 1199HOH     H1 3784   0.961   2.850   1.989
 1199HOH     H2 3785   0.924   2.710   1.943
 1200HOH      O 3786   1.626   0.542   3.973
 1200HOH     H1 3787   1.561   0.504   4.033
 1200HOH     H2 3788   1.590   0.628   3.952
 1201HOH      O 3789   1.343   1.519   0.117
 1201HOH     H1 3790   1.275   1.478   0.063
 1201HOH     H2 3791   1.423   1.510   0.064
 1202HOH      O 3792   2.527   0.132   3.776
 1202HOH     H1 3793   2.540   0.048   3.821
 1202HOH     H2 3794   2.505   0.108   3.686
 1203HOH      O 3795   0.128   3.790   3.331
 1203HOH     H1 3796   0.060   3.795   3.398
 1203HOH     H2 3797   0.188   3.722   3.363
 1204HOH      O 3798   2.495   1.844   1.853
 1204HOH     H1 3799   2.469   1.762   1.896
 1204HOH     H2 3800   2.575   1.822   1.806
 1205HOH      O 3801   3.773   2.303   3.071
 1205HOH     H1 3802   3.693   2.354   3.086
 1205HOH     H2 3803   3.823   2.356   3.008
 1206HOH      O 3804   0.324   3.964   3.842
 1206HOH     H1 3805   0.338   4.030   3.910
 1206HOH     H2 3806   0.231   3.971   3.821
 1207HOH      O 3807   3.949   2.352   0.852
 1207HOH     H1 3808   4.019   2.312   0.903
 1207HOH     H2 3809   3.951   2.306   0.768
 1208HOH      O 3810   2.163   1.682   2.385
 1208HOH     H1 3811   2.119   1.628   2.450
 1208HOH     H2 3812   2.114   1.668   2.305
 1209HOH      O 3813   3.172   1.016   1.643
 1209HOH     H1 3814   3.110   1.012   1.716
 1209HOH     H2 3815   3.123   0.984   1.567
 1210HOH      O 3816   0.353   1.152   0.088
 1210HOH     H1 3817   0.268   1.158   0.043
 1210HOH     H2 3818   0.331   1.162   0.180
 1211HOH      O 3819   1.985   2.325   2.874
 1211HOH     H1 3820   1.970   2.304   2.782
 1211HOH     H2 3821   1.981   2.240   2.919
 1212HOH      O 3822   1.084   3.611   0.834
 1212HOH     H1 3823   1.146   3.683   0.845
 1212HOH     H2 3824   1.138   3.535   0.811
 1213HOH      O 3825   2.714   2.907   2.533
 1213HOH     H1 3826   2.636   2.954   2.561
 1213HOH     H2 3827   2.773   2.976   2.502
 1214HOH      O 3828   1.464   0.439   1.282
 1214HOH     H1 3829   1.520   0.478   1.350
 1214HOH     H2 3830   1.526   0.401   1.220
 1215HOH      O 3831   3.427   1.255   0.868
 1215HOH     H1 3832   3.345   1.206   0.863
 1215HOH     H2 3833   3.437   1.293   0.780
 1216HOH      O 3834   3.901   2.955   1.966
 1216HOH     H1 3835   3.822   2.932   1.916
 1216HOH     H2 3836   3.928   3.039   1.929
 1217HOH      O 3837   1.211   3.141   0.716
 1217HOH     H1 3838   1.219   3.136   0.620
 1217HOH     H2 3839   1.300   3.158   0.746
 1218HOH      O 3840   0.476   1.285   2.746
 1218HOH     H1 3841   0.422   1.271   2.669
 1218HOH     H2 3842   0.445   1.368   2.782
 1219HOH      O 3843   1.221   1.465   1.639
 1219HOH     H1 3844   1.276   1.391   1.665
 1219HOH     H2 3845   1.133   1.428   1.635
 1220HOH      O 3846   1.632   2.188   0.718
 1220HOH     H1 3847   1.573   2.182   0.794
 1220HOH     H2 3848   1.682   2.106   0.720
 1221HOH      O 3849   1.746   1.208   1.133
 1221HOH     H1 3850   1.788   1.131   1.170
 1221HOH     H2 3851   1.656   1.180   1.117
 1222HOH      O 3852   2.982   0.414   0.197
 1222HOH     H1 3853   2.949   0.493   0.240
 1222HOH     H2 3854   2.903   0.366   0.172
 1223HOH      O 3855   0.884   3.310   3.147
 1223HOH     H1 3856   0.948   3.274   3.209
 1223HOH     H2 3857   0.936   3.362   3.086
 1224HOH      O 3858   3.402   3.756   1.118
 1224HOH     H1 3859   3.462   3.797   1.180
 1224HOH     H2 3860   3.375   3.674   1.161
 1225HOH      O 3861   0.084   3.867   1.941
 1225HOH     H1 3862   0.152   3.934   1.935
 1225HOH     H2 3863   0.015   3.908   1.993
 1226HOH      O 3864   1.594   2.304   0.195
 1226HOH     H1 3865   1.571   2.274   0.283
 1226HOH     H2 3866   1.542   2.384   0.184
 1227HOH      O 3867   1.621   1.202   0.152
 1227HOH     H1 3868   1.607   1.112   0.124
 1227HOH     H2 3869   1.623   1.198   0.247
 1228HOH      O 3870   3.844   3.816   1.343
 1228HOH     H1 3871   3.892   3.899   1.338
 1228HOH     H2 3872   3.912   3.749   1.352
 1229HOH      O 3873   0.165   0.794   3.768
 1229HOH     H1 3874   0.223   0.871   3.775
 1229HOH     H2 3875   0.168   0.755   3.855
 1230HOH      O 3876   3.665   3.527   1.160
 1230HOH     H1 3877   3.646   3.444   1.117
 1230HOH     H2 3878   3.650   3.593   1.093
 1231HOH      O 3879   3.082   0.305   0.825
 1231HOH     H1 3880   3.141   0.348   0.886
 1231HOH     H2 3881   3.007   0.364   0.816
 1232HOH      O 3882   3.014   2.997   2.010
 1232HOH     H1 3883   3.013   2.917   2.062
 1232HOH     H2 3884   3.080   2.981   1.943
 1233HOH      O 3885   2.985   2.419   0.745
 1233HOH     H1 3886   3.041   2.378   0.811
 1233HOH     H2 3887   3.035   2.494   0.714
 1234HOH      O 3888   3.443   2.842   0.922
 1234HOH     H1 3889   3.388   2.764   0.921
 1234HOH     H2 3890   3.407   2.898   0.854
 1235HOH      O 3891   3.409   1.494   1.402
 1235HOH     H1 3892   3.428   1.509   1.310
 1235HOH     H2 3893   3.340   1.556   1.424
 1236HOH      O 3894   2.651   1.304   1.058
 1236HOH     H1 3895   2.713   1.347   0.999
 1236HOH     H2 3896   2.568   1.303   1.010
 1237HOH      O 3897   0.386   3.539   0.584
 1237HOH     H1 3898   0.450   3.565   0.649
 1237HOH     H2 3899   0.391   3.607   0.517
 1238HOH      O 3900   3.461   0.447   2.592
 1238HOH     H1 3901   3.375   0.461   2.632
 1238HOH     H2 3902   3.443   0.448   2.498
 1239HOH      O 3903   2.416   3.326   0.252
 1239HOH     H1 3904   2.390   3.321   0.344
 1239HOH     H2 3905   2.420   3.420   0.234
 1240HOH      O 3906   2.380   0.406   1.451
 1240HOH     H1 3907   2.362   0.500   1.454
 1240HOH     H2 3908   2.301   0.368   1.414
 1241HOH      O 3909   0.698   3.772   2.641
 1241HOH     H1 3910   0.789   3.762   2.614
 1241HOH     H2 3911   0.691   3.865   2.664
 1242HOH      O 3912   1.713   3.399   0.765
 1242HOH     H1 3913   1.636   3.454   0.754
 1242HOH     H2 3914   1.759   3.405   0.681
 1243HOH      O 3915   2.969   1.708   2.017
 1243HOH     H1 3916   2.907   1.651   1.971
 1243HOH     H2 3917   3.048   1.705   1.962
 1244HOH      O 3918   0.324   0.762   0.676
 1244HOH     H1 3919   0.361   0.678   0.704
 1244HOH     H2 3920   0.344   0.767   0.583
 1245HOH      O 3921   3.060   0.669   1.584
 1245HOH     H1 3922   2.981   0.619   1.564
 1245HOH     H2 3923   3.037   0.759   1.564
 1246HOH      O 3924   2.622   3.569   1.626
 1246HOH     H1 3925   2.548   3.626   1.604
 1246HOH     H2 3926   2.699   3.622   1.606
 1247HOH      O 3927   1.927   2.218   2.631
 1247HOH     H1 3928   1.882   2.134   2.641
 1247HOH     H2 3929   1.867   2.273   2.581
 1248HOH      O 3930   1.855   3.473   1.633
 1248HOH     H1 3931   1.920   3.500   1.699
 1248HOH     H2 3932   1.893   3.500   1.550
 1249HOH      O 3933   3.771   0.344   2.218
 1249HOH     H1 3934   3.768   0.405   2.145
 1249HOH     H2 3935   3.863   0.318   2.224
 1250HOH      O 3936   0.827   0.052   2.150
 1250HOH     H1 3937   0.911   0.017   2.121
 1250HOH     H2 3938   0.777   0.063   2.069
 1251HOH      O 3939   2.494   0.348   1.713
 1251HOH     H1 3940   2.516   0.256   1.727
 1251HOH     H2 3941   2.443   0.349   1.632
 1252HOH      O 3942   2.510   1.400   1.716
 1252HOH     H1 3943   2.600   1.425   1.698
 1252HOH     H2 3944   2.505   1.395   1.811
 1253HOH      O 3945   1.834   0.990   3.793
 1253HOH     H1 3946   1.875   1.033   3.718
 1253HOH     H2 3947   1.900   0.927   3.823
 1254HOH      O 3948   1.207   0.168   0.666
 1254HOH     H1 3949   1.227   0.095   0.607
 1254HOH     H2 3950   1.223   0.246   0.613
 1255HOH      O 3951   1.415   2.254   3.240
 1255HOH     H1 3952   1.334   2.275   3.194
 1255HOH     H2 3953   1.416   2.159   3.245
 1256HOH      O 3954   0.092   2.663   2.336
 1256HOH     H1 3955   0.131   2.687   2.420
 1256HOH     H2 3956   0.009   2.622   2.359
 1257HOH      O 3957   3.515   2.398   0.029
 1257HOH     H1 3958   3.497   2.304   0.030
 1257HOH     H2 3959   3.586   2.408  -0.034
 1258HOH      O 3960   0.788   1.164   1.694
 1258HOH     H1 3961   0.767   1.249   1.654
 1258HOH     H2 3962   0.721   1.104   1.660
 1259HOH      O 3963   1.599   1.976   3.330
 1259HOH     H1 3964   1.634   2.058   3.364
 1259HOH     H2 3965   1.572   1.927   3.409
 1260HOH      O 3966   0.279   1.730   2.635
 1260HOH     H1 3967   0.236   1.686   2.562
 1260HOH     H2 3968   0.324   1.804   2.595
 1261HOH      O 3969   1.120   2.261   3.610
 1261HOH     H1 3970   1.193   2.246   3.671
 1261HOH     H2 3971   1.141   2.345   3.569
 1262HOH      O 3972   2.804   1.038   3.783
 1262HOH     H1 3973   2.853   1.062   3.704
 1262HOH     H2 3974   2.779   0.947   3.769
 1263HOH      O 3975   3.797   1.986   1.399
 1263HOH     H1 3976   3.738   2.028   1.337
 1263HOH     H2 3977   3.815   2.053   1.465
 1264HOH      O 3978   3.575   1.341   1.690
 1264HOH     H1 3979   3.665   1.315   1.676
 1264HOH     H2 3980   3.523   1.273   1.648
 1265HOH      O 3981   1.463   3.238   3.117
 1265HOH     H1 3982   1.439   3.147   3.100
 1265HOH     H2 3983   1.557   3.243   3.099
 1266HOH      O 3984   2.120   3.914   1.765
 1266HOH     H1 3985   2.185   3.974   1.803
 1266HOH     H2 3986   2.095   3.956   1.682
 1267HOH      O 3987   2.771   3.470   3.612
 1267HOH     H1 3988   2.688   3.511   3.635
 1267HOH     H2 3989   2.749   3.377   3.600
 1268HOH      O 3990   1.741   0.811   0.100
 1268HOH     H1 3991   1.727   0.816   0.006
 1268HOH     H2 3992   1.836   0.821   0.111
 1269HOH      O 3993   2.103   3.646   3.981
 1269HOH     H1 3994   2.055   3.583   3.927
 1269HOH     H2 3995   2.134   3.594   4.055
 1270HOH      O 3996   2.783   1.487   1.618
 1270HOH     H1 3997   2.731   1.457   1.543
 1270HOH     H2 3998   2.873   1.486   1.586
 1271HOH      O 3999   2.494   2.574   1.538
 1271HOH     H1 4000   2.573   2.532   1.572
 1271HOH     H2 4001   2.526   2.637   1.474
 1272HOH      O 4002   3.468   2.717   0.315
 1272HOH     H1 4003   3.562   2.696   0.315
 1272HOH     H2 4004   3.464   2.809   0.342
 1273HOH      O 4005   3.730   3.608   3.454
 1273HOH     H1 4006   3.735   3.524   3.409
 1273HOH     H2 4007   3.656   3.599   3.514
 1274HOH      O 4008   1.887   0.080   1.890
 1274HOH     H1 4009   1.832   0.115   1.960
 1274HOH     H2 4010   1.950   0.150   1.872
 1275HOH      O 4011   1.125   2.397   1.347
 1275HOH     H1 4012   1.042   2.411   1.301
 1275HOH     H2 4013   1.127   2.466   1.414
 1276HOH      O 4014   0.766   2.691   1.852
 1276HOH     H1 4015   0.681   2.728   1.878
 1276HOH     H2 4016   0.795   2.747   1.780
 1277HOH      O 4017   0.040   0.347   1.590
 1277HOH     H1 4018   0.033   0.356   1.495
 1277HOH     H2 4019   0.134   0.354   1.607
 1278HOH      O 4020   1.277   2.101   0.333
 1278HOH     H1 4021   1.250   2.107   0.241
 1278HOH     H2 4022   1.203   2.137   0.382
 1279HOH      O 4023   2.087   3.998   1.150
 1279HOH     H1 4024   2.164   4.047   1.182
 1279HOH     H2 4025   2.068   3.935   1.219
 1280HOH      O 4026   2.841   0.098   0.363
 1280HOH     H1 4027   2.827   0.160   0.292
 1280HOH     H2 4028   2.935   0.078   0.358
 1281HOH      O 4029   0.893   2.817   2.721
 1281HOH     H1 4030   0.934   2.747   2.773
 1281HOH     H2 4031   0.941   2.815   2.637
 1282HOH      O 4032   1.030   1.449   1.406
 1282HOH     H1 4033   0.992   1.492   1.329
 1282HOH     H2 4034   1.110   1.408   1.372
 1283HOH      O 4035   1.016   2.994  -0.002
 1283HOH     H1 4036   1.056   2.933   0.059
 1283HOH     H2 4037   0.953   3.044   0.051
 1284HOH      O 4038   2.644   1.965   3.252
 1284HOH     H1 4039   2.680   1.939   3.337
 1284HOH     H2 4040   2.691   1.912   3.188
 1285HOH      O 4041   0.797   2.348   2.204
 1285HOH     H1 4042   0.752   2.331   2.121
 1285HOH     H2 4043   0.846   2.429   2.189
 1286HOH      O 4044   1.209   2.645   2.929
 1286HOH     H1 4045   1.180   2.735   2.914
 1286HOH     H2 4046   1.130   2.592   2.921
 1287HOH      O 4047   2.910   3.632   0.459
 1287HOH     H1 4048   2.934   3.562   0.520
 1287HOH     H2 4049   2.818   3.649   0.476
 1288HOH      O 4050   1.442   3.831   1.067
 1288HOH     H1 4051   1.391   3.912   1.063
 1288HOH     H2 4052   1.421   3.794   1.153
 1289HOH      O 4053   1.105   1.345   2.789
 1289HOH     H1 4054   1.095   1.253   2.814
 1289HOH     H2 4055   1.121   1.342   2.695
 1290HOH      O 4056   3.240   2.069   0.681
 1290HOH     H1 4057   3.262   2.012   0.755
 1290HOH     H2 4058   3.319   2.071   0.628
 1291HOH      O 4059   3.686   2.831   1.233
 1291HOH     H1 4060   3.724   2.905   1.186
 1291HOH     H2 4061   3.759   2.771   1.247
 1292HOH      O 4062   3.732   2.902   1.516
 1292HOH     H1 4063   3.722   2.846   1.439
 1292HOH     H2 4064   3.785   2.851   1.577
 1293HOH      O 4065   2.490   1.358   2.012
 1293HOH     H1 4066   2.396   1.339   2.002
 1293HOH     H2 4067   2.529   1.275   2.038
 1294HOH      O 4068   2.439   1.808   3.376
 1294HOH     H1 4069   2.367   1.866   3.352
 1294HOH     H2 4070   2.517   1.852   3.342
 1295HOH      O 4071   2.297   2.916   2.613
 1295HOH     H1 4072   2.210   2.895   2.580
 1295HOH     H2 4073   2.293   3.010   2.632
 1296HOH      O 4074   3.880   3.070   2.753
 1296HOH     H1 4075   3.790   3.039   2.750
 1296HOH     H2 4076   3.874   3.156   2.796
 1297HOH      O 4077   2.099   1.673   3.595
 1297HOH     H1 4078   2.075   1.661   3.687
 1297HOH     H2 4079   2.150   1.753   3.593
 1298HOH      O 4080   1.860   1.292   1.844
 1298HOH     H1 4081   1.846   1.254   1.758
 1298HOH     H2 4082   1.913   1.228   1.891
 1299HOH      O 4083   3.858   0.448   1.858
 1299HOH     H1 4084   3.784   0.478   1.910
 1299HOH     H2 4085   3.818   0.400   1.785
 1300HOH      O 4086   1.648   2.860   2.948
 1300HOH     H1 4087   1.567   2.909   2.958
 1300HOH     H2 4088   1.701   2.886   3.023
 1301HOH      O 4089   1.112   2.457   0.528
 1301HOH     H1 4090   1.194   2.506   0.522
 1301HOH     H2 4091   1.057   2.509   0.587
 1302HOH      O 4092   3.893   3.308   2.895
 1302HOH     H1 4093   3.937   3.368   2.956
 1302HOH     H2 4094   3.802   3.307   2.925
 1303HOH      O 4095   3.927   2.768   1.325
 1303HOH     H1 4096   3.983   2.721   1.387
 1303HOH     H2 4097   3.988   2.802   1.260
 1304HOH      O 4098   0.312   2.113   0.086
 1304HOH     H1 4099   0.281   2.188   0.136
 1304HOH     H2 4100   0.233   2.078   0.045
 1305HOH      O 4101   0.417   3.856   2.905
 1305HOH     H1 4102   0.346   3.818   2.853
 1305HOH     H2 4103   0.467   3.909   2.843
 1306HOH      O 4104   0.310   2.666   3.354
 1306HOH     H1 4105   0.228   2.689   3.397
 1306HOH     H2 4106   0.324   2.736   3.290
 1307HOH      O 4107   3.117   0.675   2.042
 1307HOH     H1 4108   3.024   0.654   2.032
 1307HOH     H2 4109   3.159   0.635   1.965
 1308HOH      O 4110   0.264   3.095   3.675
 1308HOH     H1 4111   0.198   3.040   3.718
 1308HOH     H2 4112   0.326   3.116   3.744
 1309HOH      O 4113   3.684   0.202   1.519
 1309HOH     H1 4114   3.706   0.295   1.526
 1309HOH     H2 4115   3.712   0.165   1.603
 1310HOH      O 4116   0.660   0.821   2.524
 1310HOH     H1 4117   0.743   0.833   2.570
 1310HOH     H2 4118   0.593   0.844   2.589
 1311HOH      O 4119   3.231   3.952   2.048
 1311HOH     H1 4120   3.144   3.921   2.075
 1311HOH     H2 4121   3.287   3.930   2.122
 1312HOH      O 4122   2.799   1.036   2.477
 1312HOH     H1 4123   2.846   0.953   2.471
 1312HOH     H2 4124   2.760   1.035   2.564
 1313HOH      O 4125   1.117   0.779   1.421
 1313HOH     H1 4126   1.060   0.837   1.372
 1313HOH     H2 4127   1.181   0.748   1.357
 1314HOH      O 4128   1.825   0.608   2.198
 1314HOH     H1 4129   1.847   0.695   2.233
 1314HOH     H2 4130   1.802   0.624   2.107
 1315HOH      O 4131   0.847   1.513   2.880
 1315HOH     H1 4132   0.888   1.437   2.838
 1315HOH     H2 4133   0.894   1.588   2.844
 1316HOH      O 4134   3.052   0.020   3.346
 1316HOH     H1 4135   3.009   0.042   3.264
 1316HOH     H2 4136   3.050   0.102   3.397
 1317HOH      O 4137   2.728   2.233   1.346
 1317HOH     H1 4138   2.778   2.281   1.412
 1317HOH     H2 4139   2.639   2.229   1.380
 1318HOH      O 4140   2.117   2.375   2.247
 1318HOH     H1 4141   2.191   2.323   2.280
 1318HOH     H2 4142   2.057   2.310   2.212
 1319HOH      O 4143   0.676   3.534   1.802
 1319HOH     H1 4144   0.666   3.466   1.868
 1319HOH     H2 4145   0.586   3.558   1.778
 1320HOH      O 4146   1.571   2.128   1.489
 1320HOH     H1 4147   1.502   2.070   1.520
 1320HOH     H2 4148   1.650   2.074   1.487
 1321HOH      O 4149   3.832   3.319   2.541
 1321HOH     H1 4150   3.905   3.284   2.592
 1321HOH     H2 4151   3.835   3.414   2.556
 1322HOH      O 4152   3.896   2.576   2.480
 1322HOH     H1 4153   3.907   2.482   2.471
 1322HOH     H2 4154   3.833   2.587   2.552
 1323HOH      O 4155   2.196   1.633   0.645
 1323HOH     H1 4156   2.127   1.568   0.632
 1323HOH     H2 4157   2.245   1.632   0.564
 1324HOH      O 4158   2.325   0.433   1.909
 1324HOH     H1 4159   2.331   0.525   1.883
 1324HOH     H2 4160   2.384   0.387   1.849
 1325HOH      O 4161   1.836   3.369   0.498
 1325HOH     H1 4162   1.826   3.276   0.518
 1325HOH     H2 4163   1.894   3.372   0.422
 1326HOH      O 4164   0.399   3.729   1.497
 1326HOH     H1 4165   0.418   3.676   1.575
 1326HOH     H2 4166   0.436   3.815   1.518
 1327HOH      O 4167   2.381   2.089   3.523
 1327HOH     H1 4168   2.321   2.021   3.555
 1327HOH     H2 4169   2.466   2.064   3.558
 1328HOH      O 4170   1.237   1.001   0.827
 1328HOH     H1 4171   1.197   1.086   0.812
 1328HOH     H2 4172   1.331   1.020   0.834
 1329HOH      O 4173   1.317   2.159   1.142
 1329HOH     H1 4174   1.360   2.205   1.213
 1329HOH     H2 4175   1.342   2.067   1.154
 1330HOH      O 4176   0.660   1.651   2.452
 1330HOH     H1 4177   0.669   1.559   2.428
 1330HOH     H2 4178   0.643   1.650   2.546
 1331HOH      O 4179   0.968   1.938   2.198
 1331HOH     H1 4180   0.948   1.930   2.291
 1331HOH     H2 4181   0.952   1.850   2.163
 1332HOH      O 4182   3.024   3.187   3.887
 1332HOH     H1 4183   3.002   3.110   3.835
 1332HOH     H2 4184   3.068   3.246   3.826
 1333HOH      O 4185   2.408   1.093   3.237
 1333HOH     H1 4186   2.460   1.085   3.158
 1333HOH     H2 4187   2.338   1.153   3.214
 1334HOH      O 4188   2.021   3.696   2.969
 1334HOH     H1 4189   2.009   3.624   3.031
 1334HOH     H2 4190   1.937   3.705   2.925
 1335HOH      O 4191   3.000   0.545   3.035
 1335HOH     H1 4192   3.025   0.516   3.123
 1335HOH     H2 4193   2.938   0.616   3.050
 1336HOH      O 4194   0.973   1.766   0.427
 1336HOH     H1 4195   0.910   1.797   0.362
 1336HOH     H2 4196   1.044   1.728   0.376
 1337HOH      O 4197   1.160   0.209   2.086
 1337HOH     H1 4198   1.145   0.118   2.114
 1337HOH     H2 4199   1.187   0.202   1.995
 1338HOH      O 4200   3.533   0.935   2.224
 1338HOH     H1 4201   3.459   0.902   2.172
 1338HOH     H2 4202   3.520   0.896   2.310
 1339HOH      O 4203   0.364   1.626   1.419
 1339HOH     H1 4204   0.396   1.702   1.468
 1339HOH     H2 4205   0.382   1.551   1.477
 1340HOH      O 4206   0.399   1.115   0.834
 1340HOH     H1 4207   0.436   1.203   0.834
 1340HOH     H2 4208   0.316   1.123   0.787
 1341HOH      O 4209   1.847   0.183   1.445
 1341HOH     H1 4210   1.786   0.208   1.515
 1341HOH     H2 4211   1.806   0.107   1.404
 1342HOH      O 4212   3.016   2.160   3.591
 1342HOH     H1 4213   2.998   2.101   3.518
 1342HOH     H2 4214   2.968   2.240   3.569
 1343HOH      O 4215   1.627   3.291   1.563
 1343HOH     H1 4216   1.552   3.298   1.622
 1343HOH     H2 4217   1.677   3.372   1.578
 1344HOH      O 4218   1.761   2.043   0.174
 1344HOH     H1 4219   1.792   2.099   0.246
 1344HOH     H2 4220   1.672   2.020   0.199
 1345HOH      O 4221   0.020   2.696   0.782
 1345HOH     H1 4222   0.072   2.777   0.777
 1345HOH     H2 4223   0.075   2.630   0.740
 1346HOH      O 4224   0.688   1.524   3.877
 1346HOH     H1 4225   0.625   1.538   3.806
 1346HOH     H2 4226   0.637   1.488   3.949
 1347HOH      O 4227   0.633   0.545   0.990
 1347HOH     H1 4228   0.667   0.468   0.945
 1347HOH     H2 4229   0.653   0.618   0.931
 1348HOH      O 4230   2.776   3.543   3.343
 1348HOH     H1 4231   2.812   3.494   3.417
 1348HOH     H2 4232   2.812   3.632   3.353
 1349HOH      O 4233   0.208   2.051   0.905
 1349HOH     H1 4234   0.292   2.020   0.872
 1349HOH     H2 4235   0.221   2.145   0.917
 1350HOH      O 4236   0.471   4.007   0.733
 1350HOH     H1 4237   0.531   3.982   0.663
 1350HOH     H2 4238   0.450   3.924   0.777
 1351HOH      O 4239   3.514   0.802   3.709
 1351HOH     H1 4240   3.495   0.712   3.685
 1351HOH     H2 4241   3.609   0.810   3.702
 1352HOH      O 4242   0.108   1.640   3.247
 1352HOH     H1 4243   0.063   1.713   3.205
 1352HOH     H2 4244   0.038   1.578   3.269
 1353HOH      O 4245   0.943   1.609   1.216
 1353HOH     H1 4246   0.850   1.589   1.209
 1353HOH     H2 4247   0.979   1.588   1.130
 1354HOH      O 4248   0.235   0.524   2.914
 1354HOH     H1 4249   0.325   0.495   2.932
 1354HOH     H2 4250   0.214   0.485   2.829
 1355HOH      O 4251   2.502   0.018   0.683
 1355HOH     H1 4252   2.473   0.072   0.610
 1355HOH     H2 4253   2.593  -0.005   0.662
 1356HOH      O 4254   0.353   3.300   1.747
 1356HOH     H1 4255   0.324   3.227   1.801
 1356HOH     H2 4256   0.437   3.271   1.711
 1357HOH      O 4257   4.003   1.101   2.450
 1357HOH     H1 4258   3.929   1.095   2.389
 1357HOH     H2 4259   3.992   1.025   2.507
 1358HOH      O 4260   0.721   3.060   3.838
 1358HOH     H1 4261   0.671   3.139   3.814
 1358HOH     H2 4262   0.808   3.093   3.860
 1359HOH      O 4263   2.678   2.732   3.031
 1359HOH     H1 4264   2.692   2.819   2.996
 1359HOH     H2 4265   2.585   2.731   3.056
 1360HOH      O 4266   1.910   1.811   1.000
 1360HOH     H1 4267   1.889   1.903   1.018
 1360HOH     H2 4268   1.948   1.812   0.913
 1361HOH      O 4269   3.884   0.552   2.734
 1361HOH     H1 4270   3.896   0.524   2.825
 1361HOH     H2 4271   3.970   0.586   2.708
 1362HOH      O 4272   2.066   3.373   0.362
 1362HOH     H1 4273   2.144   3.381   0.416
 1362HOH     H2 4274   2.095   3.396   0.274
 1363HOH      O 4275   1.073   2.417   2.393
 1363HOH     H1 4276   1.028   2.441   2.313
 1363HOH     H2 4277   1.144   2.481   2.401
 1364HOH      O 4278   3.017   1.777   1.024
 1364HOH     H1 4279   2.945   1.758   1.085
 1364HOH     H2 4280   2.975   1.778   0.938
 1365HOH      O 4281   0.230   1.421   1.173
 1365HOH     H1 4282   0.173   1.485   1.216
 1365HOH     H2 4283   0.291   1.394   1.241
 1366HOH      O 4284   1.859   1.899   3.240
 1366HOH     H1 4285   1.897   1.812   3.225
 1366HOH     H2 4286   1.766   1.888   3.222
 1367HOH      O 4287   1.585   2.336   1.644
 1367HOH     H1 4288   1.676   2.364   1.634
 1367HOH     H2 4289   1.578   2.259   1.587
 1368HOH      O 4290   2.123   2.912   1.865
 1368HOH     H1 4291   2.128   2.818   1.845
 1368HOH     H2 4292   2.037   2.938   1.833
 1369HOH      O 4293   3.695   0.461   1.604
 1369HOH     H1 4294   3.774   0.506   1.574
 1369HOH     H2 4295   3.623   0.510   1.563
 1370HOH      O 4296   1.443   2.940   3.101
 1370HOH     H1 4297   1.353   2.943   3.069
 1370HOH     H2 4298   1.438   2.888   3.181
 1371HOH      O 4299   4.024   0.630   1.768
 1371HOH     H1 4300   3.954   0.683   1.730
 1371HOH     H2 4301   3.979   0.569   1.826
 1372HOH      O 4302   1.398   1.767   3.507
 1372HOH     H1 4303   1.477   1.735   3.550
 1372HOH     H2 4304   1.349   1.688   3.485
 1373HOH      O 4305   2.434   3.835   3.970
 1373HOH     H1 4306   2.485   3.796   4.042
 1373HOH     H2 4307   2.377   3.898   4.014
 1374HOH      O 4308   1.165   3.554   0.253
 1374HOH     H1 4309   1.188   3.531   0.163
 1374HOH     H2 4310   1.172   3.472   0.301
 1375HOH      O 4311   3.954   1.818   3.841
 1375HOH     H1 4312   3.993   1.776   3.764
 1375HOH     H2 4313   3.905   1.892   3.806
 1376HOH      O 4314   3.760   2.276   3.384
 1376HOH     H1 4315   3.764   2.263   3.289
 1376HOH     H2 4316   3.666   2.281   3.403
 1377HOH      O 4317   1.337   2.875   3.379
 1377HOH     H1 4318   1.289   2.871   3.462
 1377HOH     H2 4319   1.397   2.949   3.389
 1378HOH      O 4320   2.229   3.773   2.242
 1378HOH     H1 4321   2.169   3.816   2.181
 1378HOH     H2 4322   2.173   3.718   2.295
 1379HOH      O 4323   0.114   2.573   2.836
 1379HOH     H1 4324   0.203   2.558   2.866
 1379HOH     H2 4325   0.087   2.653   2.880
 1380HOH      O 4326   1.152   3.342   0.401
 1380HOH     H1 4327   1.082   3.296   0.354
 1380HOH     H2 4328   1.201   3.272   0.445
 1381HOH      O 4329   0.929   0.537   1.305
 1381HOH     H1 4330   0.930   0.495   1.391
 1381HOH     H2 4331   1.022   0.548   1.283
 1382HOH      O 4332   3.873   0.232   3.535
 1382HOH     H1 4333   3.789   0.239   3.580
 1382HOH     H2 4334   3.893   0.139   3.536
 1383HOH      O 4335   1.222   2.920   2.826
 1383HOH     H1 4336   1.146   2.977   2.817
 1383HOH     H2 4337   1.277   2.941   2.751
 1384HOH      O 4338   0.886   3.657   2.151
 1384HOH     H1 4339   0.845   3.573   2.131
 1384HOH     H2 4340   0.824   3.701   2.209
 1385HOH      O 4341   2.368   1.117   0.837
 1385HOH     H1 4342   2.454   1.081   0.816
 1385HOH     H2 4343   2.366   1.202   0.794
 1386HOH      O 4344   3.616   0.511   3.937
 1386HOH     H1 4345   3.671   0.523   4.015
 1386HOH     H2 4346   3.567   0.431   3.955
 1387HOH      O 4347   2.018   1.354   3.612
 1387HOH     H1 4348   2.058   1.364   3.526
 1387HOH     H2 4349   2.088   1.315   3.666
 1388HOH      O 4350   1.792   3.900   3.270
 1388HOH     H1 4351   1.842   3.948   3.335
 1388HOH     H2 4352   1.752   3.968   3.216
 1389HOH      O 4353   3.529   2.874   2.019
 1389HOH     H1 4354   3.564   2.895   2.105
 1389HOH     H2 4355   3.563   2.787   1.999
 1390HOH      O 4356   1.083   0.098   1.757
 1390HOH     H1 4357   1.111   0.015   1.795
 1390HOH     H2 4358   1.128   0.102   1.673
 1391HOH      O 4359   1.304   2.003   2.578
 1391HOH     H1 4360   1.255   2.053   2.513
 1391HOH     H2 4361   1.379   2.058   2.600
 1392HOH      O 4362   0.276   2.958   1.419
 1392HOH     H1 4363   0.301   2.904   1.344
 1392HOH     H2 4364   0.359   2.996   1.450
 1393HOH      O 4365   3.699   3.798   3.875
 1393HOH     H1 4366   3.674   3.845   3.955
 1393HOH     H2 4367   3.642   3.835   3.808
 1394HOH      O 4368   0.488   3.190   3.238
 1394HOH     H1 4369   0.526   3.235   3.163
 1394HOH     H2 4370   0.482   3.258   3.306
 1395HOH      O 4371   3.943   0.669   3.063
 1395HOH     H1 4372   4.032   0.685   3.095
 1395HOH     H2 4373   3.941   0.574   3.045
 1396HOH      O 4374   3.241   2.326   1.938
 1396HOH     H1 4375   3.323   2.301   1.896
 1396HOH     H2 4376   3.268   2.370   2.019
 1397HOH      O 4377   1.800   1.982   1.504
 1397HOH     H1 4378   1.838   1.899   1.531
 1397HOH     H2 4379   1.876   2.037   1.483
 1398HOH      O 4380   0.536   1.274   1.363
 1398HOH     H1 4381   0.625   1.296   1.391
 1398HOH     H2 4382   0.528   1.315   1.277
 1399HOH      O 4383   3.135   2.758   0.723
 1399HOH     H1 4384   3.086   2.744   0.804
 1399HOH     H2 4385   3.067   2.776   0.657
 1400HOH      O 4386   1.757   2.637   1.286
 1400HOH     H1 4387   1.681   2.601   1.332
 1400HOH     H2 4388   1.831   2.585   1.317
 1401HOH      O 4389   2.664   1.472   2.241
 1401HOH     H1 4390   2.572   1.447   2.227
 1401HOH     H2 4391   2.659   1.554   2.290
 1402HOH      O 4392   3.766   2.628   2.982
 1402HOH     H1 4393   3.860   2.614   2.969
 1402HOH     H2 4394   3.757   2.723   2.994
 1403HOH      O 4395   0.869   1.731   3.962
 1403HOH     H1 4396   0.799   1.668   3.949
 1403HOH     H2 4397   0.947   1.678   3.976
 1404HOH      O 4398   1.852   1.317   3.275
 1404HOH     H1 4399   1.855   1.244   3.214
 1404HOH     H2 4400   1.929   1.370   3.253
 1405HOH      O 4401   2.343   0.486   0.743
 1405HOH     H1 4402   2.324   0.561   0.800
 1405HOH     H2 4403   2.285   0.417   0.774
 1406HOH      O 4404   1.294   3.358   3.308
 1406HOH     H1 4405   1.274   3.449   3.287
 1406HOH     H2 4406   1.366   3.335   3.248
 1407HOH      O 4407   3.075   2.241   0.308
 1407HOH     H1 4408   3.098   2.330   0.334
 1407HOH     H2 4409   3.036   2.202   0.387
 1408HOH      O 4410   1.711   2.144   3.866
 1408HOH     H1 4411   1.752   2.078   3.810
 1408HOH     H2 4412   1.775   2.158   3.936
 1409HOH      O 4413   1.616   1.237   0.422
 1409HOH     H1 4414   1.670   1.316   0.429
 1409HOH     H2 4415   1.643   1.183   0.496
 1410HOH      O 4416   3.511   1.150   3.340
 1410HOH     H1 4417   3.527   1.062   3.373
 1410HOH     H2 4418   3.597   1.192   3.340
 1411HOH      O 4419   3.429   2.902   1.689
 1411HOH     H1 4420   3.393   2.940   1.770
 1411HOH     H2 4421   3.460   2.815   1.716
 1412HOH      O 4422   3.416   0.795   2.433
 1412HOH     H1 4423   3.327   0.768   2.411
 1412HOH     H2 4424   3.404   0.872   2.490
 1413HOH      O 4425   4.047   0.147   2.896
 1413HOH     H1 4426   4.005   0.226   2.930
 1413HOH     H2 4427   4.012   0.076   2.950
 1414HOH      O 4428   3.550   2.189   1.498
 1414HOH     H1 4429   3.523   2.280   1.512
 1414HOH     H2 4430   3.468   2.139   1.503
 1415HOH      O 4431   0.532   3.351   2.521
 1415HOH     H1 4432   0.441   3.366   2.497
 1415HOH     H2 4433   0.548   3.410   2.594
 1416HOH      O 4434   2.865   1.601   0.422
 1416HOH     H1 4435   2.898   1.579   0.335
 1416HOH     H2 4436   2.849   1.695   0.419
 1417HOH      O 4437   0.255   2.452   1.891
 1417HOH     H1 4438   0.260   2.441   1.986
 1417HOH     H2 4439   0.214   2.538   1.879
 1418HOH      O 4440   2.810   3.684   3.795
 1418HOH     H1 4441   2.728   3.685   3.746
 1418HOH     H2 4442   2.844   3.595   3.783
 1419HOH      O 4443   3.263   1.870   0.875
 1419HOH     H1 4444   3.274   1.795   0.817
 1419HOH     H2 4445   3.231   1.832   0.957
 1420HOH      O 4446   0.668   3.457   2.296
 1420HOH     H1 4447   0.752   3.412   2.308
 1420HOH     H2 4448   0.616   3.432   2.373
 1421HOH      O 4449   2.037   3.925   2.029
 1421HOH     H1 4450   2.082   3.874   1.962
 1421HOH     H2 4451   1.994   3.996   1.982
 1422HOH      O 4452   2.977   2.798   0.951
 1422HOH     H1 4453   2.926   2.730   0.995
 1422HOH     H2 4454   2.968   2.875   1.008
 1423HOH      O 4455   3.453   3.606   0.730
 1423HOH     H1 4456   3.530   3.549   0.736
 1423HOH     H2 4457   3.448   3.648   0.815
 1424HOH      O 4458   0.233   0.327   1.214
 1424HOH     H1 4459   0.290   0.291   1.282
 1424HOH     H2 4460   0.204   0.411   1.248
 1425HOH      O 4461   1.157   2.446   1.951
 1425HOH     H1 4462   1.081   2.388   1.948
 1425HOH     H2 4463   1.122   2.528   1.985
 1426HOH      O 4464   3.626   0.031   3.283
 1426HOH     H1 4465   3.604   0.045   3.376
 1426HOH     H2 4466   3.554  -0.021   3.249
 1427HOH      O 4467   0.453   0.354   3.835
 1427HOH     H1 4468   0.501   0.342   3.753
 1427HOH     H2 4469   0.369   0.391   3.809
 1428HOH      O 4470   1.571   2.719   0.288
 1428HOH     H1 4471   1.651   2.735   0.237
 1428HOH     H2 4472   1.592   2.645   0.343
 1429HOH      O 4473   0.194   0.496   3.650
 1429HOH     H1 4474   0.265   0.560   3.641
 1429HOH     H2 4475   0.133   0.518   3.580
 1430HOH      O 4476   0.020   3.217   3.567
 1430HOH     H1 4477  -0.035   3.245   3.640
 1430HOH     H2 4478   0.108   3.209   3.603
 1431HOH      O 4479   0.631   4.019   3.258
 1431HOH     H1 4480   0.576   3.943   3.241
 1431HOH     H2 4481   0.694   4.019   3.186
 1432HOH      O 4482   0.550   2.966   1.932
 1432HOH     H1 4483   0.539   2.873   1.911
 1432HOH     H2 4484   0.463   3.004   1.918
 1433HOH      O 4485   2.796   3.074   0.721
 1433HOH     H1 4486   2.800   3.114   0.635
 1433HOH     H2 4487   2.861   3.122   0.773
 1434HOH      O 4488   0.598   2.473   3.156
 1434HOH     H1 4489   0.665   2.541   3.161
 1434HOH     H2 4490   0.553   2.478   3.241
 1435HOH      O 4491   1.346   2.650   0.449
 1435HOH     H1 4492   1.429   2.667   0.404
 1435HOH     H2 4493   1.371   2.609   0.531
 1436HOH      O 4494   2.655   1.244   3.629
 1436HOH     H1 4495   2.744   1.269   3.604
 1436HOH     H2 4496   2.643   1.157   3.592
 1437HOH      O 4497   3.448   2.638   1.821
 1437HOH     H1 4498   3.531   2.624   1.868
 1437HOH     H2 4499   3.382   2.640   1.889
 1438HOH      O 4500   0.567   1.682   1.853
 1438HOH     H1 4501   0.563   1.770   1.891
 1438HOH     H2 4502   0.477   1.662   1.828
 1439HOH      O 4503   2.479   2.170   0.898
 1439HOH     H1 4504   2.497   2.094   0.954
 1439HOH     H2 4505   2.548   2.167   0.832
 1440HOH      O 4506   0.441   0.149   0.230
 1440HOH     H1 4507   0.480   0.076   0.182
 1440HOH     H2 4508   0.513   0.183   0.283
 1441HOH      O 4509   2.508   0.735   0.310
 1441HOH     H1 4510   2.522   0.707   0.401
 1441HOH     H2 4511   2.414   0.721   0.296
 1442HOH      O 4512   2.534   2.174   1.532
 1442HOH     H1 4513   2.516   2.081   1.546
 1442HOH     H2 4514   2.465   2.219   1.580
 1443HOH      O 4515   0.734   1.764   3.645
 1443HOH     H1 4516   0.749   1.687   3.699
 1443HOH     H2 4517   0.687   1.825   3.703
 1444HOH      O 4518   1.229   3.439   2.118
 1444HOH     H1 4519   1.241   3.439   2.213
 1444HOH     H2 4520   1.218   3.346   2.096
 1445HOH      O 4521   1.750   2.783   0.096
 1445HOH     H1 4522   1.838   2.754   0.072
 1445HOH     H2 4523   1.719   2.830   0.019
 1446HOH      O 4524   3.998   2.456   1.278
 1446HOH     H1 4525   3.974   2.368   1.249
 1446HOH     H2 4526   4.008   2.506   1.197
 1447HOH      O 4527   0.883   1.802   1.824
 1447HOH     H1 4528   0.943   1.854   1.771
 1447HOH     H2 4529   0.796   1.826   1.792
 1448HOH      O 4530   2.241   1.182   3.644
 1448HOH     H1 4531   2.198   1.120   3.585
 1448HOH     H2 4532   2.283   1.127   3.709
 1449HOH      O 4533   2.683   2.461   3.187
 1449HOH     H1 4534   2.667   2.388   3.247
 1449HOH     H2 4535   2.736   2.523   3.237
 1450HOH      O 4536   1.114   3.079   1.728
 1450HOH     H1 4537   1.209   3.077   1.715
 1450HOH     H2 4538   1.079   3.023   1.658
 1451HOH      O 4539   1.806   1.195   1.588
 1451HOH     H1 4540   1.866   1.206   1.514
 1451HOH     H2 4541   1.763   1.112   1.572
 1452HOH      O 4542   1.524   0.100   1.351
 1452HOH     H1 4543   1.458   0.124   1.287
 1452HOH     H2 4544   1.507   0.157   1.426
 1453HOH      O 4545   1.977   3.848   1.351
 1453HOH     H1 4546   1.882   3.850   1.351
 1453HOH     H2 4547   2.003   3.906   1.422
 1454HOH      O 4548   2.349   0.024   1.847
 1454HOH     H1 4549   2.416   0.020   1.779
 1454HOH     H2 4550   2.377  -0.039   1.913
 1455HOH      O 4551   0.137   1.619   2.426
 1455HOH     H1 4552   0.120   1.571   2.345
 1455HOH     H2 4553   0.075   1.582   2.489
 1456HOH      O 4554   1.744   2.296   3.145
 1456HOH     H1 4555   1.686   2.329   3.214
 1456HOH     H2 4556   1.794   2.373   3.118
 1457HOH      O 4557  -0.011   3.322   3.315
 1457HOH     H1 4558  -0.009   3.289   3.405
 1457HOH     H2 4559   0.034   3.406   3.319
 1458HOH      O 4560   3.719   0.282   0.232
 1458HOH     H1 4561   3.782   0.334   0.283
 1458HOH     H2 4562   3.638   0.332   0.237
 1459HOH      O 4563   2.681   0.221   3.308
 1459HOH     H1 4564   2.593   0.234   3.344
 1459HOH     H2 4565   2.666   0.179   3.223
 1460HOH      O 4566   2.970   2.962   1.633
 1460HOH     H1 4567   2.904   2.962   1.563
 1460HOH     H2 4568   2.963   3.049   1.671
 1461HOH      O 4569   2.307   2.315   1.214
 1461HOH     H1 4570   2.300   2.323   1.309
 1461HOH     H2 4571   2.231   2.362   1.181
 1462HOH      O 4572   2.384   3.473   3.951
 1462HOH     H1 4573   2.432   3.510   4.026
 1462HOH     H2 4574   2.428   3.511   3.874
 1463HOH      O 4575   1.205   3.229   1.209
 1463HOH     H1 4576   1.263   3.156   1.189
 1463HOH     H2 4577   1.235   3.300   1.152
 1464HOH      O 4578   1.250   1.674   2.844
 1464HOH     H1 4579   1.340   1.684   2.876
 1464HOH     H2 4580   1.221   1.589   2.880
 1465HOH      O 4581   2.471   0.625   3.829
 1465HOH     H1 4582   2.380   0.650   3.842
 1465HOH     H2 4583   2.512   0.638   3.915
 1466HOH      O 4584   3.315   1.018   2.605
 1466HOH     H1 4585   3.306   1.029   2.700
 1466HOH     H2 4586   3.273   1.095   2.568
 1467HOH      O 4587   2.307   0.050   3.267
 1467HOH     H1 4588   2.233   0.005   3.227
 1467HOH     H2 4589   2.375   0.050   3.200
 1468HOH      O 4590   1.616   0.482   2.346
 1468HOH     H1 4591   1.665   0.517   2.272
 1468HOH     H2 4592   1.574   0.558   2.386
 1469HOH      O 4593   1.042   3.499   1.884
 1469HOH     H1 4594   1.065   3.581   1.927
 1469HOH     H2 4595   1.008   3.444   1.955
 1470HOH      O 4596   1.908   2.211   2.149
 1470HOH     H1 4597   1.921   2.146   2.080
 1470HOH     H2 4598   1.844   2.273   2.112
 1471HOH      O 4599   1.848   1.747   2.525
 1471HOH     H1 4600   1.812   1.731   2.438
 1471HOH     H2 4601   1.803   1.826   2.555
 1472HOH      O 4602   0.032   3.279   1.640
 1472HOH     H1 4603   0.116   3.316   1.614
 1472HOH     H2 4604  -0.008   3.252   1.557
 1473HOH      O 4605   0.082   2.939   3.810
 1473HOH     H1 4606   0.094   2.941   3.905
 1473HOH     H2 4607  -0.011   2.956   3.798
 1474HOH      O 4608   1.847   2.501   3.957
 1474HOH     H1 4609   1.752   2.498   3.947
 1474HOH     H2 4610   1.870   2.414   3.990
 1475HOH      O 4611   2.366   1.297   0.272
 1475HOH     H1 4612   2.316   1.264   0.346
 1475HOH     H2 4613   2.418   1.222   0.242
 1476HOH      O 4614   1.041   2.767   2.490
 1476HOH     H1 4615   1.133   2.791   2.490
 1476HOH     H2 4616   1.038   2.682   2.445
 1477HOH      O 4617   2.992   2.773   0.164
 1477HOH     H1 4618   3.085   2.776   0.141
 1477HOH     H2 4619   2.948   2.745   0.084
 1478HOH      O 4620   3.044   2.600   2.266
 1478HOH     H1 4621   2.961   2.628   2.304
 1478HOH     H2 4622   3.034   2.617   2.172
 1479HOH      O 4623   3.711   0.173   3.987
 1479HOH     H1 4624   3.659   0.198   4.063
 1479HOH     H2 4625   3.687   0.081   3.970
 1480HOH      O 4626   1.051   2.226   0.418
 1480HOH     H1 4627   0.970   2.244   0.371
 1480HOH     H2 4628   1.073   2.308   0.462
 1481HOH      O 4629   2.274   3.509   3.133
 1481HOH     H1 4630   2.285   3.603   3.120
 1481HOH     H2 4631   2.217   3.501   3.209
 1482HOH      O 4632   0.532   0.306   2.285
 1482HOH     H1 4633   0.485   0.225   2.264
 1482HOH     H2 4634   0.499   0.370   2.222
 1483HOH      O 4635   2.542   3.482   2.538
 1483HOH     H1 4636   2.492   3.413   2.582
 1483HOH     H2 4637   2.536   3.461   2.445
 1484HOH      O 4638   0.082   1.450   0.771
 1484HOH     H1 4639   0.023   1.525   0.783
 1484HOH     H2 4640   0.169   1.486   0.787
 1485HOH      O 4641   3.347   3.392   3.731
 1485HOH     H1 4642   3.267   3.444   3.716
 1485HOH     H2 4643   3.399   3.406   3.652
 1486HOH      O 4644   3.414   3.784   1.731
 1486HOH     H1 4645   3.340   3.786   1.791
 1486HOH     H2 4646   3.435   3.876   1.715
 1487HOH      O 4647   3.983   2.711   0.102
 1487HOH     H1 4648   4.029   2.684   0.181
 1487HOH     H2 4649   4.013   2.649   0.035
 1488HOH      O 4650   1.314   3.140   0.468
 1488HOH     H1 4651   1.369   3.070   0.433
 1488HOH     H2 4652   1.373   3.214   0.477
 1489HOH      O 4653   3.375   1.623   3.305
 1489HOH     H1 4654   3.314   1.553   3.282
 1489HOH     H2 4655   3.326   1.679   3.365
 1490HOH      O 4656   3.228   3.314   0.807
 1490HOH     H1 4657   3.305   3.320   0.751
 1490HOH     H2 4658   3.174   3.247   0.766
 1491HOH      O 4659   0.328   0.313   1.581
 1491HOH     H1 4660   0.392   0.312   1.652
 1491HOH     H2 4661   0.331   0.225   1.544
 1492HOH      O 4662   1.902   1.543   1.977
 1492HOH     H1 4663   1.867   1.455   1.963
 1492HOH     H2 4664   1.858   1.597   1.911
 1493HOH      O 4665   3.920   2.322   2.417
 1493HOH     H1 4666   3.920   2.261   2.491
 1493HOH     H2 4667   3.969   2.276   2.348
 1494HOH      O 4668   2.663   0.132   1.032
 1494HOH     H1 4669   2.628   0.208   0.985
 1494HOH     H2 4670   2.716   0.086   0.967
 1495HOH      O 4671   3.879   0.488   0.343
 1495HOH     H1 4672   3.972   0.496   0.365
 1495HOH     H2 4673   3.834   0.499   0.426
 1496HOH      O 4674   3.407   2.439   1.609
 1496HOH     H1 4675   3.477   2.504   1.608
 1496HOH     H2 4676   3.380   2.435   1.700
 1497HOH      O 4677   3.831   0.334   0.675
 1497HOH     H1 4678   3.874   0.379   0.748
 1497HOH     H2 4679   3.903   0.309   0.617
 1498HOH      O 4680   2.645   2.025   3.605
 1498HOH     H1 4681   2.669   1.972   3.681
 1498HOH     H2 4682   2.706   2.098   3.607
 1499HOH      O 4683   0.854   3.477   2.803
 1499HOH     H1 4684   0.793   3.533   2.849
 1499HOH     H2 4685   0.904   3.434   2.872
 1500HOH      O 4686   2.914   2.145   2.318
 1500HOH     H1 4687   2.917   2.050   2.306
 1500HOH     H2 4688   2.994   2.165   2.366
 1501HOH      O 4689   0.255   0.083   2.751
 1501HOH     H1 4690   0.216  -0.004   2.751
 1501HOH     H2 4691   0.202   0.133   2.813
 1502HOH      O 4692   2.613   3.340   2.101
 1502HOH     H1 4693   2.583   3.264   2.151
 1502HOH     H2 4694   2.533   3.387   2.079
 1503HOH      O 4695   0.016   1.061   0.141
 1503HOH     H1 4696   0.064   1.039   0.221
 1503HOH     H2 4697   0.084   1.073   0.075
 1504HOH      O 4698   2.175   1.060   0.380
 1504HOH     H1 4699   2.113   1.122   0.418
 1504HOH     H2 4700   2.164   1.070   0.285
 1505HOH      O 4701   3.095   1.225   3.792
 1505HOH     H1 4702   3.183   1.197   3.816
 1505HOH     H2 4703   3.069   1.287   3.860
 1506HOH      O 4704   3.513   0.303   0.994
 1506HOH     H1 4705   3.464   0.248   1.056
 1506HOH     H2 4706   3.527   0.385   1.042
 1507HOH      O 4707   0.470   1.825   1.561
 1507HOH     H1 4708   0.432   1.868   1.637
 1507HOH     H2 4709   0.561   1.810   1.585
 1508HOH      O 4710   0.121   2.584   1.029
 1508HOH     H1 4711   0.101   2.652   1.093
 1508HOH     H2 4712   0.084   2.617   0.947
 1509HOH      O 4713   1.297   0.711   1.012
 1509HOH     H1 4714   1.244   0.699   0.933
 1509HOH     H2 4715   1.374   0.656   0.997
 1510HOH      O 4716   0.637   3.221   1.737
 1510HOH     H1 4717   0.638   3.250   1.828
 1510HOH     H2 4718   0.729   3.226   1.710
 1511HOH      O 4719   0.987   0.628   3.188
 1511HOH     H1 4720   0.967   0.576   3.265
 1511HOH     H2 4721   0.921   0.602   3.123
 1512HOH      O 4722   3.603   0.292   0.547
 1512HOH     H1 4723   3.688   0.302   0.589
 1512HOH     H2 4724   3.559   0.375   0.562
 1513HOH      O 4725   3.311   2.054   3.132
 1513HOH     H1 4726   3.307   1.977   3.075
 1513HOH     H2 4727   3.222   2.088   3.133
 1514HOH      O 4728   2.872   1.067   0.036
 1514HOH     H1 4729   2.845   1.011  -0.037
 1514HOH     H2 4730   2.814   1.041   0.108
 1515HOH      O 4731   1.940   2.718   0.869
 1515HOH     H1 4732   1.960   2.809   0.892
 1515HOH     H2 4733   2.004   2.666   0.918
 1516HOH      O 4734   4.013   0.850   3.551
 1516HOH     H1 4735   3.930   0.850   3.599
 1516HOH     H2 4736   4.078   0.821   3.615
 1517HOH      O 4737   0.764   1.391   1.480
 1517HOH     H1 4738   0.724   1.470   1.445
 1517HOH     H2 4739   0.854   1.394   1.449
 1518HOH      O 4740   2.662   1.715   0.894
 1518HOH     H1 4741   2.719   1.780   0.852
 1518HOH     H2 4742   2.696   1.705   0.982
 1519HOH      O 4743   1.511   3.537   3.596
 1519HOH     H1 4744   1.489   3.619   3.640
 1519HOH     H2 4745   1.577   3.561   3.531
 1520HOH      O 4746   0.724   0.330   3.886
 1520HOH     H1 4747   0.632   0.303   3.892
 1520HOH     H2 4748   0.730   0.374   3.802
 1521HOH      O 4749   2.918   1.254   3.589
 1521HOH     H1 4750   2.938   1.275   3.680
 1521HOH     H2 4751   2.996   1.208   3.557
 1522HOH      O 4752   2.191   2.208   0.070
 1522HOH     H1 4753   2.231   2.122   0.078
 1522HOH     H2 4754   2.139   2.219   0.150
 1523HOH      O 4755   3.530   1.957   2.239
 1523HOH     H1 4756   3.486   1.875   2.219
 1523HOH     H2 4757   3.598   1.933   2.302
 1524HOH      O 4758   0.048   0.250   3.701
 1524HOH     H1 4759  -0.022   0.262   3.636
 1524HOH     H2 4760   0.112   0.318   3.680
 1525HOH      O 4761   2.080   1.043   2.300
 1525HOH     H1 4762   2.151   0.979   2.296
 1525HOH     H2 4763   2.115   1.113   2.355
 1526HOH      O 4764   3.017   1.548   3.609
 1526HOH     H1 4765   3.042   1.558   3.701
 1526HOH     H2 4766   3.040   1.457   3.589
 1527HOH      O 4767   1.726   3.709   3.876
 1527HOH     H1 4768   1.747   3.781   3.935
 1527HOH     H2 4769   1.752   3.741   3.789
 1528HOH      O 4770   2.724   2.486   1.901
 1528HOH     H1 4771   2.672   2.515   1.976
 1528HOH     H2 4772   2.769   2.408   1.932
 1529HOH      O 4773   2.069   1.623   1.160
 1529HOH     H1 4774   2.014   1.619   1.238
 1529HOH     H2 4775   2.016   1.669   1.095
 1530HOH      O 4776   2.570   1.038   3.466
 1530HOH     H1 4777   2.534   0.979   3.533
 1530HOH     H2 4778   2.496   1.057   3.408
 1531HOH      O 4779   0.482   1.380   0.790
 1531HOH     H1 4780   0.539   1.380   0.714
 1531HOH     H2 4781   0.431   1.461   0.782
 1532HOH      O 4782   3.859   1.535   0.385
 1532HOH     H1 4783   3.919   1.461   0.378
 1532HOH     H2 4784   3.817   1.540   0.299
 1533HOH      O 4785   0.500   2.689   2.145
 1533HOH     H1 4786   0.461   2.738   2.217
 1533HOH     H2 4787   0.592   2.680   2.169
 1534HOH      O 4788   3.164   3.035   0.975
 1534HOH     H1 4789   3.209   2.978   1.038
 1534HOH     H2 4790   3.098   2.979   0.934
 1535HOH      O 4791   3.488   2.564   1.047
 1535HOH     H1 4792   3.517   2.533   0.961
 1535HOH     H2 4793   3.414   2.508   1.069
 1536HOH      O 4794   2.634   0.336   1.426
 1536HOH     H1 4795   2.545   0.368   1.441
 1536HOH     H2 4796   2.624   0.242   1.413
 1537HOH      O 4797   0.384   3.166   0.687
 1537HOH     H1 4798   0.308   3.205   0.731
 1537HOH     H2 4799   0.424   3.111   0.754
 1538HOH      O 4800   1.455   2.222   0.908
 1538HOH     H1 4801   1.449   2.317   0.894
 1538HOH     H2 4802   1.394   2.204   0.979
 1539HOH      O 4803   0.026   0.446   2.454
 1539HOH     H1 4804   0.060   0.535   2.463
 1539HOH     H2 4805   0.084   0.392   2.508
 1540HOH      O 4806   0.056   2.798   2.076
 1540HOH     H1 4807   0.083   2.813   2.167
 1540HOH     H2 4808  -0.010   2.866   2.059
 1541HOH      O 4809   0.186   0.332   2.234
 1541HOH     H1 4810   0.169   0.368   2.147
 1541HOH     H2 4811   0.193   0.410   2.290
 1542HOH      O 4812   0.917   3.155   1.158
 1542HOH     H1 4813   0.878   3.236   1.191
 1542HOH     H2 4814   1.005   3.155   1.194
 1543HOH      O 4815   0.959   0.289   0.583
 1543HOH     H1 4816   0.888   0.238   0.621
 1543HOH     H2 4817   0.968   0.364   0.642
 1544HOH      O 4818   3.268   1.192   3.284
 1544HOH     H1 4819   3.254   1.287   3.288
 1544HOH     H2 4820   3.362   1.181   3.291
 1545HOH      O 4821   1.880   2.953   1.076
 1545HOH     H1 4822   1.960   2.911   1.044
 1545HOH     H2 4823   1.911   3.032   1.119
 1546HOH      O 4824   2.510   0.602   0.536
 1546HOH     H1 4825   2.426   0.577   0.574
 1546HOH     H2 4826   2.563   0.522   0.538
 1547HOH      O 4827   3.057   0.604   0.568
 1547HOH     H1 4828   3.008   0.625   0.648
 1547HOH     H2 4829   3.035   0.513   0.549
 1548HOH      O 4830   3.304   1.925   1.227
 1548HOH     H1 4831   3.341   1.995   1.280
 1548HOH     H2 4832   3.216   1.956   1.205
 1549HOH      O 4833   2.226   3.268   0.840
 1549HOH     H1 4834   2.144   3.313   0.820
 1549HOH     H2 4835   2.200   3.196   0.898
 1550HOH      O 4836   3.492   2.264   3.479
 1550HOH     H1 4837   3.457   2.193   3.427
 1550HOH     H2 4838   3.421   2.328   3.484
 1551HOH      O 4839   1.903   2.271   0.026
 1551HOH     H1 4840   1.919   2.292   0.118
 1551HOH     H2 4841   1.987   2.235  -0.004
 1552HOH      O 4842   0.879   3.278   2.343
 1552HOH     H1 4843   0.860   3.184   2.343
 1552HOH     H2 4844   0.936   3.290   2.420
 1553HOH      O 4845   0.821   2.292   0.278
 1553HOH     H1 4846   0.798   2.264   0.190
 1553HOH     H2 4847   0.745   2.341   0.309
 1554HOH      O 4848   3.306   0.699   1.073
 1554HOH     H1 4849   3.227   0.649   1.054
 1554HOH     H2 4850   3.365   0.637   1.115
 1555HOH      O 4851   1.277   1.797   1.003
 1555HOH     H1 4852   1.332   1.842   1.068
 1555HOH     H2 4853   1.270   1.707   1.035
 1556HOH      O 4854   1.689   3.677   1.498
 1556HOH     H1 4855   1.775   3.664   1.538
 1556HOH     H2 4856   1.628   3.678   1.572
 1557HOH      O 4857   0.540   0.753   0.471
 1557HOH     H1 4858   0.534   0.789   0.382
 1557HOH     H2 4859   0.563   0.828   0.526
 1558HOH      O 4860   2.603   1.900   1.320
 1558HOH     H1 4861   2.583   1.989   1.290
 1558HOH     H2 4862   2.518   1.864   1.345
 1559HOH      O 4863   0.680   3.615   2.952
 1559HOH     H1 4864   0.604   3.588   3.003
 1559HOH     H2 4865   0.643   3.662   2.877
 1560HOH      O 4866   2.712   2.924   3.406
 1560HOH     H1 4867   2.663   2.933   3.488
 1560HOH     H2 4868   2.753   3.010   3.393
 1561HOH      O 4869   2.917   1.950   1.772
 1561HOH     H1 4870   2.945   2.039   1.751
 1561HOH     H2 4871   2.994   1.909   1.811
 1562HOH      O 4872   3.196   1.657   1.305
 1562HOH     H1 4873   3.201   1.752   1.293
 1562HOH     H2 4874   3.252   1.621   1.236
 1563HOH      O 4875   3.634   3.980   2.086
 1563HOH     H1 4876   3.572   4.031   2.137
 1563HOH     H2 4877   3.619   3.890   2.113
 1564HOH      O 4878   3.699   2.308   1.006
 1564HOH     H1 4879   3.710   2.392   1.051
 1564HOH     H2 4880   3.760   2.311   0.933
 1565HOH      O 4881   1.290   3.204   3.667
 1565HOH     H1 4882   1.230   3.278   3.667
 1565HOH     H2 4883   1.248   3.138   3.722
 1566HOH      O 4884   2.117   2.294   1.808
 1566HOH     H1 4885   2.086   2.213   1.849
 1566HOH     H2 4886   2.205   2.307   1.844
 1567HOH      O 4887   3.478   0.869   2.908
 1567HOH     H1 4888   3.518   0.819   2.836
 1567HOH     H2 4889   3.395   0.825   2.925
 1568HOH      O 4890   1.887   0.514   3.906
 1568HOH     H1 4891   1.934   0.592   3.877
 1568HOH     H2 4892   1.797   0.544   3.920
 1569HOH      O 4893   2.742   0.387   0.574
 1569HOH     H1 4894   2.837   0.376   0.586
 1569HOH     H2 4895   2.706   0.300   0.592
 1570HOH      O 4896   3.908   0.894   0.727
 1570HOH     H1 4897   3.870   0.917   0.812
 1570HOH     H2 4898   3.986   0.844   0.749
 1571HOH      O 4899   0.959   3.718   2.636
 1571HOH     H1 4900   1.044   3.752   2.663
 1571HOH     H2 4901   0.948   3.638   2.687
 1572HOH      O 4902   3.463   0.841   1.474
 1572HOH     H1 4903   3.510   0.923   1.463
 1572HOH     H2 4904   3.389   0.864   1.530
 1573HOH      O 4905   1.726   2.923   1.328
 1573HOH     H1 4906   1.721   2.828   1.331
 1573HOH     H2 4907   1.758   2.943   1.240
 1574HOH      O 4908   0.849   2.165   1.562
 1574HOH     H1 4909   0.895   2.221   1.623
 1574HOH     H2 4910   0.777   2.127   1.614
 1575HOH      O 4911   0.911   2.304   1.930
 1575HOH     H1 4912   0.817   2.312   1.920
 1575HOH     H2 4913   0.941   2.266   1.847
 1576HOH      O 4914   2.617   2.698   0.970
 1576HOH     H1 4915   2.710   2.705   0.949
 1576HOH     H2 4916   2.581   2.641   0.901
 1577HOH      O 4917   3.477   1.735   2.550
 1577HOH     H1 4918   3.388   1.707   2.572
 1577HOH     H2 4919   3.486   1.716   2.457
 1578HOH      O 4920   1.596   1.608   3.985
 1578HOH     H1 4921   1.648   1.635   4.061
 1578HOH     H2 4922   1.595   1.512   3.990
 1579HOH      O 4923   1.508   2.519   0.999
 1579HOH     H1 4924   1.552   2.602   1.019
 1579HOH     H2 4925   1.445   2.508   1.070
 1580HOH      O 4926   1.087   3.851   2.398
 1580HOH     H1 4927   1.033   3.889   2.467
 1580HOH     H2 4928   1.046   3.767   2.378
 1581HOH      O 4929   3.985   3.734   3.543
 1581HOH     H1 4930   4.039   3.673   3.593
 1581HOH     H2 4931   3.900   3.692   3.537
 1582HOH      O 4932   0.595   0.318   3.611
 1582HOH     H1 4933   0.575   0.273   3.528
 1582HOH     H2 4934   0.681   0.358   3.596
 1583HOH      O 4935   1.299   3.390   2.420
 1583HOH     H1 4936   1.227   3.440   2.460
 1583HOH     H2 4937   1.303   3.309   2.470
 1584HOH      O 4938   0.807   3.725   0.819
 1584HOH     H1 4939   0.890   3.677   0.822
 1584HOH     H2 4940   0.825   3.806   0.868
 1585HOH      O 4941   2.068   0.133   0.039
 1585HOH     H1 4942   2.026   0.215   0.066
 1585HOH     H2 4943   2.030   0.115  -0.047
 1586HOH      O 4944   1.152   2.240   2.729
 1586HOH     H1 4945   1.218   2.307   2.711
 1586HOH     H2 4946   1.200   2.158   2.723
 1587HOH      O 4947   2.828   2.551   0.298
 1587HOH     H1 4948   2.752   2.609   0.296
 1587HOH     H2 4949   2.902   2.608   0.275
 1588HOH      O 4950   0.217   3.761   1.310
 1588HOH     H1 4951   0.289   3.775   1.372
 1588HOH     H2 4952   0.156   3.703   1.356
 1589HOH      O 4953   0.983   0.525   2.725
 1589HOH     H1 4954   0.985   0.466   2.800
 1589HOH     H2 4955   0.990   0.468   2.648
 1590HOH      O 4956   1.588   2.246   3.647
 1590HOH     H1 4957   1.619   2.196   3.723
 1590HOH     H2 4958   1.492   2.245   3.655
 1591HOH      O 4959   0.670   0.533   0.137
 1591HOH     H1 4960   0.740   0.598   0.142
 1591HOH     H2 4961   0.611   0.566   0.069
 1592HOH      O 4962   3.028   2.060   3.090
 1592HOH     H1 4963   2.979   2.056   3.008
 1592HOH     H2 4964   2.985   2.128   3.141
 1593HOH      O 4965   2.001   3.120   3.250
 1593HOH     H1 4966   1.933   3.178   3.284
 1593HOH     H2 4967   2.078   3.138   3.304
 1594HOH      O 4968   2.277   3.552   1.352
 1594HOH     H1 4969   2.295   3.517   1.439
 1594HOH     H2 4970   2.349   3.612   1.335
 1595HOH      O 4971   3.700   2.170   2.808
 1595HOH     H1 4972   3.614   2.161   2.848
 1595HOH     H2 4973   3.726   2.261   2.826
 1596HOH      O 4974   0.665   1.303   2.122
 1596HOH     H1 4975   0.577   1.266   2.122
 1596HOH     H2 4976   0.652   1.397   2.131
 1597HOH      O 4977   3.892   2.850   3.057
 1597HOH     H1 4978   3.962   2.849   2.991
 1597HOH     H2 4979   3.927   2.904   3.127
 1598HOH      O 4980   0.369   3.135   3.927
 1598HOH     H1 4981   0.348   3.154   4.018
 1598HOH     H2 4982   0.456   3.095   3.931
 1599HOH      O 4983   3.639   2.097   1.224
 1599HOH     H1 4984   3.584   2.160   1.271
 1599HOH     H2 4985   3.662   2.141   1.142
 1600HOH      O 4986   1.797   3.337   2.523
 1600HOH     H1 4987   1.722   3.349   2.580
 1600HOH     H2 4988   1.818   3.424   2.490
 1601HOH      O 4989   3.276   2.825   2.116
 1601HOH     H1 4990   3.363   2.842   2.080
 1601HOH     H2 4991   3.271   2.879   2.194
 1602HOH      O 4992   3.669   1.744   2.890
 1602HOH     H1 4993   3.634   1.807   2.828
 1602HOH     H2 4994   3.623   1.764   2.972
 1603HOH      O 4995   3.374   2.372   0.667
 1603HOH     H1 4996   3.422   2.335   0.593
 1603HOH     H2 4997   3.336   2.453   0.633
 1604HOH      O 4998   0.746   2.063   0.510
 1604HOH     H1 4999   0.688   2.012   0.453
 1604HOH     H2 5000   0.804   2.109   0.450
 1605HOH      O 5001   2.023   3.295   2.042
 1605HOH     H1 5002   1.971   3.281   1.963
 1605HOH     H2 5003   1.998   3.224   2.101
 1606HOH      O 5004   1.802   2.872   2.365
 1606HOH     H1 5005   1.846   2.869   2.451
 1606HOH     H2 5006   1.779   2.781   2.348
 1607HOH      O 5007   1.172   0.531   1.829
 1607HOH     H1 5008   1.115   0.469   1.874
 1607HOH     H2 5009   1.150   0.616   1.866
 1608HOH      O 5010   2.710   0.978   0.241
 1608HOH     H1 5011   2.649   0.906   0.259
 1608HOH     H2 5012   2.781   0.964   0.304
 1609HOH      O 5013   1.327   3.497   1.446
 1609HOH     H1 5014   1.300   3.467   1.532
 1609HOH     H2 5015   1.367   3.419   1.405
 1610HOH      O 5016   2.333   2.650   1.146
 1610HOH     H1 5017   2.329   2.672   1.053
 1610HOH     H2 5018   2.251   2.603   1.163
 1611HOH      O 5019   3.399   1.537   1.769
 1611HOH     H1 5020   3.384   1.532   1.864
 1611HOH     H2 5021   3.457   1.463   1.751
 1612HOH      O 5022   1.007   1.013   0.621
 1612HOH     H1 5023   1.070   0.956   0.576
 1612HOH     H2 5024   1.053   1.041   0.700
 1613HOH      O 5025   2.398   0.255   2.112
 1613HOH     H1 5026   2.380   0.269   2.019
 1613HOH     H2 5027   2.492   0.239   2.117
 1614HOH      O 5028   2.262   0.397   0.344
 1614HOH     H1 5029   2.226   0.484   0.364
 1614HOH     H2 5030   2.298   0.406   0.256
 1615HOH      O 5031   2.591   0.698   3.424
 1615HOH     H1 5032   2.676   0.736   3.401
 1615HOH     H2 5033   2.554   0.672   3.339
 1616HOH      O 5034   0.109   2.980   2.722
 1616HOH     H1 5035   0.025   3.012   2.754
 1616HOH     H2 5036   0.162   3.058   2.709
 1617HOH      O 5037   1.078   2.890   0.792
 1617HOH     H1 5038   1.119   2.967   0.755
 1617HOH     H2 5039   1.019   2.858   0.723
 1618HOH      O 5040   3.641   0.785   3.101
 1618HOH     H1 5041   3.710   0.726   3.071
 1618HOH     H2 5042   3.601   0.819   3.021
 1619HOH      O 5043   2.928   1.546   3.225
 1619HOH     H1 5044   2.935   1.515   3.135
 1619HOH     H2 5045   2.849   1.505   3.259
 1620HOH      O 5046   0.456   1.092   2.122
 1620HOH     H1 5047   0.450   1.020   2.185
 1620HOH     H2 5048   0.480   1.050   2.040
 1621HOH      O 5049   4.023   1.921   3.130
 1621HOH     H1 5050   3.929   1.937   3.126
 1621HOH     H2 5051   4.063   2.007   3.134
 1622HOH      O 5052   1.998   1.515   2.575
 1622HOH     H1 5053   1.949   1.597   2.566
 1622HOH     H2 5054   1.955   1.469   2.647
 1623HOH      O 5055   1.808   0.703   2.891
 1623HOH     H1 5056   1.762   0.633   2.844
 1623HOH     H2 5057   1.794   0.681   2.984
 1624HOH      O 5058   2.491   2.711   2.553
 1624HOH     H1 5059   2.569   2.765   2.560
 1624HOH     H2 5060   2.419   2.768   2.580
 1625HOH      O 5061   1.504   1.935   3.086
 1625HOH     H1 5062   1.502   1.854   3.034
 1625HOH     H2 5063   1.554   1.911   3.164
 1626HOH      O 5064   2.938   1.978   3.384
 1626HOH     H1 5065   2.943   1.994   3.290
 1626HOH     H2 5066   2.970   1.888   3.395
 1627HOH      O 5067   0.857   3.629   1.388
 1627HOH     H1 5068   0.886   3.616   1.478
 1627HOH     H2 5069   0.934   3.608   1.335
 1628HOH      O 5070   3.525   3.631   2.412
 1628HOH     H1 5071   3.445   3.614   2.361
 1628HOH     H2 5072   3.594   3.587   2.362
 1629HOH      O 5073   2.567   2.443   0.654
 1629HOH     H1 5074   2.549   2.422   0.562
 1629HOH     H2 5075   2.549   2.537   0.661
 1630HOH      O 5076   3.802   0.654   0.612
 1630HOH     H1 5077   3.822   0.606   0.693
 1630HOH     H2 5078   3.844   0.739   0.624
 1631HOH      O 5079   0.865   3.977   0.914
 1631HOH     H1 5080   0.943   4.032   0.919
 1631HOH     H2 5081   0.811   4.007   0.987
 1632HOH      O 5082   0.680   1.946   3.334
 1632HOH     H1 5083   0.705   1.984   3.250
 1632HOH     H2 5084   0.592   1.913   3.320
 1633HOH      O 5085   1.177   0.341   0.122
 1633HOH     H1 5086   1.272   0.349   0.116
 1633HOH     H2 5087   1.156   0.373   0.210
 1634HOH      O 5088   0.049   3.420   2.714
 1634HOH     H1 5089  -0.023   3.383   2.766
 1634HOH     H2 5090   0.010   3.495   2.669
 1635HOH      O 5091   2.171   0.429   3.841
 1635HOH     H1 5092   2.226   0.506   3.829
 1635HOH     H2 5093   2.086   0.464   3.866
 1636HOH      O 5094   1.455   3.163   1.016
 1636HOH     H1 5095   1.432   3.192   0.927
 1636HOH     H2 5096   1.500   3.239   1.054
 1637HOH      O 5097   1.770   0.555   3.146
 1637HOH     H1 5098   1.677   0.534   3.158
 1637HOH     H2 5099   1.808   0.548   3.234
 1638HOH      O 5100   2.882   0.395   2.608
 1638HOH     H1 5101   2.865   0.352   2.692
 1638HOH     H2 5102   2.893   0.487   2.630
 1639HOH      O 5103   0.231   2.359   2.626
 1639HOH     H1 5104   0.209   2.280   2.675
 1639HOH     H2 5105   0.159   2.419   2.642
 1640HOH      O 5106   2.996   1.089   2.079
 1640HOH     H1 5107   3.073   1.092   2.135
 1640HOH     H2 5108   2.929   1.138   2.127
 1641HOH      O 5109   0.757   0.871   0.113
 1641HOH     H1 5110   0.832   0.832   0.158
 1641HOH     H2 5111   0.793   0.903   0.030
 1642HOH      O 5112   3.392   1.408   0.616
 1642HOH     H1 5113   3.487   1.410   0.601
 1642HOH     H2 5114   3.360   1.343   0.553
 1643HOH      O 5115   1.404   2.622   3.409
 1643HOH     H1 5116   1.395   2.590   3.320
 1643HOH     H2 5117   1.382   2.715   3.404
 1644HOH      O 5118   0.262   0.998   1.629
 1644HOH     H1 5119   0.357   0.987   1.633
 1644HOH     H2 5120   0.229   0.945   1.702
 1645HOH      O 5121   3.552   2.576   2.317
 1645HOH     H1 5122   3.586   2.653   2.362
 1645HOH     H2 5123   3.504   2.528   2.385
 1646HOH      O 5124   1.531   1.329   2.361
 1646HOH     H1 5125   1.514   1.241   2.393
 1646HOH     H2 5126   1.477   1.338   2.283
 1647HOH      O 5127   1.862   3.800   1.783
 1647HOH     H1 5128   1.948   3.834   1.810
 1647HOH     H2 5129   1.831   3.864   1.719
 1648HOH      O 5130   1.104   2.991   2.227
 1648HOH     H1 5131   1.056   3.025   2.152
 1648HOH     H2 5132   1.057   3.024   2.303
 1649HOH      O 5133   1.667   3.169   2.309
 1649HOH     H1 5134   1.658   3.261   2.283
 1649HOH     H2 5135   1.742   3.168   2.369
 1650HOH      O 5136   0.074   2.660   0.350
 1650HOH     H1 5137   0.071   2.750   0.382
 1650HOH     H2 5138   0.159   2.627   0.377
 1651HOH      O 5139   2.261   0.514   2.163
 1651HOH     H1 5140   2.279   0.466   2.082
 1651HOH     H2 5141   2.182   0.473   2.199
 1652HOH      O 5142   2.573   3.331   1.776
 1652HOH     H1 5143   2.563   3.273   1.700
 1652HOH     H2 5144   2.574   3.419   1.739
 1653HOH      O 5145   3.131   1.996   2.026
 1653HOH     H1 5146   3.087   2.065   2.077
 1653HOH     H2 5147   3.223   2.021   2.026
 1654HOH      O 5148   0.523   2.295   1.241
 1654HOH     H1 5149   0.552   2.384   1.264
 1654HOH     H2 5150   0.566   2.239   1.305
 1655HOH      O 5151   2.709   1.426   2.530
 1655HOH     H1 5152   2.624   1.384   2.544
 1655HOH     H2 5153   2.710   1.446   2.436
 1656HOH      O 5154   1.062   1.272   3.511
 1656HOH     H1 5155   1.063   1.184   3.474
 1656HOH     H2 5156   0.977   1.308   3.486
 1657HOH      O 5157   2.592   3.040   0.252
 1657HOH     H1 5158   2.553   3.112   0.202
 1657HOH     H2 5159   2.685   3.042   0.228
 1658HOH      O 5160   2.549   0.784   2.466
 1658HOH     H1 5161   2.578   0.713   2.409
 1658HOH     H2 5162   2.458   0.800   2.442
 1659HOH      O 5163   1.428   0.228   0.437
 1659HOH     H1 5164   1.474   0.282   0.372
 1659HOH     H2 5165   1.341   0.268   0.443
 1660HOH      O 5166   1.103   2.649   1.506
 1660HOH     H1 5167   1.018   2.654   1.549
 1660HOH     H2 5168   1.135   2.739   1.504
 1661HOH      O 5169   2.967   2.944   1.198
 1661HOH     H1 5170   2.874   2.937   1.220
 1661HOH     H2 5171   3.011   2.886   1.261
 1662HOH      O 5172   2.505   0.554   2.291
 1662HOH     H1 5173   2.432   0.542   2.230
 1662HOH     H2 5174   2.486   0.494   2.363
 1663HOH      O 5175   0.074   3.491   0.863
 1663HOH     H1 5176   0.133   3.512   0.935
 1663HOH     H2 5177  -0.012   3.523   0.893
 1664HOH      O 5178   3.036   3.342   2.915
 1664HOH     H1 5179   3.113   3.380   2.958
 1664HOH     H2 5180   2.987   3.302   2.987
 1665HOH      O 5181   0.753   2.671   3.213
 1665HOH     H1 5182   0.840   2.694   3.244
 1665HOH     H2 5183   0.708   2.755   3.204
 1666HOH      O 5184   0.192   3.841   0.835
 1666HOH     H1 5185   0.282   3.810   0.834
 1666HOH     H2 5186   0.159   3.812   0.921
 1667HOH      O 5187   1.708   0.668   0.334
 1667HOH     H1 5188   1.795   0.628   0.341
 1667HOH     H2 5189   1.708   0.711   0.248
 1668HOH      O 5190   0.089   3.865   1.088
 1668HOH     H1 5191   0.119   3.839   1.176
 1668HOH     H2 5192   0.067   3.958   1.097
 1669HOH      O 5193   1.251   3.816   1.580
 1669HOH     H1 5194   1.198   3.736   1.570
 1669HOH     H2 5195   1.217   3.856   1.660
 1670HOH      O 5196   1.658   3.038   0.657
 1670HOH     H1 5197   1.746   3.027   0.692
 1670HOH     H2 5198   1.670   3.064   0.566
 1671HOH      O 5199   3.196   3.144   0.363
 1671HOH     H1 5200   3.246   3.224   0.345
 1671HOH     H2 5201   3.146   3.128   0.283
 1672HOH      O 5202   1.061   3.799   0.194
 1672HOH     H1 5203   0.974   3.799   0.234
 1672HOH     H2 5204   1.098   3.714   0.217
 1673HOH      O 5205   3.008   1.543   2.321
 1673HOH     H1 5206   2.930   1.546   2.265
 1673HOH     H2 5207   2.973   1.530   2.409
 1674HOH      O 5208   0.326   1.497   2.776
 1674HOH     H1 5209   0.262   1.515   2.845
 1674HOH     H2 5210   0.312   1.566   2.711
 1675HOH      O 5211   0.832   1.452   2.610
 1675HOH     H1 5212   0.806   1.372   2.655
 1675HOH     H2 5213   0.763   1.515   2.630
 1676HOH      O 5214   2.495   2.008   0.458
 1676HOH     H1 5215   2.516   1.925   0.500
 1676HOH     H2 5216   2.399   2.010   0.455
 1677HOH      O 5217   1.831   1.549   1.431
 1677HOH     H1 5218   1.832   1.639   1.398
 1677HOH     H2 5219   1.833   1.559   1.526
 1678HOH      O 5220   3.638   0.627   2.287
 1678HOH     H1 5221   3.678   0.584   2.362
 1678HOH     H2 5222   3.567   0.679   2.324
 1679HOH      O 5223   1.650   3.120   0.117
 1679HOH     H1 5224   1.581   3.184   0.102
 1679HOH     H2 5225   1.646   3.062   0.042
 1680HOH      O 5226   0.673   2.750   2.595
 1680HOH     H1 5227   0.595   2.781   2.640
 1680HOH     H2 5228   0.743   2.809   2.622
 1681HOH      O 5229   1.636   0.278   0.612
 1681HOH     H1 5230   1.566   0.248   0.554
 1681HOH     H2 5231   1.709   0.297   0.553
 1682HOH      O 5232   3.752   0.449   2.483
 1682HOH     H1 5233   3.845   0.473   2.484
 1682HOH     H2 5234   3.745   0.380   2.417
 1683HOH      O 5235   0.364   3.244   2.915
 1683HOH     H1 5236   0.281   3.227   2.958
 1683HOH     H2 5237   0.417   3.290   2.980
 1684HOH      O 5238   0.683   1.137   0.991
 1684HOH     H1 5239   0.714   1.089   1.068
 1684HOH     H2 5240   0.622   1.077   0.948
 1685HOH      O 5241   2.541   0.079   0.225
 1685HOH     H1 5242   2.616   0.107   0.172
 1685HOH     H2 5243   2.575   0.007   0.278
 1686HOH      O 5244   3.822   2.819   3.940
 1686HOH     H1 5245   3.888   2.777   3.996
 1686HOH     H2 5246   3.741   2.774   3.959
 1687HOH      O 5247   0.301   0.582   2.356
 1687HOH     H1 5248   0.387   0.608   2.389
 1687HOH     H2 5249   0.240   0.640   2.401
 1688HOH      O 5250   0.309   3.411   2.393
 1688HOH     H1 5251   0.284   3.321   2.416
 1688HOH     H2 5252   0.299   3.414   2.297
 1689HOH      O 5253   1.072   0.374   2.941
 1689HOH     H1 5254   1.022   0.346   3.018
 1689HOH     H2 5255   1.162   0.384   2.973
 1690HOH      O 5256   0.412   0.546   1.349
 1690HOH     H1 5257   0.340   0.596   1.388
 1690HOH     H2 5258   0.460   0.512   1.424
 1691HOH      O 5259   0.561   2.018   1.395
 1691HOH     H1 5260   0.535   1.948   1.455
 1691HOH     H2 5261   0.644   1.990   1.359
 1692HOH      O 5262   1.472   0.721   0.446
 1692HOH     H1 5263   1.452   0.814   0.445
 1692HOH     H2 5264   1.541   0.710   0.381
 1693HOH      O 5265   3.875   3.593   0.225
 1693HOH     H1 5266   3.832   3.645   0.294
 1693HOH     H2 5267   3.841   3.504   0.238
 1694HOH      O 5268   1.522   0.445   0.263
 1694HOH     H1 5269   1.454   0.512   0.265
 1694HOH     H2 5270   1.602   0.492   0.286
 1695HOH      O 5271   0.380   0.144   3.995
 1695HOH     H1 5272   0.396   0.228   3.952
 1695HOH     H2 5273   0.402   0.159   4.087
 1696HOH      O 5274   0.838   0.225   0.102
 1696HOH     H1 5275   0.782   0.258   0.032
 1696HOH     H2 5276   0.777   0.188   0.166
 1697HOH      O 5277   1.603   2.591   2.963
 1697HOH     H1 5278   1.691   2.566   2.989
 1697HOH     H2 5279   1.604   2.687   2.963
 1698HOH      O 5280   1.145   1.939   1.805
 1698HOH     H1 5281   1.150   1.845   1.822
 1698HOH     H2 5282   1.211   1.978   1.862
 1699HOH      O 5283   1.572   2.952   1.551
 1699HOH     H1 5284   1.623   2.946   1.470
 1699HOH     H2 5285   1.637   2.969   1.619
 1700HOH      O 5286   0.046   0.940   1.453
 1700HOH     H1 5287   0.006   1.012   1.406
 1700HOH     H2 5288   0.119   0.980   1.501
 1701HOH      O 5289   0.131   2.597   3.969
 1701HOH     H1 5290   0.203   2.659   3.968
 1701HOH     H2 5291   0.112   2.580   3.877
 1702HOH      O 5292   3.183   0.209   2.029
 1702HOH     H1 5293   3.236   0.243   1.957
 1702HOH     H2 5294   3.224   0.125   2.050
 1703HOH      O 5295   2.584   0.663   0.051
 1703HOH     H1 5296   2.556   0.702   0.134
 1703HOH     H2 5297   2.680   0.666   0.054
 1704HOH      O 5298   0.115   3.849   1.565
 1704HOH     H1 5299   0.120   3.787   1.639
 1704HOH     H2 5300   0.131   3.934   1.605
 1705HOH      O 5301   2.872   2.572   1.071
 1705HOH     H1 5302   2.783   2.578   1.106
 1705HOH     H2 5303   2.891   2.479   1.069
 1706HOH      O 5304   1.117   1.090   2.877
 1706HOH     H1 5305   1.084   1.003   2.855
 1706HOH     H2 5306   1.122   1.090   2.973
 1707HOH      O 5307   0.271   2.240   1.204
 1707HOH     H1 5308   0.358   2.276   1.218
 1707HOH     H2 5309   0.279   2.148   1.229
 1708HOH      O 5310   1.139   2.859   3.595
 1708HOH     H1 5311   1.084   2.936   3.579
 1708HOH     H2 5312   1.198   2.886   3.665
 1709HOH      O 5313   3.325   2.023   1.510
 1709HOH     H1 5314   3.230   2.039   1.507
 1709HOH     H2 5315   3.332   1.928   1.519
 1710HOH      O 5316   1.503   1.100   0.820
 1710HOH     H1 5317   1.515   1.093   0.914
 1710HOH     H2 5318   1.557   1.174   0.794
 1711HOH      O 5319   2.299   3.254   1.165
 1711HOH     H1 5320   2.307   3.332   1.110
 1711HOH     H2 5321   2.311   3.288   1.254
 1712HOH      O 5322   2.778   1.852   0.385
 1712HOH     H1 5323   2.734   1.933   0.360
 1712HOH     H2 5324   2.782   1.856   0.481
 1713HOH      O 5325   3.002   2.952   2.419
 1713HOH     H1 5326   2.969   3.026   2.367
 1713HOH     H2 5327   2.973   2.971   2.509
 1714HOH      O 5328   3.231   3.414   3.073
 1714HOH     H1 5329   3.247   3.493   3.021
 1714HOH     H2 5330   3.191   3.446   3.153
 1715HOH      O 5331   2.137   3.648   2.503
 1715HOH     H1 5332   2.068   3.670   2.565
 1715HOH     H2 5333   2.216   3.690   2.538
 1716HOH      O 5334   1.857   2.354   0.285
 1716HOH     H1 5335   1.875   2.428   0.344
 1716HOH     H2 5336   1.780   2.382   0.235
 1717HOH      O 5337   3.986   0.981   3.291
 1717HOH     H1 5338   4.022   0.930   3.363
 1717HOH     H2 5339   3.947   0.915   3.233
 1718HOH      O 5340   1.629   2.956   3.924
 1718HOH     H1 5341   1.633   2.962   3.829
 1718HOH     H2 5342   1.540   2.925   3.942
 1719HOH      O 5343   1.715   2.581   1.804
 1719HOH     H1 5344   1.781   2.578   1.734
 1719HOH     H2 5345   1.746   2.650   1.862
 1720HOH      O 5346   3.411   3.516   3.957
 1720HOH     H1 5347   3.489   3.564   3.928
 1720HOH     H2 5348   3.390   3.459   3.883
 1721HOH      O 5349   2.288   2.024   0.749
 1721HOH     H1 5350   2.351   1.976   0.696
 1721HOH     H2 5351   2.341   2.090   0.795
 1722HOH      O 5352   1.412   0.707   3.718
 1722HOH     H1 5353   1.351   0.779   3.699
 1722HOH     H2 5354   1.355   0.632   3.736
 1723HOH      O 5355   3.338   2.558   2.086
 1723HOH     H1 5356   3.412   2.573   2.146
 1723HOH     H2 5357   3.277   2.629   2.106
 1724HOH      O 5358   3.753   1.491   0.146
 1724HOH     H1 5359   3.662   1.480   0.119
 1724HOH     H2 5360   3.801   1.423   0.099
 1725HOH      O 5361   0.443   3.755   0.870
 1725HOH     H1 5362   0.453   3.737   0.964
 1725HOH     H2 5363   0.478   3.676   0.828
 1726HOH      O 5364   0.376   0.693   1.090
 1726HOH     H1 5365   0.412   0.657   1.171
 1726HOH     H2 5366   0.296   0.738   1.118
 1727HOH      O 5367   0.254   3.237   2.639
 1727HOH     H1 5368   0.307   3.247   2.718
 1727HOH     H2 5369   0.176   3.289   2.655
 1728HOH      O 5370   3.859   2.246   0.024
 1728HOH     H1 5371   3.810   2.169   0.054
 1728HOH     H2 5372   3.911   2.273   0.100
 1729HOH      O 5373   0.337   2.855   2.317
 1729HOH     H1 5374   0.320   2.928   2.375
 1729HOH     H2 5375   0.253   2.810   2.310
 1730HOH      O 5376   3.227   1.124   2.218
 1730HOH     H1 5377   3.239   1.129   2.313
 1730HOH     H2 5378   3.291   1.059   2.189
 1731HOH      O 5379   2.535   3.210   3.272
 1731HOH     H1 5380   2.552   3.117   3.287
 1731HOH     H2 5381   2.491   3.240   3.352
 1732HOH      O 5382   3.101   1.064   3.108
 1732HOH     H1 5383   3.142   1.123   3.172
 1732HOH     H2 5384   3.028   1.025   3.155
 1733HOH      O 5385   2.946   2.085   2.721
 1733HOH     H1 5386   2.913   2.173   2.701
 1733HOH     H2 5387   2.894   2.056   2.796
 1734HOH      O 5388   1.827   2.745   2.033
 1734HOH     H1 5389   1.875   2.718   2.111
 1734HOH     H2 5390   1.743   2.775   2.065
 1735HOH      O 5391   0.771   1.443   3.181
 1735HOH     H1 5392   0.680   1.420   3.197
 1735HOH     H2 5393   0.779   1.444   3.086
 1736HOH      O 5394   0.812   0.940   0.441
 1736HOH     H1 5395   0.729   0.941   0.488
 1736HOH     H2 5396   0.877   0.963   0.507
 1737HOH      O 5397   1.507   3.573   1.048
 1737HOH     H1 5398   1.570   3.557   1.119
 1737HOH     H2 5399   1.502   3.668   1.042
 1738HOH      O 5400   0.616   3.306   3.797
 1738HOH     H1 5401   0.570   3.378   3.841
 1738HOH     H2 5402   0.687   3.349   3.750
 1739HOH      O 5403   0.374   3.780   0.448
 1739HOH     H1 5404   0.340   3.817   0.367
 1739HOH     H2 5405   0.452   3.831   0.467
 1740HOH      O 5406   1.628   3.468   2.683
 1740HOH     H1 5407   1.599   3.558   2.671
 1740HOH     H2 5408   1.560   3.428   2.737
 1741HOH      O 5409   1.260   1.292   1.293
 1741HOH     H1 5410   1.238   1.216   1.347
 1741HOH     H2 5411   1.355   1.296   1.294
 1742HOH      O 5412   1.510   3.707   2.989
 1742HOH     H1 5413   1.498   3.794   3.028
 1742HOH     H2 5414   1.436   3.697   2.930
 1743HOH      O 5415   0.222   3.742   2.764
 1743HOH     H1 5416   0.143   3.783   2.729
 1743HOH     H2 5417   0.255   3.689   2.691
 1744HOH      O 5418   1.701   3.895   1.317
 1744HOH     H1 5419   1.663   3.816   1.355
 1744HOH     H2 5420   1.629   3.958   1.315
 1745HOH      O 5421   0.457   3.341   3.450
 1745HOH     H1 5422   0.478   3.266   3.506
 1745HOH     H2 5423   0.538   3.391   3.447
 1746HOH      O 5424   0.290   3.096   0.427
 1746HOH     H1 5425   0.297   3.143   0.510
 1746HOH     H2 5426   0.336   3.014   0.443
 1747HOH      O 5427   0.382   0.771   2.036
 1747HOH     H1 5428   0.319   0.814   2.093
 1747HOH     H2 5429   0.467   0.801   2.068
 1748HOH      O 5430   3.220   1.091   2.859
 1748HOH     H1 5431   3.208   1.078   2.954
 1748HOH     H2 5432   3.207   1.184   2.846
 1749HOH      O 5433   3.929   3.215   1.884
 1749HOH     H1 5434   3.848   3.264   1.871
 1749HOH     H2 5435   3.985   3.244   1.811
 1750HOH      O 5436   2.502   2.113   1.172
 1750HOH     H1 5437   2.419   2.157   1.189
 1750HOH     H2 5438   2.479   2.040   1.115
 1751HOH      O 5439   0.503   2.912   0.782
 1751HOH     H1 5440   0.591   2.944   0.765
 1751HOH     H2 5441   0.514   2.819   0.799
 1752HOH      O 5442   2.348   0.262   3.953
 1752HOH     H1 5443   2.389   0.215   3.881
 1752HOH     H2 5444   2.287   0.322   3.911
 1753HOH      O 5445   3.489   3.857   0.580
 1753HOH     H1 5446   3.414   3.801   0.598
 1753HOH     H2 5447   3.526   3.876   0.666
 1754HOH      O 5448   2.480   3.597   3.411
 1754HOH     H1 5449   2.453   3.677   3.366
 1754HOH     H2 5450   2.535   3.551   3.347
 1755HOH      O 5451   2.465   1.532   0.880
 1755HOH     H1 5452   2.394   1.565   0.936
 1755HOH     H2 5453   2.536   1.595   0.893
 1756HOH      O 5454   3.660   1.817   3.711
 1756HOH     H1 5455   3.704   1.901   3.701
 1756HOH     H2 5456   3.586   1.820   3.650
 1757HOH      O 5457   1.496   3.344   0.407
 1757HOH     H1 5458   1.462   3.388   0.329
 1757HOH     H2 5459   1.526   3.414   0.464
 1758HOH      O 5460   2.440   3.913   1.389
 1758HOH     H1 5461   2.463   3.849   1.322
 1758HOH     H2 5462   2.375   3.969   1.347
 1759HOH      O 5463   0.297   2.740   1.247
 1759HOH     H1 5464   0.353   2.780   1.181
 1759HOH     H2 5465   0.320   2.647   1.244
 1760HOH      O 5466   0.559   0.364   1.219
 1760HOH     H1 5467   0.538   0.342   1.128
 1760HOH     H2 5468   0.509   0.444   1.235
 1761HOH      O 5469   3.872   1.024   0.485
 1761HOH     H1 5470   3.957   1.028   0.441
 1761HOH     H2 5471   3.894   0.999   0.575
 1762HOH      O 5472   2.935   2.293   3.235
 1762HOH     H1 5473   2.950   2.364   3.172
 1762HOH     H2 5474   2.908   2.338   3.315
 1763HOH      O 5475   1.918   0.047   0.290
 1763HOH     H1 5476   1.972   0.069   0.214
 1763HOH     H2 5477   1.972   0.069   0.366
 1764HOH      O 5478   3.455   3.191   0.681
 1764HOH     H1 5479   3.418   3.103   0.692
 1764HOH     H2 5480   3.461   3.202   0.586
 1765HOH      O 5481   1.402   3.794   0.807
 1765HOH     H1 5482   1.317   3.836   0.793
 1765HOH     H2 5483   1.416   3.798   0.902
 1766HOH      O 5484   3.687   2.647   1.924
 1766HOH     H1 5485   3.747   2.643   1.850
 1766HOH     H2 5486   3.744   2.639   2.001
 1767HOH      O 5487   0.447   0.352   2.533
 1767HOH     H1 5488   0.446   0.337   2.439
 1767HOH     H2 5489   0.526   0.405   2.548
 1768HOH      O 5490   3.632   1.336   1.195
 1768HOH     H1 5491   3.705   1.382   1.237
 1768HOH     H2 5492   3.623   1.378   1.110
 1769HOH      O 5493   3.094   0.019   3.668
 1769HOH     H1 5494   3.016  -0.021   3.707
 1769HOH     H2 5495   3.061   0.063   3.590
 1770HOH      O 5496   1.016   0.369   1.544
 1770HOH     H1 5497   1.074   0.338   1.474
 1770HOH     H2 5498   0.944   0.305   1.546
 1771HOH      O 5499   2.956   1.517   0.182
 1771HOH     H1 5500   2.890   1.489   0.118
 1771HOH     H2 5501   3.031   1.460   0.165
 1772HOH      O 5502   2.274   2.337   3.534
 1772HOH     H1 5503   2.306   2.251   3.508
 1772HOH     H2 5504   2.324   2.359   3.612
 1773HOH      O 5505   1.087   0.789   3.669
 1773HOH     H1 5506   1.125   0.702   3.658
 1773HOH     H2 5507   1.162   0.848   3.669
 1774HOH      O 5508   1.332   4.002   1.968
 1774HOH     H1 5509   1.427   3.998   1.973
 1774HOH     H2 5510   1.304   4.004   2.060
 1775HOH      O 5511   3.362   0.438   0.766
 1775HOH     H1 5512   3.402   0.380   0.830
 1775HOH     H2 5513   3.316   0.380   0.706
 1776HOH      O 5514   2.546   1.415   3.882
 1776HOH     H1 5515   2.552   1.487   3.819
 1776HOH     H2 5516   2.453   1.399   3.892
 1777HOH      O 5517   1.143   2.426   0.982
 1777HOH     H1 5518   1.053   2.404   1.008
 1777HOH     H2 5519   1.198   2.389   1.051
 1778HOH      O 5520   1.311   3.855   4.039
 1778HOH     H1 5521   1.249   3.805   4.091
 1778HOH     H2 5522   1.289   3.833   3.948
 1779HOH      O 5523   2.344   1.549   1.547
 1779HOH     H1 5524   2.406   1.527   1.616
 1779HOH     H2 5525   2.284   1.475   1.544
 1780HOH      O 5526   2.831   2.051   1.037
 1780HOH     H1 5527   2.924   2.048   1.059
 1780HOH     H2 5528   2.823   1.998   0.957
 1781HOH      O 5529   3.589   3.041   2.713
 1781HOH     H1 5530   3.580   3.135   2.694
 1781HOH     H2 5531   3.522   2.999   2.660
 1782HOH      O 5532   2.687   3.373   1.034
 1782HOH     H1 5533   2.618   3.336   0.979
 1782HOH     H2 5534   2.733   3.433   0.977
 1783HOH      O 5535   1.502   1.479   1.297
 1783HOH     H1 5536   1.536   1.433   1.374
 1783HOH     H2 5537   1.573   1.477   1.234
 1784HOH      O 5538   3.004   1.731   3.410
 1784HOH     H1 5539   2.967   1.680   3.338
 1784HOH     H2 5540   2.995   1.674   3.486
 1785HOH      O 5541   3.759   3.549   2.274
 1785HOH     H1 5542   3.849   3.536   2.302
 1785HOH     H2 5543   3.743   3.479   2.210
 1786HOH      O 5544   3.779   0.541   0.914
 1786HOH     H1 5545   3.689   0.553   0.886
 1786HOH     H2 5546   3.789   0.601   0.988
 1787HOH      O 5547   2.972   2.741   0.503
 1787HOH     H1 5548   2.897   2.773   0.453
 1787HOH     H2 5549   2.992   2.656   0.464
 1788HOH      O 5550   2.601   3.751   0.121
 1788HOH     H1 5551   2.687   3.709   0.109
 1788HOH     H2 5552   2.622   3.840   0.148
 1789HOH      O 5553   2.081   3.613   0.741
 1789HOH     H1 5554   2.004   3.667   0.720
 1789HOH     H2 5555   2.044   3.528   0.766
 1790HOH      O 5556   3.200   3.649   2.373
 1790HOH     H1 5557   3.158   3.651   2.287
 1790HOH     H2 5558   3.165   3.571   2.416
 1791HOH      O 5559   1.947   1.147   0.921
 1791HOH     H1 5560   1.991   1.201   0.987
 1791HOH     H2 5561   1.904   1.078   0.971
 1792HOH      O 5562   3.806   1.401   3.519
 1792HOH     H1 5563   3.722   1.413   3.473
 1792HOH     H2 5564   3.800   1.314   3.558
 1793HOH      O 5565   0.013   1.541   1.354
 1793HOH     H1 5566   0.022   1.478   1.426
 1793HOH     H2 5567   0.034   1.626   1.394
 1794HOH      O 5568   3.647   2.085   0.156
 1794HOH     H1 5569   3.646   2.018   0.089
 1794HOH     H2 5570   3.679   2.040   0.235
 1795HOH      O 5571   2.359   2.834   3.378
 1795HOH     H1 5572   2.313   2.918   3.382
 1795HOH     H2 5573   2.306   2.776   3.433
 1796HOH      O 5574   1.027   0.871   3.099
 1796HOH     H1 5575   1.025   0.790   3.150
 1796HOH     H2 5576   1.095   0.924   3.140
 1797HOH      O 5577   2.567   3.816   3.569
 1797HOH     H1 5578   2.555   3.773   3.484
 1797HOH     H2 5579   2.506   3.889   3.568
 1798HOH      O 5580   1.135   0.363   1.078
 1798HOH     H1 5581   1.048   0.369   1.118
 1798HOH     H2 5582   1.136   0.434   1.013
 1799HOH      O 5583   2.305   2.585   0.862
 1799HOH     H1 5584   2.321   2.491   0.860
 1799HOH     H2 5585   2.375   2.622   0.808
 1800HOH      O 5586   1.739   2.041   1.075
 1800HOH     H1 5587   1.646   2.031   1.055
 1800HOH     H2 5588   1.749   2.135   1.092
 1801HOH      O 5589   3.954   0.704   2.425
 1801HOH     H1 5590   4.007   0.719   2.503
 1801HOH     H2 5591   3.882   0.766   2.431
 1802HOH      O 5592   0.825   2.495   0.722
 1802HOH     H1 5593   0.830   2.408   0.760
 1802HOH     H2 5594   0.898   2.542   0.762
 1803HOH      O 5595   0.435   3.745   1.130
 1803HOH     H1 5596   0.425   3.653   1.158
 1803HOH     H2 5597   0.364   3.791   1.175
 1804HOH      O 5598   4.022   1.240   3.761
 1804HOH     H1 5599   4.051   1.299   3.691
 1804HOH     H2 5600   3.945   1.196   3.725
 1805HOH      O 5601   3.587   2.767   0.659
 1805HOH     H1 5602   3.663   2.751   0.602
 1805HOH     H2 5603   3.574   2.861   0.654
 1806HOH      O 5604   3.327   3.516   1.244
 1806HOH     H1 5605   3.315   3.430   1.203
 1806HOH     H2 5606   3.374   3.498   1.325
 1807HOH      O 5607   2.864   2.354   0.474
 1807HOH     H1 5608   2.840   2.429   0.419
 1807HOH     H2 5609   2.852   2.385   0.564
 1808HOH      O 5610   1.891   2.092   3.041
 1808HOH     H1 5611   1.877   2.011   3.089
 1808HOH     H2 5612   1.837   2.157   3.086
 1809HOH      O 5613   0.867   2.212   1.295
 1809HOH     H1 5614   0.875   2.194   1.389
 1809HOH     H2 5615   0.866   2.307   1.289
 1810HOH      O 5616   2.193   0.308   0.948
 1810HOH     H1 5617   2.219   0.216   0.950
 1810HOH     H2 5618   2.099   0.307   0.933
 1811HOH      O 5619   3.125   2.765   3.183
 1811HOH     H1 5620   3.039   2.739   3.217
 1811HOH     H2 5621   3.106   2.818   3.107
 1812HOH      O 5622   1.953   1.986   3.508
 1812HOH     H1 5623   1.927   1.930   3.434
 1812HOH     H2 5624   1.896   2.062   3.501
 1813HOH      O 5625   1.575   3.537   3.180
 1813HOH     H1 5626   1.496   3.517   3.231
 1813HOH     H2 5627   1.542   3.582   3.102
 1814HOH      O 5628   0.378   2.609   0.438
 1814HOH     H1 5629   0.439   2.628   0.509
 1814HOH     H2 5630   0.390   2.681   0.376
 1815HOH      O 5631   0.960   3.845   0.601
 1815HOH     H1 5632   0.921   3.822   0.517
 1815HOH     H2 5633   0.887   3.842   0.663
 1816HOH      O 5634   2.860   0.488   1.618
 1816HOH     H1 5635   2.819   0.445   1.543
 1816HOH     H2 5636   2.928   0.427   1.647
 1817HOH      O 5637   1.814   3.631   1.125
 1817HOH     H1 5638   1.852   3.592   1.047
 1817HOH     H2 5639   1.834   3.724   1.117
 1818HOH      O 5640   1.765   1.239   0.726
 1818HOH     H1 5641   1.794   1.308   0.667
 1818HOH     H2 5642   1.829   1.239   0.797
 1819HOH      O 5643   3.966   2.937   3.541
 1819HOH     H1 5644   4.014   3.012   3.504
 1819HOH     H2 5645   3.904   2.977   3.603
 1820HOH      O 5646   2.268   1.668   3.190
 1820HOH     H1 5647   2.317   1.605   3.137
 1820HOH     H2 5648   2.310   1.665   3.276
 1821HOH      O 5649   3.866   3.213   0.978
 1821HOH     H1 5650   3.892   3.300   1.009
 1821HOH     H2 5651   3.789   3.230   0.923
 1822HOH      O 5652   1.681   3.148   0.404
 1822HOH     H1 5653   1.684   3.130   0.310
 1822HOH     H2 5654   1.610   3.212   0.414
 1823HOH      O 5655   3.006   1.587   3.880
 1823HOH     H1 5656   2.927   1.632   3.911
 1823HOH     H2 5657   3.039   1.542   3.958
 1824HOH      O 5658   0.498   2.587   2.896
 1824HOH     H1 5659   0.546   2.547   2.968
 1824HOH     H2 5660   0.510   2.527   2.822
 1825HOH      O 5661   1.063   2.220   1.716
 1825HOH     H1 5662   1.140   2.258   1.674
 1825HOH     H2 5663   1.094   2.136   1.751
 1826HOH      O 5664   3.744   2.673   0.272
 1826HOH     H1 5665   3.778   2.718   0.349
 1826HOH     H2 5666   3.815   2.676   0.208
 1827HOH      O 5667   0.505   3.920   2.120
 1827HOH     H1 5668   0.520   3.847   2.180
 1827HOH     H2 5669   0.466   3.988   2.176
 1828HOH      O 5670   0.937   2.456   3.381
 1828HOH     H1 5671   0.887   2.533   3.356
 1828HOH     H2 5672   1.024   2.490   3.402
 1829HOH      O 5673   0.404   2.775   3.109
 1829HOH     H1 5674   0.475   2.839   3.105
 1829HOH     H2 5675   0.423   2.712   3.040
 1830HOH      O 5676   0.785   0.333   1.783
 1830HOH     H1 5677   0.802   0.246   1.821
 1830HOH     H2 5678   0.842   0.392   1.833
 1831HOH      O 5679   2.830   3.220   0.462
 1831HOH     H1 5680   2.893   3.290   0.479
 1831HOH     H2 5681   2.863   3.175   0.385
 1832HOH      O 5682   1.289   1.845   3.267
 1832HOH     H1 5683   1.346   1.806   3.334
 1832HOH     H2 5684   1.348   1.880   3.201
 1833HOH      O 5685   1.120   3.550   1.295
 1833HOH     H1 5686   1.162   3.528   1.212
 1833HOH     H2 5687   1.192   3.571   1.354
 1834HOH      O 5688   1.517   1.946   0.266
 1834HOH     H1 5689   1.489   1.902   0.185
 1834HOH     H2 5690   1.441   1.998   0.293
 1835HOH      O 5691   3.533   1.973   0.890
 1835HOH     H1 5692   3.516   2.066   0.905
 1835HOH     H2 5693   3.445   1.933   0.889
 1836HOH      O 5694   1.398   3.372   3.867
 1836HOH     H1 5695   1.389   3.304   3.800
 1836HOH     H2 5696   1.481   3.416   3.846
 1837HOH      O 5697   0.991   3.344   1.438
 1837HOH     H1 5698   1.022   3.427   1.402
 1837HOH     H2 5699   1.039   3.278   1.388
 1838HOH      O 5700   0.407   2.845   0.263
 1838HOH     H1 5701   0.412   2.829   0.169
 1838HOH     H2 5702   0.475   2.910   0.280
 1839HOH      O 5703   3.557   0.351   1.948
 1839HOH     H1 5704   3.574   0.446   1.947
 1839HOH     H2 5705   3.524   0.334   2.037
 1840HOH      O 5706   2.204   1.048   0.093
 1840HOH     H1 5707   2.296   1.038   0.115
 1840HOH     H2 5708   2.202   1.051  -0.003
 1841HOH      O 5709   0.807   0.023   1.657
 1841HOH     H1 5710   0.890  -0.020   1.679
 1841HOH     H2 5711   0.832   0.108   1.621
 1842HOH      O 5712   0.204   0.330   2.640
 1842HOH     H1 5713   0.295   0.342   2.611
 1842HOH     H2 5714   0.197   0.237   2.658
 1843HOH      O 5715   3.227   2.809   4.033
 1843HOH     H1 5716   3.235   2.784   3.941
 1843HOH     H2 5717   3.275   2.740   4.080
 1844HOH      O 5718   2.870   1.459   1.184
 1844HOH     H1 5719   2.932   1.459   1.111
 1844HOH     H2 5720   2.807   1.390   1.162
 1845HOH      O 5721   1.369   2.187   1.712
 1845HOH     H1 5722   1.369   2.104   1.664
 1845HOH     H2 5723   1.454   2.226   1.693
 1846HOH      O 5724   2.108   2.521   0.689
 1846HOH     H1 5725   2.030   2.524   0.744
 1846HOH     H2 5726   2.180   2.538   0.750
 1847HOH      O 5727   1.805   0.022   3.960
 1847HOH     H1 5728   1.733   0.082   3.981
 1847HOH     H2 5729   1.788  -0.006   3.870
 1848HOH      O 5730   3.378   3.781   2.642
 1848HOH     H1 5731   3.406   3.872   2.638
 1848HOH     H2 5732   3.411   3.743   2.560
 1849HOH      O 5733   2.527   2.496   2.103
 1849HOH     H1 5734   2.512   2.558   2.174
 1849HOH     H2 5735   2.549   2.414   2.147
 1850HOH      O 5736   0.416   2.077   2.810
 1850HOH     H1 5737   0.444   2.075   2.719
 1850HOH     H2 5738   0.493   2.110   2.857
 1851HOH      O 5739   0.713   0.088   1.078
 1851HOH     H1 5740   0.677   0.049   1.158
 1851HOH     H2 5741   0.764   0.162   1.108
 1852HOH      O 5742   3.014   3.440   0.634
 1852HOH     H1 5743   3.018   3.440   0.730
 1852HOH     H2 5744   3.104   3.456   0.606
 1853HOH      O 5745   2.324   2.257   2.379
 1853HOH     H1 5746   2.287   2.197   2.444
 1853HOH     H2 5747   2.377   2.318   2.429
 1854HOH      O 5748   3.586   1.767   3.186
 1854HOH     H1 5749   3.666   1.735   3.228
 1854HOH     H2 5750   3.521   1.700   3.205
 1855HOH      O 5751   3.319   1.465   2.625
 1855HOH     H1 5752   3.383   1.401   2.656
 1855HOH     H2 5753   3.234   1.425   2.645
 1856HOH      O 5754   0.896   3.255   1.680
 1856HOH     H1 5755   0.959   3.192   1.713
 1856HOH     H2 5756   0.940   3.297   1.606
 1857HOH      O 5757   0.568   1.197   3.961
 1857HOH     H1 5758   0.550   1.291   3.954
 1857HOH     H2 5759   0.526   1.170   4.042
 1858HOH      O 5760   1.620   0.776   1.264
 1858HOH     H1 5761   1.619   0.717   1.188
 1858HOH     H2 5762   1.703   0.758   1.307
 1859HOH      O 5763   2.824   0.144   1.762
 1859HOH     H1 5764   2.867   0.197   1.829
 1859HOH     H2 5765   2.879   0.156   1.684
 1860HOH      O 5766   3.924   3.960   3.104
 1860HOH     H1 5767   3.838   3.933   3.073
 1860HOH     H2 5768   3.905   4.033   3.164
 1861HOH      O 5769   1.879   3.618   2.643
 1861HOH     H1 5770   1.852   3.671   2.719
 1861HOH     H2 5771   1.898   3.532   2.680
 1862HOH      O 5772   3.964   0.368   1.064
 1862HOH     H1 5773   3.912   0.438   1.024
 1862HOH     H2 5774   3.913   0.289   1.049
 1863HOH      O 5775   0.098   2.708   1.501
 1863HOH     H1 5776   0.148   2.753   1.433
 1863HOH     H2 5777   0.160   2.647   1.541
 1864HOH      O 5778   3.834   2.585   0.922
 1864HOH     H1 5779   3.902   2.644   0.887
 1864HOH     H2 5780   3.862   2.498   0.895
 1865HOH      O 5781   0.076   1.390   1.557
 1865HOH     H1 5782   0.168   1.365   1.550
 1865HOH     H2 5783   0.053   1.370   1.648
 1866HOH      O 5784   3.625   0.786   1.903
 1866HOH     H1 5785   3.536   0.806   1.874
 1866HOH     H2 5786   3.670   0.871   1.903
 1867HOH      O 5787   2.404   0.443   0.116
 1867HOH     H1 5788   2.377   0.384   0.046
 1867HOH     H2 5789   2.499   0.448   0.109
 1868HOH      O 5790   1.778   1.998   2.708
 1868HOH     H1 5791   1.782   2.010   2.803
 1868HOH     H2 5792   1.686   1.979   2.691
 1869HOH      O 5793   0.546   2.335   0.959
 1869HOH     H1 5794   0.485   2.261   0.960
 1869HOH     H2 5795   0.575   2.344   1.050
 1870HOH      O 5796   1.820   2.923   3.182
 1870HOH     H1 5797   1.903   2.971   3.176
 1870HOH     H2 5798   1.820   2.886   3.270
 1871HOH      O 5799   3.014   0.326   0.564
 1871HOH     H1 5800   3.075   0.297   0.632
 1871HOH     H2 5801   3.055   0.299   0.482
 1872HOH      O 5802   0.637   1.620   0.484
 1872HOH     H1 5803   0.686   1.571   0.418
 1872HOH     H2 5804   0.670   1.587   0.568
 1873HOH      O 5805   0.802   0.997   3.471
 1873HOH     H1 5806   0.755   1.059   3.527
 1873HOH     H2 5807   0.806   1.041   3.385
 1874HOH      O 5808   3.938   1.809   2.886
 1874HOH     H1 5809   3.922   1.898   2.915
 1874HOH     H2 5810   3.852   1.766   2.892
 1875HOH      O 5811   1.385   0.101   3.670
 1875HOH     H1 5812   1.435   0.153   3.734
 1875HOH     H2 5813   1.443   0.028   3.648
 1876HOH      O 5814   2.040   3.137   3.772
 1876HOH     H1 5815   1.960   3.131   3.720
 1876HOH     H2 5816   2.010   3.138   3.863
 1877HOH      O 5817   1.925   3.141  -0.003
 1877HOH     H1 5818   1.841   3.149   0.042
 1877HOH     H2 5819   1.989   3.134   0.068
 1878HOH      O 5820   0.632   0.878   2.243
 1878HOH     H1 5821   0.685   0.810   2.201
 1878HOH     H2 5822   0.661   0.876   2.335
 1879HOH      O 5823   3.562   0.939   0.923
 1879HOH     H1 5824   3.552   0.847   0.896
 1879HOH     H2 5825   3.493   0.952   0.989
 1880HOH      O 5826   3.827   0.740   1.112
 1880HOH     H1 5827   3.749   0.745   1.167
 1880HOH     H2 5828   3.834   0.827   1.074
 1881HOH      O 5829   3.933   3.658   3.213
 1881HOH     H1 5830   3.881   3.684   3.288
 1881HOH     H2 5831   4.002   3.724   3.207
 1882HOH      O 5832   0.265   3.906   0.229
 1882HOH     H1 5833   0.183   3.873   0.193
 1882HOH     H2 5834   0.298   3.966   0.162
 1883HOH      O 5835   2.403   3.602   0.237
 1883HOH     H1 5836   2.471   3.657   0.199
 1883HOH     H2 5837   2.324   3.657   0.234
 1884HOH      O 5838   2.540   1.149   1.282
 1884HOH     H1 5839   2.609   1.103   1.330
 1884HOH     H2 5840   2.586   1.208   1.222
 1885HOH      O 5841   0.176   1.090   0.675
 1885HOH     H1 5842   0.151   1.008   0.717
 1885HOH     H2 5843   0.105   1.150   0.697
 1886HOH      O 5844   3.668   0.269   3.720
 1886HOH     H1 5845   3.702   0.256   3.809
 1886HOH     H2 5846   3.577   0.240   3.725
 1887HOH      O 5847   1.386   0.092   0.096
 1887HOH     H1 5848   1.297   0.115   0.122
 1887HOH     H2 5849   1.379   0.002   0.064
 1888HOH      O 5850   3.594   2.527   0.786
 1888HOH     H1 5851   3.669   2.540   0.844
 1888HOH     H2 5852   3.582   2.612   0.744
 1889HOH      O 5853   3.565   3.152   3.947
 1889HOH     H1 5854   3.575   3.058   3.932
 1889HOH     H2 5855   3.583   3.192   3.862
 1890HOH      O 5856   1.007   1.128   0.163
 1890HOH     H1 5857   1.005   1.197   0.229
 1890HOH     H2 5858   1.099   1.123   0.137
 1891HOH      O 5859   1.087   1.378   2.015
 1891HOH     H1 5860   1.091   1.473   2.002
 1891HOH     H2 5861   1.004   1.352   1.975
 1892HOH      O 5862   2.570   0.318   0.856
 1892HOH     H1 5863   2.516   0.397   0.860
 1892HOH     H2 5864   2.549   0.279   0.771
 1893HOH      O 5865   1.608   3.946   0.719
 1893HOH     H1 5866   1.543   3.884   0.753
 1893HOH     H2 5867   1.574   3.971   0.633
 1894HOH      O 5868   2.304  -0.017   0.105
 1894HOH     H1 5869   2.374   0.035   0.145
 1894HOH     H2 5870   2.233   0.046   0.092
 1895HOH      O 5871   2.990   3.701   1.190
 1895HOH     H1 5872   3.056   3.766   1.214
 1895HOH     H2 5873   2.983   3.644   1.266
 1896HOH      O 5874   3.634   1.116   0.557
 1896HOH     H1 5875   3.700   1.084   0.496
 1896HOH     H2 5876   3.680   1.120   0.641
 1897HOH      O 5877   3.625   1.645   2.198
 1897HOH     H1 5878   3.648   1.590   2.273
 1897HOH     H2 5879   3.707   1.683   2.170
 1898HOH      O 5880   3.728   1.505   2.402
 1898HOH     H1 5881   3.752   1.428   2.349
 1898HOH     H2 5882   3.803   1.518   2.460
 1899HOH      O 5883   1.854   2.351   0.777
 1899HOH     H1 5884   1.787   2.285   0.762
 1899HOH     H2 5885   1.819   2.431   0.737
 1900HOH      O 5886   0.111   0.966   2.670
 1900HOH     H1 5887   0.040   0.925   2.721
 1900HOH     H2 5888   0.144   1.035   2.727
 1901HOH      O 5889   0.957   2.640   3.734
 1901HOH     H1 5890   1.014   2.715   3.717
 1901HOH     H2 5891   0.944   2.640   3.829
 1902HOH      O 5892   3.356   1.210   1.585
 1902HOH     H1 5893   3.277   1.170   1.622
 1902HOH     H2 5894   3.333   1.301   1.571
 1903HOH      O 5895   1.999   3.528   1.390
 1903HOH     H1 5896   1.966   3.604   1.343
 1903HOH     H2 5897   2.094   3.540   1.390
 1904HOH      O 5898   1.754   1.382   2.210
 1904HOH     H1 5899   1.841   1.361   2.242
 1904HOH     H2 5900   1.695   1.350   2.278
 1905HOH      O 5901   0.425   0.984   3.396
 1905HOH     H1 5902   0.356   1.048   3.378
 1905HOH     H2 5903   0.500   1.037   3.423
 1906HOH      O 5904   3.344   0.525   3.471
 1906HOH     H1 5905   3.309   0.615   3.472
 1906HOH     H2 5906   3.388   0.516   3.556
 1907HOH      O 5907   3.240   0.607   1.393
 1907HOH     H1 5908   3.180   0.640   1.459
 1907HOH     H2 5909   3.260   0.684   1.338
 1908HOH      O 5910   3.011   3.424   1.381
 1908HOH     H1 5911   3.042   3.369   1.310
 1908HOH     H2 5912   2.917   3.405   1.387
 1909HOH      O 5913   2.343   1.621   0.440
 1909HOH     H1 5914   2.436   1.608   0.459
 1909HOH     H2 5915   2.329   1.576   0.357
 1910HOH      O 5916   2.225   1.962   0.450
 1910HOH     H1 5917   2.179   1.923   0.524
 1910HOH     H2 5918   2.189   1.918   0.373
 1911HOH      O 5919   2.865   1.428   3.002
 1911HOH     H1 5920   2.874   1.345   2.953
 1911HOH     H2 5921   2.783   1.465   2.970
 1912HOH      O 5922   0.692   1.582   2.107
 1912HOH     H1 5923   0.655   1.579   2.019
 1912HOH     H2 5924   0.618   1.607   2.163
 1913HOH      O 5925   3.619   2.242   3.736
 1913HOH     H1 5926   3.569   2.276   3.662
 1913HOH     H2 5927   3.707   2.278   3.724
 1914HOH      O 5928   3.386   0.452   3.219
 1914HOH     H1 5929   3.375   0.481   3.310
 1914HOH     H2 5930   3.481   0.455   3.205
 1915HOH      O 5931   1.028   0.359   2.505
 1915HOH     H1 5932   1.106   0.308   2.483
 1915HOH     H2 5933   0.959   0.323   2.448
 1916HOH      O 5934   3.727   3.425   1.595
 1916HOH     H1 5935   3.769   3.411   1.510
 1916HOH     H2 5936   3.734   3.340   1.638
 1917HOH      O 5937   1.500   1.348   3.978
 1917HOH     H1 5938   1.519   1.277   4.041
 1917HOH     H2 5939   1.416   1.323   3.939
 1918HOH      O 5940   0.607   4.023   1.309
 1918HOH     H1 5941   0.529   4.031   1.254
 1918HOH     H2 5942   0.574   3.984   1.390
 1919HOH      O 5943   2.855   0.774   3.108
 1919HOH     H1 5944   2.822   0.852   3.152
 1919HOH     H2 5945   2.803   0.767   3.028
 1920HOH      O 5946   0.295   0.416   0.253
 1920HOH     H1 5947   0.349   0.337   0.263
 1920HOH     H2 5948   0.351   0.478   0.207
 1921HOH      O 5949   2.813   3.993   0.877
 1921HOH     H1 5950   2.828   3.903   0.903
 1921HOH     H2 5951   2.856   4.001   0.792
 1922HOH      O 5952   1.031   1.919   3.318
 1922HOH     H1 5953   1.120   1.887   3.306
 1922HOH     H2 5954   1.035   2.012   3.294
 1923HOH      O 5955   0.141   2.881   0.051
 1923HOH     H1 5956   0.059   2.838   0.076
 1923HOH     H2 5957   0.180   2.908   0.134
 1924HOH      O 5958   1.298   1.527   3.452
 1924HOH     H1 5959   1.319   1.484   3.535
 1924HOH     H2 5960   1.248   1.462   3.403
 1925HOH      O 5961   2.784   2.374   3.474
 1925HOH     H1 5962   2.733   2.405   3.548
 1925HOH     H2 5963   2.725   2.318   3.425
 1926HOH      O 5964   2.870   3.944   1.939
 1926HOH     H1 5965   2.876   4.039   1.929
 1926HOH     H2 5966   2.930   3.924   2.011
 1927HOH      O 5967   3.473   1.282   2.254
 1927HOH     H1 5968   3.435   1.361   2.293
 1927HOH     H2 5969   3.398   1.233   2.220
 1928HOH      O 5970   3.649   3.572   2.675
 1928HOH     H1 5971   3.637   3.613   2.589
 1928HOH     H2 5972   3.743   3.574   2.690
 1929HOH      O 5973   0.848   0.735   3.568
 1929HOH     H1 5974   0.931   0.754   3.611
 1929HOH     H2 5975   0.824   0.816   3.524
 1930HOH      O 5976   0.045   1.831   1.427
 1930HOH     H1 5977   0.098   1.862   1.354
 1930HOH     H2 5978  -0.045   1.847   1.400
 1931HOH      O 5979   0.069   1.968   2.702
 1931HOH     H1 5980   0.052   1.882   2.740
 1931HOH     H2 5981   0.125   2.012   2.767
 1932HOH      O 5982   3.693   0.294   2.764
 1932HOH     H1 5983   3.618   0.305   2.822
 1932HOH     H2 5984   3.688   0.203   2.735
 1933HOH      O 5985   0.483   2.609   0.884
 1933HOH     H1 5986   0.448   2.623   0.972
 1933HOH     H2 5987   0.530   2.526   0.890
 1934HOH      O 5988   2.310   2.760   2.838
 1934HOH     H1 5989   2.349   2.789   2.920
 1934HOH     H2 5990   2.316   2.836   2.780
 1935HOH      O 5991   0.058   0.616   3.436
 1935HOH     H1 5992   0.036   0.703   3.469
 1935HOH     H2 5993   0.109   0.633   3.356
 1936HOH      O 5994   0.968   2.901   0.537
 1936HOH     H1 5995   1.045   2.862   0.495
 1936HOH     H2 5996   0.898   2.838   0.520
 1937HOH      O 5997   3.508   0.466   0.249
 1937HOH     H1 5998   3.527   0.518   0.327
 1937HOH     H2 5999   3.413   0.453   0.251
 1938HOH      O 6000   2.873   0.829   2.181
 1938HOH     H1 6001   2.916   0.909   2.151
 1938HOH     H2 6002   2.780   0.851   2.185
 1939HOH      O 6003   1.587   2.431   3.327
 1939HOH     H1 6004   1.538   2.501   3.370
 1939HOH     H2 6005   1.520   2.369   3.298
 1940HOH      O 6006   1.832   0.456   2.560
 1940HOH     H1 6007   1.799   0.507   2.486
 1940HOH     H2 6008   1.894   0.394   2.521
 1941HOH      O 6009   1.456   1.300   1.740
 1941HOH     H1 6010   1.455   1.204   1.735
 1941HOH     H2 6011   1.513   1.319   1.815
 1942HOH      O 6012   0.961   1.971   2.661
 1942HOH     H1 6013   0.880   2.021   2.654
 1942HOH     H2 6014   1.016   2.005   2.590
 1943HOH      O 6015   0.110   0.490   0.434
 1943HOH     H1 6016   0.167   0.461   0.363
 1943HOH     H2 6017   0.164   0.551   0.485
 1944HOH      O 6018   2.476   1.104   2.334
 1944HOH     H1 6019   2.545   1.102   2.267
 1944HOH     H2 6020   2.439   1.015   2.333
 1945HOH      O 6021   0.691   0.380   2.066
 1945HOH     H1 6022   0.621   0.315   2.061
 1945HOH     H2 6023   0.660   0.445   2.128
 1946HOH      O 6024   1.648   3.283   3.584
 1946HOH     H1 6025   1.586   3.353   3.604
 1946HOH     H2 6026   1.733   3.317   3.613
 1947HOH      O 6027   3.727   3.696   0.451
 1947HOH     H1 6028   3.796   3.714   0.514
 1947HOH     H2 6029   3.664   3.766   0.463
 1948HOH      O 6030   2.376   2.333   1.901
 1948HOH     H1 6031   2.404   2.396   1.967
 1948HOH     H2 6032   2.387   2.248   1.944
 1949HOH      O 6033   0.447   2.368   2.481
 1949HOH     H1 6034   0.360   2.362   2.520
 1949HOH     H2 6035   0.490   2.437   2.530
 1950HOH      O 6036   3.415   1.545   2.907
 1950HOH     H1 6037   3.320   1.532   2.915
 1950HOH     H2 6038   3.428   1.639   2.920
 1951HOH      O 6039   2.900   0.295   1.354
 1951HOH     H1 6040   2.808   0.271   1.365
 1951HOH     H2 6041   2.925   0.258   1.270
 1952HOH      O 6042   3.925   0.832   2.798
 1952HOH     H1 6043   3.889   0.767   2.737
 1952HOH     H2 6044   3.928   0.787   2.882
 1953HOH      O 6045   1.078   1.001   3.447
 1953HOH     H1 6046   0.984   0.989   3.433
 1953HOH     H2 6047   1.104   0.927   3.501
 1954HOH      O 6048   3.361   3.889   3.999
 1954HOH     H1 6049   3.367   3.847   4.085
 1954HOH     H2 6050   3.306   3.829   3.947
 1955HOH      O 6051   1.909   1.161   0.446
 1955HOH     H1 6052   1.941   1.138   0.359
 1955HOH     H2 6053   1.859   1.085   0.474
 1956HOH      O 6054   0.121   2.057   0.590
 1956HOH     H1 6055   0.087   1.977   0.631
 1956HOH     H2 6056   0.054   2.123   0.606
 1957HOH      O 6057   2.427   1.809   0.650
 1957HOH     H1 6058   2.356   1.744   0.653
 1957HOH     H2 6059   2.506   1.757   0.637
 1958HOH      O 6060   3.846   0.817   1.645
 1958HOH     H1 6061   3.934   0.849   1.623
 1958HOH     H2 6062   3.789   0.893   1.632
 1959HOH      O 6063   3.680   0.046   2.667
 1959HOH     H1 6064   3.587   0.066   2.683
 1959HOH     H2 6065   3.682   0.012   2.578
 1960HOH      O 6066   1.710   3.704   2.147
 1960HOH     H1 6067   1.797   3.695   2.186
 1960HOH     H2 6068   1.677   3.786   2.183
 1961HOH      O 6069   3.149   1.800   1.820
 1961HOH     H1 6070   3.159   1.848   1.902
 1961HOH     H2 6071   3.236   1.798   1.782
 1962HOH      O 6072   0.752   2.035   3.069
 1962HOH     H1 6073   0.819   2.071   3.010
 1962HOH     H2 6074   0.773   1.942   3.074
 1963HOH      O 6075   2.624   0.213   1.961
 1963HOH     H1 6076   2.691   0.267   2.002
 1963HOH     H2 6077   2.672   0.157   1.900
 1964HOH      O 6078   1.580   1.707   0.385
 1964HOH     H1 6079   1.563   1.799   0.369
 1964HOH     H2 6080   1.495   1.664   0.373
 1965HOH      O 6081   0.070   0.255   0.599
 1965HOH     H1 6082   0.065   0.246   0.694
 1965HOH     H2 6083   0.163   0.272   0.582
 1966HOH      O 6084   0.242   2.048   3.728
 1966HOH     H1 6085   0.273   2.134   3.756
 1966HOH     H2 6086   0.301   2.024   3.657
 1967HOH      O 6087   3.146   3.865   1.811
 1967HOH     H1 6088   3.168   3.923   1.738
 1967HOH     H2 6089   3.191   3.903   1.886
 1968HOH      O 6090   3.172   2.531   0.367
 1968HOH     H1 6091   3.238   2.561   0.428
 1968HOH     H2 6092   3.199   2.567   0.282
 1969HOH      O 6093   0.805   1.172   3.284
 1969HOH     H1 6094   0.830   1.155   3.193
 1969HOH     H2 6095   0.827   1.264   3.297
 1970HOH      O 6096   1.144   2.142   0.848
 1970HOH     H1 6097   1.129   2.235   0.832
 1970HOH     H2 6098   1.146   2.103   0.761
 1971HOH      O 6099   1.282   0.888   1.672
 1971HOH     H1 6100   1.202   0.877   1.723
 1971HOH     H2 6101   1.255   0.875   1.581
 1972HOH      O 6102   1.859   3.419   3.648
 1972HOH     H1 6103   1.936   3.397   3.700
 1972HOH     H2 6104   1.845   3.512   3.664
 1973HOH      O 6105   1.943   0.223   2.393
 1973HOH     H1 6106   1.869   0.191   2.340
 1973HOH     H2 6107   2.014   0.163   2.373
 1974HOH      O 6108   1.586   2.729   2.167
 1974HOH     H1 6109   1.633   2.661   2.215
 1974HOH     H2 6110   1.494   2.706   2.176
 1975HOH      O 6111   0.322   0.081   1.468
 1975HOH     H1 6112   0.323   0.046   1.379
 1975HOH     H2 6113   0.404   0.050   1.506
 1976HOH      O 6114   0.597   3.980   0.088
 1976HOH     H1 6115   0.547   3.958   0.008
 1976HOH     H2 6116   0.682   3.940   0.074
 1977HOH      O 6117   3.138   1.934   2.610
 1977HOH     H1 6118   3.063   1.986   2.638
 1977HOH     H2 6119   3.201   1.999   2.578
 1978HOH      O 6120   1.600   1.584   2.087
 1978HOH     H1 6121   1.644   1.642   2.150
 1978HOH     H2 6122   1.620   1.496   2.118
 1979HOH      O 6123   2.640   3.703   0.549
 1979HOH     H1 6124   2.568   3.652   0.512
 1979HOH     H2 6125   2.656   3.664   0.634
 1980HOH      O 6126   2.594   3.148   1.540
 1980HOH     H1 6127   2.639   3.065   1.525
 1980HOH     H2 6128   2.502   3.129   1.524
 1981HOH      O 6129   2.192   1.643   1.997
 1981HOH     H1 6130   2.248   1.567   1.984
 1981HOH     H2 6131   2.104   1.607   2.003
 1982HOH      O 6132   1.072   2.499   0.256
 1982HOH     H1 6133   0.980   2.482   0.237
 1982HOH     H2 6134   1.080   2.482   0.350
 1983HOH      O 6135   2.328   3.245   1.445
 1983HOH     H1 6136   2.277   3.173   1.483
 1983HOH     H2 6137   2.310   3.320   1.503
 1984HOH      O 6138   1.965   1.283   1.383
 1984HOH     H1 6139   1.921   1.276   1.299
 1984HOH     H2 6140   1.954   1.375   1.408
 1985HOH      O 6141   2.776   1.138   3.052
 1985HOH     H1 6142   2.692   1.180   3.034
 1985HOH     H2 6143   2.759   1.080   3.126
 1986HOH      O 6144   1.071   2.008   1.077
 1986HOH     H1 6145   1.133   2.035   1.144
 1986HOH     H2 6146   1.097   2.058   0.999
 1987HOH      O 6147   1.728   2.381   2.031
 1987HOH     H1 6148   1.749   2.452   1.971
 1987HOH     H2 6149   1.692   2.312   1.975
 1988HOH      O 6150   0.618   3.944   0.467
 1988HOH     H1 6151   0.687   3.879   0.461
 1988HOH     H2 6152   0.635   4.004   0.394
 1989HOH      O 6153   3.088   0.814   3.901
 1989HOH     H1 6154   3.170   0.787   3.942
 1989HOH     H2 6155   3.065   0.897   3.943
 1990HOH      O 6156   3.979   3.767   2.902
 1990HOH     H1 6157   3.969   3.843   2.959
 1990HOH     H2 6158   3.988   3.693   2.962
 1991HOH      O 6159   3.056   3.563   2.130
 1991HOH     H1 6160   3.074   3.519   2.047
 1991HOH     H2 6161   2.968   3.535   2.154
 1992HOH      O 6162   3.164   0.902   1.354
 1992HOH     H1 6163   3.222   0.949   1.293
 1992HOH     H2 6164   3.078   0.905   1.312
 1993HOH      O 6165   1.487   3.224   0.772
 1993HOH     H1 6166   1.530   3.148   0.733
 1993HOH     H2 6167   1.554   3.292   0.773
 1994HOH      O 6168   0.128   1.017   0.401
 1994HOH     H1 6169   0.144   0.926   0.374
 1994HOH     H2 6170   0.166   1.022   0.489
 1995HOH      O 6171   0.990   1.653   1.573
 1995HOH     H1 6172   1.029   1.597   1.506
 1995HOH     H2 6173   1.025   1.740   1.555
 1996HOH      O 6174   2.378   2.843  -0.021
 1996HOH     H1 6175   2.290   2.865  -0.050
 1996HOH     H2 6176   2.379   2.867   0.072
 1997HOH      O 6177   3.118   2.412   3.915
 1997HOH     H1 6178   3.163   2.331   3.890
 1997HOH     H2 6179   3.025   2.388   3.915
 1998HOH      O 6180   1.978   3.244   1.133
 1998HOH     H1 6181   1.943   3.251   1.222
 1998HOH     H2 6182   2.073   3.257   1.144
 1999HOH      O 6183   0.156   2.444   2.148
 1999HOH     H1 6184   0.129   2.367   2.198
 1999HOH     H2 6185   0.140   2.518   2.206
 2000HOH      O 6186   3.645   1.562   0.556
 2000HOH     H1 6187   3.733   1.558   0.519
 2000HOH     H2 6188   3.592   1.507   0.498
 2001HOH      O 6189   0.347   1.530   3.739
 2001HOH     H1 6190   0.301   1.575   3.668
 2001HOH     H2 6191   0.300   1.556   3.818
 2002HOH      O 6192   3.806   3.516   1.850
 2002HOH     H1 6193   3.734   3.564   1.892
 2002HOH     H2 6194   3.771   3.493   1.764
 2003HOH      O 6195   2.183   0.292   3.586
 2003HOH     H1 6196   2.169   0.200   3.608
 2003HOH     H2 6197   2.186   0.336   3.671
 2004HOH      O 6198   3.220   1.099   0.774
 2004HOH     H1 6199   3.211   1.008   0.801
 2004HOH     H2 6200   3.282   1.096   0.701
 2005HOH      O 6201   2.010   2.689   0.110
 2005HOH     H1 6202   2.069   2.637   0.165
 2005HOH     H2 6203   1.992   2.633   0.034
 2006HOH      O 6204   2.092   3.902   0.782
 2006HOH     H1 6205   2.009   3.929   0.820
 2006HOH     H2 6206   2.084   3.923   0.689
 2007HOH      O 6207   0.652   3.114   2.505
 2007HOH     H1 6208   0.617   3.095   2.591
 2007HOH     H2 6209   0.629   3.206   2.488
 2008HOH      O 6210   0.870   2.467   1.318
 2008HOH     H1 6211   0.839   2.478   1.408
 2008HOH     H2 6212   0.852   2.551   1.276
 2009HOH      O 6213   0.574   3.113   0.108
 2009HOH     H1 6214   0.493   3.147   0.146
 2009HOH     H2 6215   0.606   3.049   0.172
 2010HOH      O 6216   0.321   1.252   3.596
 2010HOH     H1 6217   0.246   1.229   3.541
 2010HOH     H2 6218   0.288   1.321   3.654
 2011HOH      O 6219   0.562   0.980   1.862
 2011HOH     H1 6220   0.656   0.964   1.853
 2011HOH     H2 6221   0.525   0.954   1.777
 2012HOH      O 6222   3.487   2.356   0.399
 2012HOH     H1 6223   3.508   2.426   0.337
 2012HOH     H2 6224   3.452   2.286   0.344
 2013HOH      O 6225   3.020   2.505   3.525
 2013HOH     H1 6226   3.011   2.546   3.612
 2013HOH     H2 6227   2.934   2.468   3.507
 2014HOH      O 6228   1.813   0.326   0.366
 2014HOH     H1 6229   1.829   0.313   0.272
 2014HOH     H2 6230   1.864   0.403   0.389
 2015HOH      O 6231   1.538   3.899   3.624
 2015HOH     H1 6232   1.628   3.895   3.656
 2015HOH     H2 6233   1.492   3.832   3.675
 2016HOH      O 6234   1.437   1.833   4.014
 2016HOH     H1 6235   1.492   1.754   4.011
 2016HOH     H2 6236   1.432   1.861   3.922
 2017HOH      O 6237   2.124   1.971   1.794
 2017HOH     H1 6238   2.145   2.013   1.711
 2017HOH     H2 6239   2.146   1.878   1.781
 2018HOH      O 6240   1.642   1.765   1.111
 2018HOH     H1 6241   1.693   1.829   1.062
 2018HOH     H2 6242   1.646   1.685   1.058
 2019HOH      O 6243   0.889   2.357   3.734
 2019HOH     H1 6244   0.895   2.452   3.721
 2019HOH     H2 6245   0.949   2.320   3.670
 2020HOH      O 6246   3.768   0.180   3.118
 2020HOH     H1 6247   3.722   0.139   3.192
 2020HOH     H2 6248   3.754   0.119   3.045
 2021HOH      O 6249   0.522   3.050   2.742
 2021HOH     H1 6250   0.475   3.092   2.815
 2021HOH     H2 6251   0.459   2.985   2.708
 2022HOH      O 6252   0.411   1.313   1.835
 2022HOH     H1 6253   0.470   1.242   1.860
 2022HOH     H2 6254   0.359   1.276   1.763
 2023HOH      O 6255   0.168   2.481   0.709
 2023HOH     H1 6256   0.206   2.410   0.762
 2023HOH     H2 6257   0.212   2.473   0.625
 2024HOH      O 6258   2.748   2.325   0.856
 2024HOH     H1 6259   2.689   2.396   0.834
 2024HOH     H2 6260   2.834   2.354   0.826
 2025HOH      O 6261   2.507   2.376   3.010
 2025HOH     H1 6262   2.449   2.376   3.086
 2025HOH     H2 6263   2.592   2.402   3.044
 2026HOH      O 6264   1.239   1.826   2.188
 2026HOH     H1 6265   1.149   1.849   2.168
 2026HOH     H2 6266   1.255   1.744   2.142
 2027HOH      O 6267   3.293   1.568   0.346
 2027HOH     H1 6268   3.247   1.485   0.354
 2027HOH     H2 6269   3.327   1.586   0.433
 2028HOH      O 6270   3.010   0.201   2.400
 2028HOH     H1 6271   2.934   0.220   2.454
 2028HOH     H2 6272   2.973   0.166   2.318
 2029HOH      O 6273   2.547   2.407   0.347
 2029HOH     H1 6274   2.471   2.368   0.392
 2029HOH     H2 6275   2.551   2.361   0.263
 2030HOH      O 6276   2.233   2.524   0.210
 2030HOH     H1 6277   2.297   2.510   0.140
 2030HOH     H2 6278   2.251   2.456   0.274
 2031HOH      O 6279   0.149   1.773   1.666
 2031HOH     H1 6280   0.202   1.846   1.696
 2031HOH     H2 6281   0.134   1.791   1.573
 2032HOH      O 6282   0.914   2.698   3.978
 2032HOH     H1 6283   0.969   2.767   4.016
 2032HOH     H2 6284   0.842   2.745   3.936
 2033HOH      O 6285   2.527   3.658   3.769
 2033HOH     H1 6286   2.513   3.696   3.682
 2033HOH     H2 6287   2.517   3.732   3.829
 2034HOH      O 6288   0.285   3.423   2.124
 2034HOH     H1 6289   0.207   3.418   2.069
 2034HOH     H2 6290   0.320   3.510   2.108
 2035HOH      O 6291   3.784   2.192   1.615
 2035HOH     H1 6292   3.766   2.199   1.709
 2035HOH     H2 6293   3.699   2.201   1.574
 2036HOH      O 6294   1.717   3.363   3.024
 2036HOH     H1 6295   1.678   3.435   3.073
 2036HOH     H2 6296   1.772   3.318   3.087
 2037HOH      O 6297   3.460   3.058   1.457
 2037HOH     H1 6298   3.493   2.985   1.509
 2037HOH     H2 6299   3.372   3.074   1.491
 2038HOH      O 6300   2.606   1.103   2.071
 2038HOH     H1 6301   2.637   1.031   2.015
 2038HOH     H2 6302   2.684   1.132   2.117
 2039HOH      O 6303   0.813   1.410   3.500
 2039HOH     H1 6304   0.728   1.428   3.540
 2039HOH     H2 6305   0.851   1.497   3.485
 2040HOH      O 6306   1.140   3.193   1.989
 2040HOH     H1 6307   1.113   3.166   1.901
 2040HOH     H2 6308   1.233   3.171   1.993
 2041HOH      O 6309   1.189   0.355   0.464
 2041HOH     H1 6310   1.214   0.443   0.490
 2041HOH     H2 6311   1.099   0.345   0.494
 2042HOH      O 6312   1.183   2.830   0.377
 2042HOH     H1 6313   1.246   2.762   0.401
 2042HOH     H2 6314   1.229   2.912   0.394
 2043HOH      O 6315   1.234   3.415   0.758
 2043HOH     H1 6316   1.317   3.408   0.709
 2043HOH     H2 6317   1.188   3.334   0.738
 2044HOH      O 6318   3.685   1.831   0.352
 2044HOH     H1 6319   3.728   1.905   0.396
 2044HOH     H2 6320   3.729   1.754   0.387
 2045HOH      O 6321   3.009   3.416   2.377
 2045HOH     H1 6322   2.952   3.403   2.453
 2045HOH     H2 6323   2.951   3.457   2.312
 2046HOH      O 6324   3.266   2.712   2.577
 2046HOH     H1 6325   3.316   2.712   2.658
 2046HOH     H2 6326   3.176   2.697   2.605
 2047HOH      O 6327   0.744   2.501   1.559
 2047HOH     H1 6328   0.800   2.558   1.612
 2047HOH     H2 6329   0.669   2.482   1.615
 2048HOH      O 6330   1.264   0.599   0.227
 2048HOH     H1 6331   1.244   0.677   0.278
 2048HOH     H2 6332   1.217   0.611   0.145
 2049HOH      O 6333   3.473   3.588   3.553
 2049HOH     H1 6334   3.413   3.611   3.482
 2049HOH     H2 6335   3.457   3.655   3.620
 2050HOH      O 6336   2.602   2.205   3.362
 2050HOH     H1 6337   2.604   2.136   3.296
 2050HOH     H2 6338   2.524   2.187   3.414
 2051HOH      O 6339   2.356   1.036   1.984
 2051HOH     H1 6340   2.438   1.039   2.033
 2051HOH     H2 6341   2.298   0.982   2.038
 2052HOH      O 6342   2.926   0.949   0.435
 2052HOH     H1 6343   2.945   1.040   0.412
 2052HOH     H2 6344   2.911   0.950   0.529
 2053HOH      O 6345   2.112   2.867   3.936
 2053HOH     H1 6346   2.064   2.950   3.935
 2053HOH     H2 6347   2.081   2.822   4.014
 2054HOH      O 6348   0.674   0.076   1.924
 2054HOH     H1 6349   0.717   0.026   1.855
 2054HOH     H2 6350   0.635   0.010   1.981
 2055HOH      O 6351   3.589   3.495   0.159
 2055HOH     H1 6352   3.505   3.472   0.121
 2055HOH     H2 6353   3.570   3.569   0.217
 2056HOH      O 6354   2.736   0.960   3.256
 2056HOH     H1 6355   2.676   0.989   3.326
 2056HOH     H2 6356   2.815   0.934   3.302
 2057HOH      O 6357   2.575   2.920   2.111
 2057HOH     H1 6358   2.491   2.876   2.100
 2057HOH     H2 6359   2.639   2.848   2.118
 2058HOH      O 6360   2.263   2.978   3.711
 2058HOH     H1 6361   2.263   2.903   3.770
 2058HOH     H2 6362   2.183   3.025   3.731
 2059HOH      O 6363   3.456   2.257   2.970
 2059HOH     H1 6364   3.412   2.194   3.026
 2059HOH     H2 6365   3.489   2.324   3.030
 2060HOH      O 6366   0.086   0.765   0.832
 2060HOH     H1 6367   0.153   0.763   0.763
 2060HOH     H2 6368   0.078   0.674   0.860
 2061HOH      O 6369   2.734   3.914   1.183
 2061HOH     H1 6370   2.764   3.827   1.205
 2061HOH     H2 6371   2.670   3.900   1.113
 2062HOH      O 6372   3.394   0.909   1.794
 2062HOH     H1 6373   3.450   0.987   1.793
 2062HOH     H2 6374   3.313   0.938   1.751
 2063HOH      O 6375   3.195   0.349   3.777
 2063HOH     H1 6376   3.161   0.418   3.721
 2063HOH     H2 6377   3.213   0.392   3.861
 2064HOH      O 6378   3.736   1.568   2.677
 2064HOH     H1 6379   3.674   1.573   2.603
 2064HOH     H2 6380   3.703   1.631   2.740
 2065HOH      O 6381   3.523   0.223   2.220
 2065HOH     H1 6382   3.615   0.247   2.216
 2065HOH     H2 6383   3.488   0.275   2.292
 2066HOH      O 6384   3.001   1.517   1.412
 2066HOH     H1 6385   2.943   1.481   1.345
 2066HOH     H2 6386   3.068   1.566   1.363
 2067HOH      O 6387   1.603   2.934   1.833
 2067HOH     H1 6388   1.532   2.870   1.839
 2067HOH     H2 6389   1.602   2.979   1.917
 2068HOH      O 6390   0.334   1.274   1.521
 2068HOH     H1 6391   0.304   1.184   1.517
 2068HOH     H2 6392   0.408   1.277   1.459
 2069HOH      O 6393   2.136   1.819   0.228
 2069HOH     H1 6394   2.063   1.843   0.171
 2069HOH     H2 6395   2.119   1.728   0.251
 2070HOH      O 6396   3.866   1.247   1.028
 2070HOH     H1 6397   3.835   1.261   1.118
 2070HOH     H2 6398   3.958   1.270   1.031
 2071HOH      O 6399   2.254   3.789   0.954
 2071HOH     H1 6400   2.200   3.782   0.875
 2071HOH     H2 6401   2.197   3.832   1.018
 2072HOH      O 6402   1.679   3.957   2.295
 2072HOH     H1 6403   1.584   3.944   2.294
 2072HOH     H2 6404   1.706   3.934   2.383
 2073HOH      O 6405   3.150   1.099   3.513
 2073HOH     H1 6406   3.200   1.134   3.440
 2073HOH     H2 6407   3.216   1.081   3.581
 2074HOH      O 6408   2.825   0.804   3.661
 2074HOH     H1 6409   2.911   0.761   3.664
 2074HOH     H2 6410   2.763   0.734   3.681
 2075HOH      O 6411   3.407   2.683   1.382
 2075HOH     H1 6412   3.343   2.696   1.452
 2075HOH     H2 6413   3.481   2.641   1.426
 2076HOH      O 6414   2.367   4.000   3.563
 2076HOH     H1 6415   2.272   3.995   3.565
 2076HOH     H2 6416   2.386   4.058   3.489
 2077HOH      O 6417   0.519   0.894   0.923
 2077HOH     H1 6418   0.456   0.964   0.903
 2077HOH     H2 6419   0.471   0.835   0.981
 2078HOH      O 6420   0.395   0.576   0.054
 2078HOH     H1 6421   0.437   0.615  -0.022
 2078HOH     H2 6422   0.307   0.552   0.024
 2079HOH      O 6423   2.277   3.178   2.677
 2079HOH     H1 6424   2.267   3.240   2.605
 2079HOH     H2 6425   2.248   3.227   2.754
 2080HOH      O 6426   3.883   0.390   2.951
 2080HOH     H1 6427   3.840   0.344   2.879
 2080HOH     H2 6428   3.838   0.358   3.030
 2081HOH      O 6429   0.128   0.830   1.105
 2081HOH     H1 6430   0.102   0.810   1.015
 2081HOH     H2 6431   0.081   0.766   1.158
 2082HOH      O 6432   2.398   2.853   0.247
 2082HOH     H1 6433   2.441   2.783   0.297
 2082HOH     H2 6434   2.445   2.933   0.272
 2083HOH      O 6435   1.929   2.614   3.703
 2083HOH     H1 6436   1.901   2.560   3.777
 2083HOH     H2 6437   2.024   2.625   3.715
 2084HOH      O 6438   2.038   2.803   2.607
 2084HOH     H1 6439   1.961   2.746   2.609
 2084HOH     H2 6440   2.106   2.752   2.651
 2085HOH      O 6441   2.328   0.692   1.445
 2085HOH     H1 6442   2.286   0.745   1.376
 2085HOH     H2 6443   2.345   0.755   1.516
 2086HOH      O 6444   2.308   2.905   2.081
 2086HOH     H1 6445   2.247   2.925   2.010
 2086HOH     H2 6446   2.339   2.990   2.111
 2087HOH      O 6447   2.732   2.551   2.821
 2087HOH     H1 6448   2.647   2.562   2.780
 2087HOH     H2 6449   2.718   2.576   2.912
 2088HOH      O 6450   3.718   3.163   3.137
 2088HOH     H1 6451   3.692   3.236   3.080
 2088HOH     H2 6452   3.812   3.157   3.126
 2089HOH      O 6453   2.385   3.960   2.327
 2089HOH     H1 6454   2.338   4.042   2.309
 2089HOH     H2 6455   2.322   3.891   2.306
 2090HOH      O 6456   0.959   2.190   3.927
 2090HOH     H1 6457   0.917   2.229   3.850
 2090HOH     H2 6458   0.886   2.152   3.976
 2091HOH      O 6459   3.993   3.060   3.234
 2091HOH     H1 6460   4.061   3.022   3.290
 2091HOH     H2 6461   3.991   3.153   3.257
 2092HOH      O 6462   0.866   1.293   0.837
 2092HOH     H1 6463   0.811   1.232   0.885
 2092HOH     H2 6464   0.887   1.248   0.755
 2093HOH      O 6465   3.672   2.376   0.571
 2093HOH     H1 6466   3.610   2.370   0.498
 2093HOH     H2 6467   3.619   2.403   0.646
 2094HOH      O 6468   0.329   1.340   2.097
 2094HOH     H1 6469   0.338   1.247   2.115
 2094HOH     H2 6470   0.332   1.347   2.001
 2095HOH      O 6471   3.531   3.318   2.681
 2095HOH     H1 6472   3.555   3.411   2.686
 2095HOH     H2 6473   3.435   3.318   2.676
 2096HOH      O 6474   1.344   2.900   2.599
 2096HOH     H1 6475   1.360   2.808   2.623
 2096HOH     H2 6476   1.407   2.917   2.529
 2097HOH      O 6477   0.869   0.681   2.129
 2097HOH     H1 6478   0.861   0.627   2.207
 2097HOH     H2 6479   0.869   0.618   2.056
 2098HOH      O 6480   2.761   2.799   0.704
 2098HOH     H1 6481   2.772   2.894   0.704
 2098HOH     H2 6482   2.843   2.766   0.669
 2099HOH      O 6483   3.410   2.113   2.460
 2099HOH     H1 6484   3.494   2.160   2.466
 2099HOH     H2 6485   3.419   2.059   2.381
 2100HOH      O 6486   1.075   3.872   3.884
 2100HOH     H1 6487   1.103   3.963   3.877
 2100HOH     H2 6488   0.985   3.877   3.916
 2101HOH      O 6489   1.285   0.919   1.166
 2101HOH     H1 6490   1.190   0.927   1.174
 2101HOH     H2 6491   1.298   0.843   1.109
 2102HOH      O 6492   1.155   3.682   3.034
 2102HOH     H1 6493   1.177   3.716   2.948
 2102HOH     H2 6494   1.065   3.710   3.048
 2103HOH      O 6495   3.134   0.464   1.107
 2103HOH     H1 6496   3.049   0.509   1.097
 2103HOH     H2 6497   3.164   0.490   1.194
 2104HOH      O 6498   2.721   3.993   2.734
 2104HOH     H1 6499   2.675   3.939   2.797
 2104HOH     H2 6500   2.665   3.992   2.656
 2105HOH      O 6501   0.537   3.635   3.745
 2105HOH     H1 6502   0.556   3.728   3.755
 2105HOH     H2 6503   0.446   3.626   3.772
 2106HOH      O 6504   1.737   1.488   1.157
 2106HOH     H1 6505   1.770   1.407   1.116
 2106HOH     H2 6506   1.788   1.496   1.237
 2107HOH      O 6507   0.186   0.816   1.829
 2107HOH     H1 6508   0.247   0.786   1.897
 2107HOH     H2 6509   0.122   0.746   1.821
 2108HOH      O 6510   2.299   2.686   1.778
 2108HOH     H1 6511   2.389   2.668   1.749
 2108HOH     H2 6512   2.294   2.782   1.779
 2109HOH      O 6513   2.230   3.801   3.378
 2109HOH     H1 6514   2.209   3.889   3.408
 2109HOH     H2 6515   2.147   3.753   3.384
 2110HOH      O 6516   3.573   0.526   2.902
 2110HOH     H1 6517   3.483   0.554   2.918
 2110HOH     H2 6518   3.601   0.487   2.984
 2111HOH      O 6519   1.044   3.111   2.843
 2111HOH     H1 6520   1.045   3.189   2.788
 2111HOH     H2 6521   0.954   3.081   2.842
   4.02727   4.02727   4.02727   0.00000   0.00000   0.00000   0.00000   0.00000   0.00000
