Generated with MDTraj, t= 137.0
 6521
    1MOL     O1    1   2.281   2.321   2.165
    1MOL     O2    2   2.335   2.195   2.328
    1MOL     N1    3   2.322   2.215   2.209
    1MOL     C1    4   2.387   2.117   2.121
    1MOL     C2    5   2.425   1.992   2.166
    1MOL     C3    6   2.404   2.149   1.987
    1MOL     C4    7   2.482   1.898   2.081
    1MOL     C5    8   2.451   2.052   1.899
    1MOL     C6    9   2.493   1.928   1.946
    1MOL     C7   10   2.524   1.765   2.132
    1MOL     O3   11   2.524   1.743   2.252
    1MOL     O4   12   2.550   1.676   2.054
    1MOL     H1   13   2.418   1.969   2.272
    1MOL     H2   14   2.366   2.241   1.944
    1MOL     H3   15   2.458   2.076   1.793
    1MOL     H4   16   2.547   1.861   1.880
    2OCB     C1   17   1.975   2.371   1.835
    2OCB     C2   18   1.913   2.247   2.074
    2OCB     C3   19   1.945   2.445   1.948
    2OCB     C4   20   1.967   2.233   1.844
    2OCB     C5   21   1.932   2.168   1.961
    2OCB     C6   22   1.914   2.385   2.069
    2OCB     O1   23   1.889   2.178   2.191
    2OCB     C7   24   1.895   2.469   2.194
    2OCB     C8   25   2.000   2.169   2.282
    2OCB     O2   26   1.984   2.273   2.381
    2OCB     C9   27   2.053   2.390   2.367
    2OCB    C10   28   2.024   2.487   2.272
    2OCB    C11   29   2.108   2.595   2.250
    2OCB    C12   30   2.170   2.409   2.439
    2OCB    C13   31   2.225   2.610   2.322
    2OCB    C14   32   2.257   2.515   2.418
    2OCB     O3   33   2.374   2.530   2.490
    2OCB    C15   34   2.328   2.718   2.294
    2OCB    C16   35   2.423   2.666   2.188
    2OCB    C17   36   2.540   2.598   2.217
    2OCB    C18   37   2.478   2.470   2.411
    2OCB     O4   38   2.570   2.561   2.346
    2OCB     O5   39   2.007   2.151   1.741
    2OCB    C19   40   2.006   2.446   1.707
    2OCB    C20   41   2.155   2.461   1.688
    2OCB     O6   42   2.172   2.241   1.596
    2OCB    C21   43   2.230   2.360   1.630
    2OCB    C22   44   2.619   2.544   2.117
    2OCB    C23   45   2.588   2.573   1.985
    2OCB    C24   46   2.368   2.366   1.620
    2OCB    C25   47   2.435   2.461   1.695
    2OCB     O7   48   2.674   2.526   1.888
    2OCB     O8   49   2.571   2.450   1.701
    2OCB    C26   50   2.632   2.404   1.824
    2OCB    C27   51   2.224   2.568   1.744
    2OCB    C28   52   2.363   2.567   1.748
    2OCB    C29   53   2.393   2.691   2.055
    2OCB    C30   54   2.442   2.681   1.809
    2OCB    C31   55   2.479   2.653   1.953
    2OCB    C32   56   2.146   2.147   1.702
    2OCB    C33   57   2.268   2.858   2.275
    2OCB    C34   58   2.372   2.964   2.234
    2OCB    C35   59   2.309   3.095   2.273
    2OCB     O9   60   2.231   3.142   2.193
    2OCB    C36   61   1.822   2.602   2.172
    2OCB    C37   62   1.763   2.672   2.295
    2OCB    C38   63   1.636   2.606   2.342
    2OCB    O10   64   1.639   2.516   2.424
    2OCB    C39   65   1.940   2.584   1.689
    2OCB    C40   66   1.938   2.649   1.550
    2OCB    C41   67   1.858   2.573   1.447
    2OCB    O11   68   1.753   2.521   1.477
    2OCB    C42   69   2.374   2.815   1.780
    2OCB    C43   70   2.479   2.924   1.800
    2OCB    C44   71   2.431   3.054   1.740
    2OCB    O12   72   2.358   3.130   1.800
    2OCB    C45   73   2.016   2.037   2.355
    2OCB    C46   74   2.079   1.795   2.471
    2OCB    C47   75   2.065   2.028   2.485
    2OCB    C48   76   2.011   1.920   2.281
    2OCB    C49   77   2.038   1.796   2.338
    2OCB    C50   78   2.100   1.909   2.546
    2OCB    C51   79   2.186   2.008   1.657
    2OCB    C52   80   2.282   1.749   1.610
    2OCB    C53   81   2.278   1.984   1.555
    2OCB    C54   82   2.150   1.901   1.737
    2OCB    C55   83   2.191   1.770   1.711
    2OCB    C56   84   2.320   1.855   1.529
    2OCB    C57   85   2.741   2.300   1.805
    2OCB    C58   86   2.929   2.106   1.778
    2OCB    C59   87   2.842   2.290   1.899
    2OCB    C60   88   2.744   2.224   1.689
    2OCB    C61   89   2.836   2.120   1.676
    2OCB    C62   90   2.937   2.190   1.889
    2OCB    C63   91   2.560   2.373   2.493
    2OCB    C64   92   2.673   2.155   2.615
    2OCB    C65   93   2.649   2.296   2.421
    2OCB    C66   94   2.534   2.349   2.628
    2OCB    C67   95   2.584   2.235   2.687
    2OCB    C68   96   2.704   2.185   2.484
    2OCB    O13   97   2.166   1.673   1.805
    2OCB    O14   98   2.828   2.037   1.568
    2OCB    O15   99   3.028   2.172   1.990
    2OCB    O16  100   2.026   1.678   2.268
    2OCB    O17  101   2.168   1.898   2.665
    2OCB    O18  102   2.791   2.106   2.413
    2OCB    O19  103   2.522   2.203   2.805
    2OCB    C69  104   2.720   2.032   1.484
    2OCB    C70  105   2.517   2.001   1.306
    2OCB    C71  106   2.628   1.932   1.508
    2OCB    C72  107   2.710   2.115   1.373
    2OCB    C73  108   2.609   2.101   1.279
    2OCB    C74  109   2.523   1.919   1.417
    2OCB    O20  110   2.418   1.833   1.435
    2OCB    C75  111   2.001   1.675   2.133
    2OCB    C76  112   1.936   1.688   1.868
    2OCB    C77  113   1.868   1.671   2.096
    2OCB    C78  114   2.102   1.670   2.038
    2OCB    C79  115   2.070   1.682   1.904
    2OCB    C80  116   1.834   1.679   1.961
    2OCB    C81  117   2.996   2.192   2.122
    2OCB    C82  118   2.990   2.217   2.397
    2OCB    C83  119   3.098   2.256   2.190
    2OCB    C84  120   2.887   2.140   2.191
    2OCB    C85  121   2.883   2.162   2.328
    2OCB    C86  122   3.094   2.276   2.327
    2OCB    C87  123   3.198   2.357   2.396
    2OCB    O21  124   3.302   2.390   2.341
    2OCB    C88  125   2.054   2.309   2.881
    2OCB    O22  126   1.942   2.263   2.881
    2OCB    C89  127   1.691   1.689   1.922
    2OCB    O23  128   1.664   1.667   1.806
    2OCB    O24  129   2.344   3.153   2.374
    2OCB    O25  130   2.450   3.071   1.621
    2OCB    O26  131   1.896   2.565   1.332
    2OCB    C90  132   2.606   2.180   1.153
    2OCB    O27  133   2.546   2.142   1.054
    2OCB    O28  134   2.084   2.417   2.927
    2OCB    O29  135   3.186   2.374   2.515
    2OCB    O30  136   2.666   2.285   1.145
    2OCB    O31  137   1.602   1.660   1.999
    2OCB    O32  138   1.526   2.655   2.325
    2OCB    C91  139   2.219   2.004   2.736
    2OCB    C92  140   2.292   2.242   2.845
    2OCB    C93  141   2.353   2.041   2.736
    2OCB    C94  142   2.120   2.089   2.783
    2OCB    C95  143   2.157   2.211   2.836
    2OCB    C96  144   2.392   2.159   2.797
    2OCB    C97  145   2.454   1.948   2.674
    2OCB    C98  146   2.243   1.631   2.074
    2OCB    C99  147   2.640   1.833   1.622
    2OCB      C  148   2.779   2.064   2.118
    2OCB     H1  149   1.946   2.553   1.934
    2OCB     H2  150   1.920   2.060   1.960
    2OCB     H3  151   1.822   2.417   2.257
    2OCB     H4  152   2.090   2.186   2.222
    2OCB     H5  153   2.082   2.664   2.170
    2OCB     H6  154   2.196   2.335   2.515
    2OCB     H7  155   2.393   2.735   2.380
    2OCB     H8  156   2.424   2.413   2.335
    2OCB     H9  157   1.982   2.377   1.627
    2OCB    H10  158   2.703   2.477   2.134
    2OCB    H11  159   2.424   2.288   1.569
    2OCB    H12  160   2.553   2.362   1.888
    2OCB    H13  161   2.182   2.651   1.800
    2OCB    H14  162   2.300   2.741   2.028
    2OCB    H15  163   2.537   2.685   1.755
    2OCB    H16  164   2.204   2.175   1.791
    2OCB    H17  165   2.188   2.857   2.201
    2OCB    H18  166   2.222   2.887   2.370
    2OCB    H19  167   2.469   2.950   2.281
    2OCB    H20  168   2.398   2.963   2.128
    2OCB    H21  169   1.744   2.579   2.100
    2OCB    H22  170   1.876   2.673   2.109
    2OCB    H23  171   1.830   2.683   2.381
    2OCB    H24  172   1.748   2.776   2.264
    2OCB    H25  173   1.839   2.569   1.727
    2OCB    H26  174   1.987   2.654   1.759
    2OCB    H27  175   1.908   2.754   1.557
    2OCB    H28  176   2.037   2.661   1.506
    2OCB    H29  177   2.327   2.815   1.681
    2OCB    H30  178   2.294   2.843   1.849
    2OCB    H31  179   2.505   2.935   1.906
    2OCB    H32  180   2.573   2.894   1.753
    2OCB    H33  181   2.102   1.701   2.521
    2OCB    H34  182   2.083   2.122   2.535
    2OCB    H35  183   1.981   1.924   2.177
    2OCB    H36  184   2.317   1.647   1.590
    2OCB    H37  185   2.321   2.068   1.501
    2OCB    H38  186   2.084   1.909   1.823
    2OCB    H39  187   2.998   2.023   1.777
    2OCB    H40  188   2.840   2.349   1.991
    2OCB    H41  189   2.664   2.247   1.620
    2OCB    H42  190   2.714   2.059   2.646
    2OCB    H43  191   2.663   2.316   2.315
    2OCB    H44  192   2.466   2.412   2.685
    2OCB    H45  193   2.438   1.981   1.233
    2OCB    H46  194   2.789   2.182   1.340
    2OCB    H47  195   1.920   1.682   1.760
    2OCB    H48  196   1.791   1.667   2.173
    2OCB    H49  197   2.985   2.222   2.505
    2OCB    H50  198   3.177   2.300   2.130
    2OCB    H51  199   2.322   2.327   2.905
    2OCB    H52  200   2.014   2.065   2.771
    2OCB    H53  201   2.555   1.960   2.713
    2OCB    H54  202   2.428   1.841   2.672
    2OCB    H55  203   2.462   1.978   2.569
    2OCB    H56  204   2.312   1.622   1.990
    2OCB    H57  205   2.287   1.696   2.150
    2OCB    H58  206   2.244   1.530   2.117
    2OCB    H59  207   2.682   1.737   1.590
    2OCB    H60  208   2.703   1.869   1.703
    2OCB    H61  209   2.542   1.809   1.663
    2OCB    H62  210   2.741   1.994   2.192
    2OCB    H63  211   2.700   2.130   2.081
    2OCB    H64  212   2.816   2.004   2.034
    3Na+    Na+  213   2.345   3.631   2.489
    4Na+    Na+  214   1.976   3.715   3.663
    5Na+    Na+  215   1.282   0.721   1.605
    6Na+    Na+  216   3.040   0.845   2.360
    7Na+    Na+  217   1.633   1.493   0.187
    8Na+    Na+  218   3.103   2.584   2.895
    9Na+    Na+  219   3.091   1.492   3.492
   10Na+    Na+  220   3.368   2.502   0.199
   11Na+    Na+  221   1.433   0.091   2.133
   12HOH      O  222   2.209   3.886   1.675
   12HOH     H1  223   2.196   3.947   1.602
   12HOH     H2  224   2.176   3.802   1.642
   13HOH      O  225   3.399   0.088   3.530
   13HOH     H1  226   3.352   0.056   3.453
   13HOH     H2  227   3.396   0.183   3.522
   14HOH      O  228   2.035   3.626   0.936
   14HOH     H1  229   1.958   3.615   0.881
   14HOH     H2  230   2.000   3.650   1.022
   15HOH      O  231   0.674   2.590   0.350
   15HOH     H1  232   0.651   2.640   0.271
   15HOH     H2  233   0.698   2.503   0.318
   16HOH      O  234   1.129   3.511   2.097
   16HOH     H1  235   1.206   3.517   2.154
   16HOH     H2  236   1.057   3.491   2.156
   17HOH      O  237   3.736   2.687   1.591
   17HOH     H1  238   3.653   2.720   1.627
   17HOH     H2  239   3.759   2.614   1.648
   18HOH      O  240   1.409   2.650   3.890
   18HOH     H1  241   1.353   2.727   3.892
   18HOH     H2  242   1.496   2.684   3.871
   19HOH      O  243   3.914   3.387   1.909
   19HOH     H1  244   3.941   3.469   1.868
   19HOH     H2  245   3.947   3.319   1.850
   20HOH      O  246   1.423   1.573   3.668
   20HOH     H1  247   1.412   1.489   3.713
   20HOH     H2  248   1.335   1.601   3.646
   21HOH      O  249   2.128   0.240   1.081
   21HOH     H1  250   2.213   0.265   1.118
   21HOH     H2  251   2.090   0.182   1.146
   22HOH      O  252   0.332   0.790   1.383
   22HOH     H1  253   0.317   0.837   1.301
   22HOH     H2  254   0.425   0.770   1.383
   23HOH      O  255   2.116   1.957   3.665
   23HOH     H1  256   2.174   1.983   3.737
   23HOH     H2  257   2.032   2.000   3.686
   24HOH      O  258   0.475   0.062   4.025
   24HOH     H1  259   0.488  -0.002   3.956
   24HOH     H2  260   0.508   0.144   3.988
   25HOH      O  261   1.363   0.080   0.815
   25HOH     H1  262   1.348   0.044   0.727
   25HOH     H2  263   1.434   0.027   0.851
   26HOH      O  264   2.878   0.923   2.533
   26HOH     H1  265   2.897   1.003   2.582
   26HOH     H2  266   2.799   0.887   2.575
   27HOH      O  267   0.787   3.372   1.854
   27HOH     H1  268   0.839   3.319   1.915
   27HOH     H2  269   0.752   3.442   1.909
   28HOH      O  270   2.646   0.642   3.465
   28HOH     H1  271   2.677   0.674   3.550
   28HOH     H2  272   2.695   0.562   3.450
   29HOH      O  273   2.361   0.492   0.177
   29HOH     H1  274   2.422   0.558   0.145
   29HOH     H2  275   2.379   0.487   0.271
   30HOH      O  276   2.828   3.123   3.191
   30HOH     H1  277   2.771   3.165   3.255
   30HOH     H2  278   2.911   3.112   3.237
   31HOH      O  279   1.118   2.390   0.401
   31HOH     H1  280   1.152   2.306   0.430
   31HOH     H2  281   1.157   2.454   0.461
   32HOH      O  282   3.260   0.418   3.027
   32HOH     H1  283   3.294   0.495   2.981
   32HOH     H2  284   3.298   0.423   3.114
   33HOH      O  285   1.250   2.898   0.287
   33HOH     H1  286   1.196   2.942   0.352
   33HOH     H2  287   1.207   2.814   0.273
   34HOH      O  288   0.508   2.378   3.895
   34HOH     H1  289   0.542   2.457   3.852
   34HOH     H2  290   0.425   2.360   3.851
   35HOH      O  291   3.223   1.565   1.725
   35HOH     H1  292   3.240   1.579   1.819
   35HOH     H2  293   3.130   1.586   1.715
   36HOH      O  294   2.309   3.390   3.232
   36HOH     H1  295   2.378   3.456   3.222
   36HOH     H2  296   2.228   3.440   3.241
   37HOH      O  297   0.177   0.928   1.117
   37HOH     H1  298   0.137   0.843   1.101
   37HOH     H2  299   0.245   0.937   1.050
   38HOH      O  300   2.780   3.300   3.420
   38HOH     H1  301   2.735   3.320   3.502
   38HOH     H2  302   2.788   3.384   3.376
   39HOH      O  303   0.261   3.313   0.241
   39HOH     H1  304   0.169   3.322   0.216
   39HOH     H2  305   0.258   3.296   0.335
   40HOH      O  306   3.654   3.914   0.414
   40HOH     H1  307   3.558   3.916   0.421
   40HOH     H2  308   3.684   3.975   0.481
   41HOH      O  309   2.026   2.492   0.048
   41HOH     H1  310   2.038   2.479  -0.046
   41HOH     H2  311   2.073   2.574   0.066
   42HOH      O  312   0.857   3.076   3.852
   42HOH     H1  313   0.915   3.068   3.928
   42HOH     H2  314   0.916   3.096   3.780
   43HOH      O  315   1.186   2.638   0.548
   43HOH     H1  316   1.158   2.645   0.456
   43HOH     H2  317   1.134   2.704   0.593
   44HOH      O  318   2.004   0.287   1.720
   44HOH     H1  319   2.083   0.338   1.735
   44HOH     H2  320   1.987   0.244   1.804
   45HOH      O  321   3.019   2.543   3.720
   45HOH     H1  322   3.055   2.454   3.723
   45HOH     H2  323   3.096   2.600   3.719
   46HOH      O  324   0.815   1.472   0.805
   46HOH     H1  325   0.858   1.535   0.862
   46HOH     H2  326   0.728   1.460   0.843
   47HOH      O  327   3.915   2.109   2.821
   47HOH     H1  328   3.838   2.143   2.775
   47HOH     H2  329   3.941   2.179   2.880
   48HOH      O  330   2.157   0.991   3.839
   48HOH     H1  331   2.172   0.897   3.826
   48HOH     H2  332   2.203   1.012   3.920
   49HOH      O  333   2.657   3.930   2.029
   49HOH     H1  334   2.640   3.920   1.936
   49HOH     H2  335   2.614   4.013   2.053
   50HOH      O  336   0.239   1.021   3.743
   50HOH     H1  337   0.226   0.998   3.835
   50HOH     H2  338   0.300   0.955   3.711
   51HOH      O  339   0.942   1.772   1.178
   51HOH     H1  340   1.021   1.809   1.218
   51HOH     H2  341   0.974   1.710   1.113
   52HOH      O  342   0.064   0.626   3.568
   52HOH     H1  343   0.138   0.683   3.549
   52HOH     H2  344   0.009   0.677   3.627
   53HOH      O  345   1.854   3.539   0.027
   53HOH     H1  346   1.768   3.499   0.016
   53HOH     H2  347   1.916   3.470   0.002
   54HOH      O  348   0.101   2.380   0.561
   54HOH     H1  349   0.106   2.302   0.616
   54HOH     H2  350   0.144   2.449   0.612
   55HOH      O  351   1.100   0.932   3.359
   55HOH     H1  352   1.140   1.018   3.348
   55HOH     H2  353   1.145   0.894   3.434
   56HOH      O  354   0.476   2.060   3.022
   56HOH     H1  355   0.558   2.109   3.010
   56HOH     H2  356   0.500   1.969   2.999
   57HOH      O  357   0.658   3.670   3.603
   57HOH     H1  358   0.594   3.729   3.563
   57HOH     H2  359   0.730   3.667   3.541
   58HOH      O  360   4.008   0.736   1.716
   58HOH     H1  361   4.041   0.789   1.643
   58HOH     H2  362   3.922   0.773   1.734
   59HOH      O  363   2.009   3.615   3.044
   59HOH     H1  364   1.914   3.614   3.056
   59HOH     H2  365   2.023   3.562   2.966
   60HOH      O  366   3.269   2.549   2.724
   60HOH     H1  367   3.364   2.550   2.739
   60HOH     H2  368   3.257   2.501   2.643
   61HOH      O  369   3.231   0.821   2.738
   61HOH     H1  370   3.315   0.851   2.772
   61HOH     H2  371   3.236   0.726   2.742
   62HOH      O  372   2.413   3.823   2.583
   62HOH     H1  373   2.485   3.866   2.629
   62HOH     H2  374   2.334   3.865   2.616
   63HOH      O  375   2.379   3.859   1.126
   63HOH     H1  376   2.452   3.903   1.082
   63HOH     H2  377   2.420   3.810   1.197
   64HOH      O  378   2.952   2.542   1.337
   64HOH     H1  379   2.920   2.627   1.368
   64HOH     H2  380   2.898   2.478   1.384
   65HOH      O  381   0.089   3.862   1.057
   65HOH     H1  382   0.184   3.857   1.046
   65HOH     H2  383   0.055   3.865   0.967
   66HOH      O  384   2.734   3.334   2.136
   66HOH     H1  385   2.657   3.318   2.082
   66HOH     H2  386   2.714   3.292   2.220
   67HOH      O  387   2.817   3.994   2.266
   67HOH     H1  388   2.822   3.916   2.322
   67HOH     H2  389   2.785   3.962   2.182
   68HOH      O  390   3.183   2.359   2.959
   68HOH     H1  391   3.149   2.277   2.924
   68HOH     H2  392   3.186   2.344   3.054
   69HOH      O  393   1.282   3.987   0.193
   69HOH     H1  394   1.369   4.025   0.186
   69HOH     H2  395   1.296   3.901   0.233
   70HOH      O  396   0.380   2.081   1.921
   70HOH     H1  397   0.319   2.152   1.940
   70HOH     H2  398   0.454   2.096   1.978
   71HOH      O  399   0.985   2.865   2.221
   71HOH     H1  400   1.043   2.918   2.276
   71HOH     H2  401   0.899   2.905   2.232
   72HOH      O  402   1.033   3.040   0.441
   72HOH     H1  403   0.984   3.069   0.364
   72HOH     H2  404   1.008   3.102   0.510
   73HOH      O  405   0.754   3.062   1.022
   73HOH     H1  406   0.710   3.142   1.051
   73HOH     H2  407   0.683   3.001   1.001
   74HOH      O  408   3.606   0.419   0.459
   74HOH     H1  409   3.669   0.491   0.451
   74HOH     H2  410   3.539   0.452   0.519
   75HOH      O  411   0.766   1.951   2.867
   75HOH     H1  412   0.689   1.912   2.827
   75HOH     H2  413   0.830   1.958   2.796
   76HOH      O  414   3.468   2.222   2.184
   76HOH     H1  415   3.408   2.177   2.124
   76HOH     H2  416   3.411   2.271   2.243
   77HOH      O  417   3.271   3.759   1.230
   77HOH     H1  418   3.202   3.822   1.208
   77HOH     H2  419   3.351   3.811   1.233
   78HOH      O  420   1.380   0.376   1.376
   78HOH     H1  421   1.421   0.351   1.459
   78HOH     H2  422   1.288   0.352   1.387
   79HOH      O  423   0.305   3.389   0.907
   79HOH     H1  424   0.339   3.359   0.822
   79HOH     H2  425   0.254   3.316   0.940
   80HOH      O  426   0.491   0.701   1.678
   80HOH     H1  427   0.549   0.706   1.602
   80HOH     H2  428   0.410   0.744   1.649
   81HOH      O  429   0.478   2.592   1.547
   81HOH     H1  430   0.403   2.564   1.496
   81HOH     H2  431   0.488   2.525   1.614
   82HOH      O  432   2.072   2.954   0.648
   82HOH     H1  433   2.166   2.952   0.663
   82HOH     H2  434   2.034   2.928   0.732
   83HOH      O  435   1.092   0.674   1.744
   83HOH     H1  436   1.103   0.698   1.837
   83HOH     H2  437   1.104   0.580   1.742
   84HOH      O  438   3.752   2.877   3.586
   84HOH     H1  439   3.755   2.800   3.529
   84HOH     H2  440   3.678   2.928   3.553
   85HOH      O  441   1.347   2.699   3.575
   85HOH     H1  442   1.381   2.631   3.517
   85HOH     H2  443   1.417   2.713   3.639
   86HOH      O  444   3.269   1.349   1.551
   86HOH     H1  445   3.213   1.278   1.582
   86HOH     H2  446   3.248   1.423   1.608
   87HOH      O  447   2.874   2.629   0.030
   87HOH     H1  448   2.923   2.707   0.003
   87HOH     H2  449   2.835   2.652   0.114
   88HOH      O  450   2.279   1.588   0.483
   88HOH     H1  451   2.218   1.527   0.523
   88HOH     H2  452   2.230   1.671   0.479
   89HOH      O  453   1.555   0.858   3.348
   89HOH     H1  454   1.624   0.824   3.405
   89HOH     H2  455   1.598   0.921   3.292
   90HOH      O  456   0.412   1.408   3.090
   90HOH     H1  457   0.323   1.396   3.058
   90HOH     H2  458   0.402   1.460   3.170
   91HOH      O  459   0.599   1.282   2.094
   91HOH     H1  460   0.605   1.189   2.073
   91HOH     H2  461   0.546   1.319   2.024
   92HOH      O  462   0.050   2.287   1.412
   92HOH     H1  463   0.139   2.263   1.386
   92HOH     H2  464   0.034   2.235   1.491
   93HOH      O  465   2.887   3.959   2.614
   93HOH     H1  466   2.956   4.022   2.633
   93HOH     H2  467   2.913   3.918   2.532
   94HOH      O  468   3.980   3.353   2.751
   94HOH     H1  469   3.990   3.429   2.808
   94HOH     H2  470   4.033   3.373   2.674
   95HOH      O  471   1.742   0.377   1.754
   95HOH     H1  472   1.835   0.396   1.747
   95HOH     H2  473   1.701   0.462   1.771
   96HOH      O  474   0.675   0.665   3.405
   96HOH     H1  475   0.763   0.636   3.430
   96HOH     H2  476   0.616   0.609   3.455
   97HOH      O  477   0.647   3.053   2.393
   97HOH     H1  478   0.617   3.077   2.480
   97HOH     H2  479   0.689   3.133   2.360
   98HOH      O  480   2.295   2.317   0.650
   98HOH     H1  481   2.373   2.317   0.596
   98HOH     H2  482   2.326   2.296   0.738
   99HOH      O  483   0.704   1.930   1.205
   99HOH     H1  484   0.719   2.004   1.147
   99HOH     H2  485   0.777   1.871   1.188
  100HOH      O  486   0.121   2.533   1.638
  100HOH     H1  487   0.109   2.493   1.553
  100HOH     H2  488   0.082   2.471   1.700
  101HOH      O  489   2.622   2.504   1.299
  101HOH     H1  490   2.559   2.541   1.237
  101HOH     H2  491   2.650   2.422   1.258
  102HOH      O  492   0.815   3.714   3.366
  102HOH     H1  493   0.761   3.743   3.293
  102HOH     H2  494   0.887   3.666   3.326
  103HOH      O  495   3.038   2.220   0.095
  103HOH     H1  496   3.033   2.237   0.189
  103HOH     H2  497   2.947   2.212   0.067
  104HOH      O  498   0.280   3.964   3.558
  104HOH     H1  499   0.198   4.000   3.592
  104HOH     H2  500   0.254   3.882   3.515
  105HOH      O  501   1.316   3.465   2.352
  105HOH     H1  502   1.314   3.423   2.266
  105HOH     H2  503   1.400   3.512   2.355
  106HOH      O  504   2.673   0.905   1.188
  106HOH     H1  505   2.732   0.979   1.173
  106HOH     H2  506   2.632   0.924   1.272
  107HOH      O  507   1.538   3.322   2.692
  107HOH     H1  508   1.586   3.397   2.655
  107HOH     H2  509   1.568   3.247   2.641
  108HOH      O  510   3.488   2.773   1.655
  108HOH     H1  511   3.464   2.750   1.745
  108HOH     H2  512   3.406   2.766   1.606
  109HOH      O  513   1.166   1.358   0.094
  109HOH     H1  514   1.145   1.403   0.176
  109HOH     H2  515   1.194   1.271   0.122
  110HOH      O  516   3.680   2.402   3.616
  110HOH     H1  517   3.708   2.311   3.605
  110HOH     H2  518   3.679   2.438   3.528
  111HOH      O  519   3.928   2.035   1.087
  111HOH     H1  520   3.932   2.008   0.996
  111HOH     H2  521   3.986   2.112   1.092
  112HOH      O  522   3.985   0.131   0.915
  112HOH     H1  523   3.971   0.224   0.898
  112HOH     H2  524   3.904   0.089   0.886
  113HOH      O  525   3.543   3.503   3.296
  113HOH     H1  526   3.603   3.477   3.226
  113HOH     H2  527   3.456   3.492   3.258
  114HOH      O  528   2.573   1.608   3.503
  114HOH     H1  529   2.487   1.621   3.463
  114HOH     H2  530   2.625   1.565   3.435
  115HOH      O  531   2.432   0.055   1.378
  115HOH     H1  532   2.475  -0.029   1.394
  115HOH     H2  533   2.342   0.041   1.409
  116HOH      O  534   2.281   3.325   1.184
  116HOH     H1  535   2.200   3.293   1.144
  116HOH     H2  536   2.330   3.245   1.205
  117HOH      O  537   3.745   2.365   0.432
  117HOH     H1  538   3.714   2.392   0.518
  117HOH     H2  539   3.824   2.417   0.416
  118HOH      O  540   4.004   3.232   0.652
  118HOH     H1  541   4.015   3.327   0.642
  118HOH     H2  542   3.910   3.219   0.657
  119HOH      O  543   1.909   0.708   3.933
  119HOH     H1  544   1.998   0.694   3.901
  119HOH     H2  545   1.921   0.747   4.020
  120HOH      O  546   3.719   3.602   3.730
  120HOH     H1  547   3.735   3.509   3.744
  120HOH     H2  548   3.696   3.608   3.638
  121HOH      O  549   2.739   0.203   0.797
  121HOH     H1  550   2.722   0.156   0.716
  121HOH     H2  551   2.667   0.178   0.855
  122HOH      O  552   1.911   0.927   1.370
  122HOH     H1  553   1.877   0.968   1.291
  122HOH     H2  554   1.955   0.998   1.417
  123HOH      O  555   2.864   0.231   2.242
  123HOH     H1  556   2.844   0.138   2.256
  123HOH     H2  557   2.834   0.249   2.153
  124HOH      O  558   1.694   2.380   2.904
  124HOH     H1  559   1.785   2.357   2.882
  124HOH     H2  560   1.642   2.341   2.833
  125HOH      O  561   1.959   2.402   3.164
  125HOH     H1  562   1.987   2.425   3.075
  125HOH     H2  563   1.905   2.323   3.152
  126HOH      O  564   3.877   0.346   1.176
  126HOH     H1  565   3.892   0.252   1.187
  126HOH     H2  566   3.868   0.358   1.082
  127HOH      O  567   3.167   0.052   0.132
  127HOH     H1  568   3.243   0.037   0.076
  127HOH     H2  569   3.145   0.145   0.119
  128HOH      O  570   3.785   2.644   3.455
  128HOH     H1  571   3.856   2.581   3.469
  128HOH     H2  572   3.802   2.680   3.368
  129HOH      O  573   3.219   0.315   0.052
  129HOH     H1  574   3.238   0.408   0.046
  129HOH     H2  575   3.281   0.273  -0.008
  130HOH      O  576   2.055   1.307   2.393
  130HOH     H1  577   2.109   1.242   2.348
  130HOH     H2  578   2.033   1.371   2.326
  131HOH      O  579   0.814   1.996   1.598
  131HOH     H1  580   0.835   1.919   1.545
  131HOH     H2  581   0.808   1.962   1.688
  132HOH      O  582   3.983   2.335   2.624
  132HOH     H1  583   4.073   2.301   2.626
  132HOH     H2  584   3.972   2.378   2.708
  133HOH      O  585   2.537   0.938   1.404
  133HOH     H1  586   2.559   0.854   1.445
  133HOH     H2  587   2.463   0.970   1.455
  134HOH      O  588   2.281   0.718   0.993
  134HOH     H1  589   2.329   0.635   0.983
  134HOH     H2  590   2.335   0.782   0.947
  135HOH      O  591   3.694   1.389   0.199
  135HOH     H1  592   3.657   1.453   0.139
  135HOH     H2  593   3.763   1.437   0.246
  136HOH      O  594   1.966   2.773   2.631
  136HOH     H1  595   1.934   2.700   2.684
  136HOH     H2  596   2.042   2.806   2.679
  137HOH      O  597   2.440   1.522   2.810
  137HOH     H1  598   2.373   1.475   2.761
  137HOH     H2  599   2.430   1.491   2.901
  138HOH      O  600   3.325   3.744   3.651
  138HOH     H1  601   3.289   3.784   3.572
  138HOH     H2  602   3.409   3.708   3.623
  139HOH      O  603   0.471   0.556   0.694
  139HOH     H1  604   0.474   0.587   0.603
  139HOH     H2  605   0.426   0.472   0.690
  140HOH      O  606   1.726   2.724   0.293
  140HOH     H1  607   1.786   2.650   0.290
  140HOH     H2  608   1.677   2.712   0.374
  141HOH      O  609   1.660   0.627   2.809
  141HOH     H1  610   1.582   0.586   2.770
  141HOH     H2  611   1.699   0.677   2.737
  142HOH      O  612   3.413   3.267   0.174
  142HOH     H1  613   3.332   3.309   0.147
  142HOH     H2  614   3.476   3.339   0.183
  143HOH      O  615   0.649   3.543   2.031
  143HOH     H1  616   0.618   3.551   2.121
  143HOH     H2  617   0.581   3.583   1.978
  144HOH      O  618   2.860   0.689   2.344
  144HOH     H1  619   2.899   0.608   2.377
  144HOH     H2  620   2.822   0.730   2.422
  145HOH      O  621   1.381   1.243   2.749
  145HOH     H1  622   1.414   1.176   2.808
  145HOH     H2  623   1.313   1.288   2.799
  146HOH      O  624   0.931   2.558   1.544
  146HOH     H1  625   0.858   2.607   1.507
  146HOH     H2  626   0.905   2.466   1.535
  147HOH      O  627   3.882   0.390   1.952
  147HOH     H1  628   3.973   0.410   1.973
  147HOH     H2  629   3.832   0.426   2.026
  148HOH      O  630   0.731   1.003   3.938
  148HOH     H1  631   0.769   1.026   4.023
  148HOH     H2  632   0.806   0.995   3.879
  149HOH      O  633   1.485   0.498   3.584
  149HOH     H1  634   1.392   0.483   3.604
  149HOH     H2  635   1.513   0.563   3.649
  150HOH      O  636   1.652   3.877   1.875
  150HOH     H1  637   1.719   3.832   1.824
  150HOH     H2  638   1.687   3.965   1.888
  151HOH      O  639   3.197   0.337   2.495
  151HOH     H1  640   3.283   0.371   2.471
  151HOH     H2  641   3.141   0.358   2.420
  152HOH      O  642   0.428   3.057   1.241
  152HOH     H1  643   0.420   3.101   1.157
  152HOH     H2  644   0.419   2.964   1.220
  153HOH      O  645   1.783   0.495   0.472
  153HOH     H1  646   1.708   0.436   0.476
  153HOH     H2  647   1.853   0.448   0.518
  154HOH      O  648   1.736   3.503   2.564
  154HOH     H1  649   1.821   3.467   2.540
  154HOH     H2  650   1.753   3.553   2.644
  155HOH      O  651   1.631   0.722   1.284
  155HOH     H1  652   1.652   0.720   1.377
  155HOH     H2  653   1.610   0.814   1.267
  156HOH      O  654   0.515   3.991   3.695
  156HOH     H1  655   0.507   3.934   3.771
  156HOH     H2  656   0.434   3.978   3.646
  157HOH      O  657   0.750   2.994   3.520
  157HOH     H1  658   0.742   3.084   3.553
  157HOH     H2  659   0.664   2.955   3.536
  158HOH      O  660   1.120   3.072   3.693
  158HOH     H1  661   1.159   3.076   3.605
  158HOH     H2  662   1.176   3.128   3.746
  159HOH      O  663   2.033   1.754   0.996
  159HOH     H1  664   2.066   1.780   1.082
  159HOH     H2  665   2.097   1.789   0.934
  160HOH      O  666   3.791   0.613   3.621
  160HOH     H1  667   3.783   0.636   3.529
  160HOH     H2  668   3.817   0.521   3.621
  161HOH      O  669   0.771   2.715   2.113
  161HOH     H1  670   0.862   2.745   2.106
  161HOH     H2  671   0.775   2.640   2.172
  162HOH      O  672   2.944   0.610   0.279
  162HOH     H1  673   2.886   0.535   0.269
  162HOH     H2  674   2.926   0.643   0.367
  163HOH      O  675   3.538   2.648   1.045
  163HOH     H1  676   3.580   2.681   1.124
  163HOH     H2  677   3.501   2.563   1.071
  164HOH      O  678   0.064   2.717   0.699
  164HOH     H1  679  -0.011   2.760   0.660
  164HOH     H2  680   0.035   2.692   0.786
  165HOH      O  681   2.202   3.158   2.619
  165HOH     H1  682   2.260   3.131   2.548
  165HOH     H2  683   2.197   3.082   2.677
  166HOH      O  684   2.198   0.427   1.859
  166HOH     H1  685   2.141   0.503   1.867
  166HOH     H2  686   2.266   0.440   1.925
  167HOH      O  687   3.237   1.312   3.488
  167HOH     H1  688   3.261   1.283   3.576
  167HOH     H2  689   3.319   1.312   3.439
  168HOH      O  690   3.623   1.431   0.842
  168HOH     H1  691   3.626   1.397   0.931
  168HOH     H2  692   3.554   1.497   0.844
  169HOH      O  693   0.230   2.150   2.964
  169HOH     H1  694   0.193   2.206   3.032
  169HOH     H2  695   0.318   2.129   2.996
  170HOH      O  696   0.208   0.558   3.844
  170HOH     H1  697   0.152   0.594   3.913
  170HOH     H2  698   0.195   0.616   3.769
  171HOH      O  699   1.831   0.206   2.799
  171HOH     H1  700   1.839   0.301   2.813
  171HOH     H2  701   1.893   0.168   2.861
  172HOH      O  702   3.320   3.039   1.228
  172HOH     H1  703   3.320   3.131   1.200
  172HOH     H2  704   3.408   3.023   1.260
  173HOH      O  705   3.138   3.370   3.648
  173HOH     H1  706   3.111   3.451   3.692
  173HOH     H2  707   3.143   3.305   3.719
  174HOH      O  708   3.851   1.825   1.263
  174HOH     H1  709   3.897   1.899   1.222
  174HOH     H2  710   3.792   1.866   1.326
  175HOH      O  711   0.384   3.829   1.607
  175HOH     H1  712   0.461   3.792   1.564
  175HOH     H2  713   0.367   3.910   1.560
  176HOH      O  714   1.641   2.699   3.609
  176HOH     H1  715   1.648   2.794   3.599
  176HOH     H2  716   1.660   2.664   3.522
  177HOH      O  717   3.310   2.024   3.266
  177HOH     H1  718   3.403   2.009   3.282
  177HOH     H2  719   3.304   2.115   3.239
  178HOH      O  720   2.017   3.264   0.030
  178HOH     H1  721   1.994   3.241   0.120
  178HOH     H2  722   1.945   3.230  -0.023
  179HOH      O  723   2.365   2.898   2.928
  179HOH     H1  724   2.397   2.847   2.854
  179HOH     H2  725   2.277   2.927   2.902
  180HOH      O  726   0.690   3.148   0.203
  180HOH     H1  727   0.668   3.145   0.296
  180HOH     H2  728   0.612   3.117   0.158
  181HOH      O  729   2.725   1.654   0.336
  181HOH     H1  730   2.758   1.614   0.416
  181HOH     H2  731   2.748   1.592   0.267
  182HOH      O  732   0.052   2.591   3.122
  182HOH     H1  733   0.073   2.684   3.133
  182HOH     H2  734   0.109   2.561   3.051
  183HOH      O  735   2.190   0.539   1.211
  183HOH     H1  736   2.281   0.567   1.224
  183HOH     H2  737   2.153   0.606   1.153
  184HOH      O  738   2.382   1.405   2.535
  184HOH     H1  739   2.380   1.341   2.464
  184HOH     H2  740   2.363   1.489   2.492
  185HOH      O  741   0.938   3.365   2.716
  185HOH     H1  742   0.929   3.447   2.764
  185HOH     H2  743   0.849   3.333   2.706
  186HOH      O  744   1.981   0.400   2.434
  186HOH     H1  745   1.944   0.484   2.463
  186HOH     H2  746   2.065   0.394   2.481
  187HOH      O  747   1.050   0.694   3.723
  187HOH     H1  748   1.094   0.700   3.808
  187HOH     H2  749   1.076   0.609   3.688
  188HOH      O  750   0.528   0.948   1.131
  188HOH     H1  751   0.608   0.900   1.156
  188HOH     H2  752   0.495   0.900   1.055
  189HOH      O  753   3.415   2.283   0.979
  189HOH     H1  754   3.436   2.291   1.072
  189HOH     H2  755   3.494   2.246   0.940
  190HOH      O  756   2.314   0.537   0.629
  190HOH     H1  757   2.277   0.622   0.604
  190HOH     H2  758   2.247   0.474   0.602
  191HOH      O  759   3.708   2.678   0.807
  191HOH     H1  760   3.630   2.696   0.859
  191HOH     H2  761   3.776   2.658   0.871
  192HOH      O  762   1.701   3.966   0.528
  192HOH     H1  763   1.680   3.904   0.598
  192HOH     H2  764   1.789   3.997   0.548
  193HOH      O  765   3.727   2.243   2.636
  193HOH     H1  766   3.677   2.308   2.684
  193HOH     H2  767   3.804   2.290   2.603
  194HOH      O  768   3.282   2.041   3.765
  194HOH     H1  769   3.208   2.100   3.751
  194HOH     H2  770   3.359   2.098   3.761
  195HOH      O  771   0.505   2.051   3.628
  195HOH     H1  772   0.516   1.974   3.572
  195HOH     H2  773   0.527   2.019   3.716
  196HOH      O  774   0.964   0.642   2.797
  196HOH     H1  775   0.883   0.593   2.809
  196HOH     H2  776   0.941   0.733   2.814
  197HOH      O  777   0.270   3.070   3.603
  197HOH     H1  778   0.219   3.034   3.675
  197HOH     H2  779   0.207   3.121   3.552
  198HOH      O  780   1.270   2.580   1.326
  198HOH     H1  781   1.355   2.614   1.298
  198HOH     H2  782   1.206   2.641   1.289
  199HOH      O  783   2.791   3.583   3.384
  199HOH     H1  784   2.787   3.661   3.439
  199HOH     H2  785   2.869   3.596   3.329
  200HOH      O  786   2.978   1.541   2.476
  200HOH     H1  787   3.053   1.487   2.501
  200HOH     H2  788   2.922   1.543   2.554
  201HOH      O  789   1.906   0.477   2.138
  201HOH     H1  790   1.910   0.573   2.146
  201HOH     H2  791   1.984   0.446   2.184
  202HOH      O  792   1.530   1.283   0.328
  202HOH     H1  793   1.484   1.241   0.401
  202HOH     H2  794   1.562   1.210   0.275
  203HOH      O  795   1.282   2.572   2.759
  203HOH     H1  796   1.357   2.615   2.719
  203HOH     H2  797   1.244   2.518   2.690
  204HOH      O  798   3.282   1.629   3.586
  204HOH     H1  799   3.263   1.723   3.582
  204HOH     H2  800   3.295   1.611   3.679
  205HOH      O  801   3.106   3.289   2.992
  205HOH     H1  802   3.150   3.204   2.982
  205HOH     H2  803   3.031   3.271   3.048
  206HOH      O  804   1.184   3.360   0.920
  206HOH     H1  805   1.111   3.339   0.978
  206HOH     H2  806   1.234   3.426   0.967
  207HOH      O  807   1.093   3.548   0.456
  207HOH     H1  808   1.054   3.474   0.410
  207HOH     H2  809   1.155   3.509   0.518
  208HOH      O  810   1.947   2.908   4.016
  208HOH     H1  811   1.969   2.855   3.940
  208HOH     H2  812   1.855   2.888   4.033
  209HOH      O  813   1.422   2.942   1.873
  209HOH     H1  814   1.474   2.861   1.874
  209HOH     H2  815   1.480   3.007   1.912
  210HOH      O  816   2.697   0.045   1.663
  210HOH     H1  817   2.662  -0.042   1.648
  210HOH     H2  818   2.706   0.083   1.576
  211HOH      O  819   3.114   3.614   3.796
  211HOH     H1  820   3.198   3.654   3.770
  211HOH     H2  821   3.049   3.680   3.774
  212HOH      O  822   1.540   3.973   0.036
  212HOH     H1  823   1.613   4.030   0.059
  212HOH     H2  824   1.479   4.029  -0.010
  213HOH      O  825   3.849   3.689   3.974
  213HOH     H1  826   3.843   3.660   3.884
  213HOH     H2  827   3.824   3.782   3.971
  214HOH      O  828   1.132   2.165   2.173
  214HOH     H1  829   1.139   2.259   2.191
  214HOH     H2  830   1.216   2.129   2.200
  215HOH      O  831   1.052   1.687   0.535
  215HOH     H1  832   1.132   1.654   0.575
  215HOH     H2  833   0.983   1.665   0.598
  216HOH      O  834   1.011   2.586   2.528
  216HOH     H1  835   0.932   2.641   2.525
  216HOH     H2  836   1.082   2.645   2.503
  217HOH      O  837   1.032   2.538   4.012
  217HOH     H1  838   1.077   2.457   3.989
  217HOH     H2  839   0.940   2.513   4.022
  218HOH      O  840   3.953   3.277   2.430
  218HOH     H1  841   4.002   3.357   2.449
  218HOH     H2  842   3.950   3.272   2.334
  219HOH      O  843   1.799   0.217   2.404
  219HOH     H1  844   1.861   0.289   2.414
  219HOH     H2  845   1.717   0.250   2.439
  220HOH      O  846   3.036   1.252   1.292
  220HOH     H1  847   3.116   1.203   1.312
  220HOH     H2  848   3.037   1.326   1.352
  221HOH      O  849   1.236   3.624   1.667
  221HOH     H1  850   1.203   3.556   1.726
  221HOH     H2  851   1.273   3.575   1.593
  222HOH      O  852   2.890   1.368   0.958
  222HOH     H1  853   2.970   1.418   0.942
  222HOH     H2  854   2.846   1.415   1.028
  223HOH      O  855   0.601   2.615   3.803
  223HOH     H1  856   0.660   2.584   3.734
  223HOH     H2  857   0.600   2.710   3.793
  224HOH      O  858   2.607   1.636   1.337
  224HOH     H1  859   2.673   1.598   1.394
  224HOH     H2  860   2.557   1.695   1.394
  225HOH      O  861   0.084   1.935   3.552
  225HOH     H1  862   0.150   1.942   3.482
  225HOH     H2  863   0.066   2.026   3.576
  226HOH      O  864   1.419   3.653   1.977
  226HOH     H1  865   1.497   3.706   1.960
  226HOH     H2  866   1.452   3.577   2.025
  227HOH      O  867   0.079   0.128   3.075
  227HOH     H1  868   0.001   0.181   3.091
  227HOH     H2  869   0.057   0.076   2.999
  228HOH      O  870   2.140   4.015   1.431
  228HOH     H1  871   2.067   4.076   1.426
  228HOH     H2  872   2.119   3.948   1.365
  229HOH      O  873   3.762   1.228   0.637
  229HOH     H1  874   3.795   1.170   0.705
  229HOH     H2  875   3.727   1.170   0.569
  230HOH      O  876   1.304   2.448   0.673
  230HOH     H1  877   1.388   2.491   0.690
  230HOH     H2  878   1.248   2.517   0.637
  231HOH      O  879   3.762   0.955   1.791
  231HOH     H1  880   3.719   1.031   1.754
  231HOH     H2  881   3.718   0.940   1.874
  232HOH      O  882   3.828   1.004   0.383
  232HOH     H1  883   3.851   0.913   0.397
  232HOH     H2  884   3.896   1.038   0.324
  233HOH      O  885   3.880   1.431   3.848
  233HOH     H1  886   3.974   1.415   3.837
  233HOH     H2  887   3.874   1.487   3.926
  234HOH      O  888   0.095   3.030   0.793
  234HOH     H1  889   0.119   3.057   0.882
  234HOH     H2  890   0.036   3.099   0.763
  235HOH      O  891   3.557   2.127   3.822
  235HOH     H1  892   3.617   2.180   3.875
  235HOH     H2  893   3.603   2.115   3.739
  236HOH      O  894   1.078   0.391   1.761
  236HOH     H1  895   1.162   0.346   1.749
  236HOH     H2  896   1.017   0.343   1.705
  237HOH      O  897   1.158   2.042   0.317
  237HOH     H1  898   1.200   1.956   0.325
  237HOH     H2  899   1.229   2.105   0.332
  238HOH      O  900   0.311   0.263   2.955
  238HOH     H1  901   0.264   0.202   3.011
  238HOH     H2  902   0.354   0.324   3.015
  239HOH      O  903   3.218   2.117   1.131
  239HOH     H1  904   3.207   2.212   1.142
  239HOH     H2  905   3.140   2.090   1.082
  240HOH      O  906   2.055   1.079   1.536
  240HOH     H1  907   2.014   1.124   1.609
  240HOH     H2  908   2.131   1.035   1.574
  241HOH      O  909   1.103   0.303   0.403
  241HOH     H1  910   1.045   0.355   0.347
  241HOH     H2  911   1.080   0.212   0.384
  242HOH      O  912   2.168   1.747   2.912
  242HOH     H1  913   2.141   1.788   2.994
  242HOH     H2  914   2.139   1.808   2.844
  243HOH      O  915   0.142   1.827   0.027
  243HOH     H1  916   0.068   1.878  -0.004
  243HOH     H2  917   0.119   1.736   0.007
  244HOH      O  918   0.557   1.300   3.390
  244HOH     H1  919   0.624   1.304   3.322
  244HOH     H2  920   0.489   1.360   3.361
  245HOH      O  921   3.937   0.953   3.262
  245HOH     H1  922   3.912   0.947   3.354
  245HOH     H2  923   4.003   1.023   3.259
  246HOH      O  924   0.935   3.310   1.016
  246HOH     H1  925   0.893   3.375   1.073
  246HOH     H2  926   0.906   3.334   0.928
  247HOH      O  927   3.056   3.981   1.879
  247HOH     H1  928   2.989   3.917   1.854
  247HOH     H2  929   3.136   3.949   1.837
  248HOH      O  930   0.150   2.150   0.701
  248HOH     H1  931   0.201   2.157   0.781
  248HOH     H2  932   0.192   2.079   0.652
  249HOH      O  933   0.014   0.344   3.963
  249HOH     H1  934   0.095   0.366   4.009
  249HOH     H2  935  -0.017   0.428   3.929
  250HOH      O  936   3.852   0.284   0.345
  250HOH     H1  937   3.850   0.293   0.250
  250HOH     H2  938   3.772   0.327   0.375
  251HOH      O  939   0.756   1.416   2.648
  251HOH     H1  940   0.770   1.501   2.691
  251HOH     H2  941   0.837   1.367   2.664
  252HOH      O  942   2.477   0.812   3.275
  252HOH     H1  943   2.400   0.863   3.299
  252HOH     H2  944   2.503   0.768   3.356
  253HOH      O  945   3.834   3.136   2.701
  253HOH     H1  946   3.882   3.216   2.725
  253HOH     H2  947   3.902   3.075   2.672
  254HOH      O  948   1.091   1.062   0.659
  254HOH     H1  949   1.042   0.979   0.653
  254HOH     H2  950   1.093   1.095   0.569
  255HOH      O  951   3.712   1.415   2.519
  255HOH     H1  952   3.703   1.504   2.484
  255HOH     H2  953   3.805   1.395   2.510
  256HOH      O  954   0.829   3.886   3.728
  256HOH     H1  955   0.768   3.817   3.753
  256HOH     H2  956   0.880   3.848   3.656
  257HOH      O  957   2.852   2.930   0.495
  257HOH     H1  958   2.758   2.911   0.489
  257HOH     H2  959   2.863   2.962   0.585
  258HOH      O  960   1.238   0.608   1.002
  258HOH     H1  961   1.308   0.572   1.056
  258HOH     H2  962   1.233   0.549   0.927
  259HOH      O  963   0.940   1.889   1.834
  259HOH     H1  964   1.027   1.865   1.803
  259HOH     H2  965   0.886   1.812   1.815
  260HOH      O  966   0.914   2.966   1.314
  260HOH     H1  967   0.820   2.981   1.326
  260HOH     H2  968   0.955   3.018   1.383
  261HOH      O  969   2.364   0.862   0.346
  261HOH     H1  970   2.407   0.935   0.392
  261HOH     H2  971   2.414   0.785   0.372
  262HOH      O  972   2.708   2.614   0.300
  262HOH     H1  973   2.667   2.682   0.353
  262HOH     H2  974   2.744   2.552   0.363
  263HOH      O  975   0.125   0.424   1.998
  263HOH     H1  976   0.169   0.345   1.966
  263HOH     H2  977   0.168   0.496   1.951
  264HOH      O  978   0.451   3.827   3.899
  264HOH     H1  979   0.485   3.763   3.962
  264HOH     H2  980   0.374   3.784   3.861
  265HOH      O  981   2.598   2.344   3.770
  265HOH     H1  982   2.647   2.426   3.766
  265HOH     H2  983   2.540   2.355   3.846
  266HOH      O  984   1.203   1.343   3.638
  266HOH     H1  985   1.198   1.436   3.616
  266HOH     H2  986   1.118   1.322   3.676
  267HOH      O  987   2.633   0.444   2.733
  267HOH     H1  988   2.680   0.419   2.812
  267HOH     H2  989   2.650   0.373   2.671
  268HOH      O  990   0.569   1.550   0.293
  268HOH     H1  991   0.508   1.480   0.318
  268HOH     H2  992   0.649   1.504   0.269
  269HOH      O  993   2.406   0.849   2.721
  269HOH     H1  994   2.479   0.905   2.698
  269HOH     H2  995   2.408   0.844   2.816
  270HOH      O  996   3.661   3.633   2.396
  270HOH     H1  997   3.590   3.638   2.332
  270HOH     H2  998   3.659   3.542   2.426
  271HOH      O  999   3.071   1.585   0.917
  271HOH     H1 1000   3.124   1.622   0.988
  271HOH     H2 1001   3.126   1.518   0.878
  272HOH      O 1002   2.599   0.180   2.544
  272HOH     H1 1003   2.588   0.110   2.479
  272HOH     H2 1004   2.608   0.260   2.492
  273HOH      O 1005   1.912   3.787   2.556
  273HOH     H1 1006   1.873   3.871   2.578
  273HOH     H2 1007   1.849   3.746   2.496
  274HOH      O 1008   3.388   0.055   2.258
  274HOH     H1 1009   3.301   0.050   2.218
  274HOH     H2 1010   3.447   0.020   2.191
  275HOH      O 1011   3.702   1.227   2.018
  275HOH     H1 1012   3.652   1.148   2.038
  275HOH     H2 1013   3.653   1.269   1.947
  276HOH      O 1014   3.472   2.282   2.887
  276HOH     H1 1015   3.486   2.190   2.909
  276HOH     H2 1016   3.388   2.305   2.928
  277HOH      O 1017   3.545   1.501   3.118
  277HOH     H1 1018   3.516   1.546   3.198
  277HOH     H2 1019   3.464   1.476   3.073
  278HOH      O 1020   3.934   1.465   0.818
  278HOH     H1 1021   3.908   1.554   0.841
  278HOH     H2 1022   3.854   1.414   0.822
  279HOH      O 1023   1.369   0.866   1.777
  279HOH     H1 1024   1.389   0.837   1.865
  279HOH     H2 1025   1.372   0.962   1.782
  280HOH      O 1026   0.376   0.508   1.819
  280HOH     H1 1027   0.303   0.496   1.757
  280HOH     H2 1028   0.429   0.577   1.779
  281HOH      O 1029   3.078   1.206   2.782
  281HOH     H1 1030   3.065   1.256   2.862
  281HOH     H2 1031   3.099   1.117   2.813
  282HOH      O 1032   0.329   1.532   3.573
  282HOH     H1 1033   0.252   1.570   3.615
  282HOH     H2 1034   0.347   1.452   3.623
  283HOH      O 1035   0.908   0.828   0.621
  283HOH     H1 1036   0.985   0.788   0.662
  283HOH     H2 1037   0.837   0.808   0.682
  284HOH      O 1038   1.379   2.216   3.314
  284HOH     H1 1039   1.443   2.170   3.369
  284HOH     H2 1040   1.356   2.152   3.247
  285HOH      O 1041   1.674   3.448   3.195
  285HOH     H1 1042   1.705   3.381   3.256
  285HOH     H2 1043   1.714   3.424   3.111
  286HOH      O 1044   1.763   2.819   2.855
  286HOH     H1 1045   1.798   2.738   2.817
  286HOH     H2 1046   1.672   2.797   2.878
  287HOH      O 1047   1.647   3.660   1.143
  287HOH     H1 1048   1.664   3.577   1.099
  287HOH     H2 1049   1.731   3.706   1.142
  288HOH      O 1050   3.430   2.153   0.581
  288HOH     H1 1051   3.389   2.154   0.494
  288HOH     H2 1052   3.359   2.179   0.640
  289HOH      O 1053   2.209   3.020   1.038
  289HOH     H1 1054   2.221   2.935   0.996
  289HOH     H2 1055   2.283   3.029   1.097
  290HOH      O 1056   2.721   3.522   1.657
  290HOH     H1 1057   2.754   3.612   1.650
  290HOH     H2 1058   2.626   3.532   1.659
  291HOH      O 1059   1.938   0.690   0.849
  291HOH     H1 1060   2.019   0.712   0.895
  291HOH     H2 1061   1.883   0.648   0.916
  292HOH      O 1062   2.966   1.175   0.217
  292HOH     H1 1063   3.062   1.176   0.220
  292HOH     H2 1064   2.946   1.133   0.133
  293HOH      O 1065   1.319   0.373   3.828
  293HOH     H1 1066   1.246   0.421   3.869
  293HOH     H2 1067   1.279   0.325   3.756
  294HOH      O 1068   0.934   2.773   3.442
  294HOH     H1 1069   0.846   2.808   3.429
  294HOH     H2 1070   0.958   2.800   3.531
  295HOH      O 1071   1.585   3.008   1.175
  295HOH     H1 1072   1.571   2.958   1.256
  295HOH     H2 1073   1.499   3.045   1.155
  296HOH      O 1074   2.846   0.447   3.304
  296HOH     H1 1075   2.894   0.388   3.362
  296HOH     H2 1076   2.777   0.392   3.267
  297HOH      O 1077   3.728   1.115   0.108
  297HOH     H1 1078   3.717   1.210   0.102
  297HOH     H2 1079   3.739   1.098   0.201
  298HOH      O 1080   0.723   2.344   0.249
  298HOH     H1 1081   0.676   2.262   0.246
  298HOH     H2 1082   0.805   2.328   0.201
  299HOH      O 1083   0.861   0.528   0.534
  299HOH     H1 1084   0.827   0.569   0.614
  299HOH     H2 1085   0.952   0.506   0.554
  300HOH      O 1086   0.263   3.216   2.441
  300HOH     H1 1087   0.276   3.173   2.356
  300HOH     H2 1088   0.186   3.271   2.429
  301HOH      O 1089   3.674   1.230   2.713
  301HOH     H1 1090   3.754   1.249   2.762
  301HOH     H2 1091   3.674   1.293   2.641
  302HOH      O 1092   2.079   3.469   2.820
  302HOH     H1 1093   2.027   3.392   2.794
  302HOH     H2 1094   2.168   3.435   2.829
  303HOH      O 1095   1.585   2.676   1.879
  303HOH     H1 1096   1.556   2.585   1.887
  303HOH     H2 1097   1.607   2.686   1.787
  304HOH      O 1098   2.028   1.526   0.094
  304HOH     H1 1099   1.936   1.542   0.117
  304HOH     H2 1100   2.076   1.548   0.174
  305HOH      O 1101   3.701   0.101   0.865
  305HOH     H1 1102   3.667   0.188   0.885
  305HOH     H2 1103   3.671   0.046   0.938
  306HOH      O 1104   1.057   1.634   2.683
  306HOH     H1 1105   1.149   1.651   2.665
  306HOH     H2 1106   1.048   1.649   2.778
  307HOH      O 1107   1.101   0.024   3.455
  307HOH     H1 1108   1.170   0.002   3.518
  307HOH     H2 1109   1.051  -0.057   3.444
  308HOH      O 1110   1.693   1.810   1.563
  308HOH     H1 1111   1.703   1.902   1.588
  308HOH     H2 1112   1.680   1.764   1.646
  309HOH      O 1113   0.471   0.650   2.202
  309HOH     H1 1114   0.423   0.572   2.175
  309HOH     H2 1115   0.505   0.688   2.121
  310HOH      O 1116   0.696   0.441   0.154
  310HOH     H1 1117   0.672   0.479   0.070
  310HOH     H2 1118   0.620   0.387   0.178
  311HOH      O 1119   3.331   0.359   1.623
  311HOH     H1 1120   3.288   0.279   1.594
  311HOH     H2 1121   3.398   0.330   1.686
  312HOH      O 1122   3.538   1.376   2.317
  312HOH     H1 1123   3.461   1.417   2.356
  312HOH     H2 1124   3.605   1.382   2.385
  313HOH      O 1125   2.347   3.366   2.931
  313HOH     H1 1126   2.368   3.369   3.024
  313HOH     H2 1127   2.357   3.274   2.907
  314HOH      O 1128   3.511   1.173   0.363
  314HOH     H1 1129   3.577   1.240   0.345
  314HOH     H2 1130   3.441   1.219   0.409
  315HOH      O 1131   2.738   3.773   3.081
  315HOH     H1 1132   2.807   3.770   3.148
  315HOH     H2 1133   2.783   3.748   3.000
  316HOH      O 1134   1.333   1.670   0.602
  316HOH     H1 1135   1.348   1.716   0.685
  316HOH     H2 1136   1.395   1.598   0.603
  317HOH      O 1137   3.156   3.002   2.828
  317HOH     H1 1138   3.108   2.933   2.875
  317HOH     H2 1139   3.188   2.960   2.749
  318HOH      O 1140   2.060   3.751   0.553
  318HOH     H1 1141   1.998   3.679   0.566
  318HOH     H2 1142   2.107   3.728   0.473
  319HOH      O 1143   1.699   1.300   3.573
  319HOH     H1 1144   1.682   1.391   3.551
  319HOH     H2 1145   1.783   1.301   3.619
  320HOH      O 1146   3.328   3.571   1.436
  320HOH     H1 1147   3.369   3.502   1.384
  320HOH     H2 1148   3.308   3.640   1.372
  321HOH      O 1149   1.308   0.868   1.435
  321HOH     H1 1150   1.254   0.903   1.364
  321HOH     H2 1151   1.392   0.913   1.425
  322HOH      O 1152   1.607   2.159   0.907
  322HOH     H1 1153   1.566   2.214   0.974
  322HOH     H2 1154   1.578   2.197   0.824
  323HOH      O 1155   0.754   1.032   1.352
  323HOH     H1 1156   0.727   0.956   1.300
  323HOH     H2 1157   0.686   1.041   1.418
  324HOH      O 1158   1.573   1.947   0.111
  324HOH     H1 1159   1.541   1.878   0.053
  324HOH     H2 1160   1.502   2.011   0.115
  325HOH      O 1161   2.002   2.172   0.540
  325HOH     H1 1162   2.077   2.130   0.584
  325HOH     H2 1163   1.950   2.099   0.507
  326HOH      O 1164   3.502   1.313   3.432
  326HOH     H1 1165   3.573   1.292   3.494
  326HOH     H2 1166   3.542   1.302   3.346
  327HOH      O 1167   0.690   2.168   2.351
  327HOH     H1 1168   0.632   2.185   2.425
  327HOH     H2 1169   0.777   2.163   2.390
  328HOH      O 1170   0.102   1.643   0.384
  328HOH     H1 1171   0.051   1.570   0.348
  328HOH     H2 1172   0.141   1.686   0.308
  329HOH      O 1173   2.789   3.368   2.850
  329HOH     H1 1174   2.855   3.305   2.820
  329HOH     H2 1175   2.729   3.377   2.775
  330HOH      O 1176   3.415   3.179   1.671
  330HOH     H1 1177   3.380   3.267   1.656
  330HOH     H2 1178   3.430   3.176   1.766
  331HOH      O 1179   0.353   0.198   1.110
  331HOH     H1 1180   0.344   0.232   1.022
  331HOH     H2 1181   0.342   0.103   1.101
  332HOH      O 1182   0.903   0.381   3.242
  332HOH     H1 1183   0.949   0.441   3.301
  332HOH     H2 1184   0.812   0.411   3.244
  333HOH      O 1185   3.972   2.528   0.390
  333HOH     H1 1186   4.026   2.606   0.380
  333HOH     H2 1187   4.025   2.469   0.443
  334HOH      O 1188   0.863   1.531   3.512
  334HOH     H1 1189   0.924   1.471   3.555
  334HOH     H2 1190   0.777   1.505   3.544
  335HOH      O 1191   4.013   3.977   0.564
  335HOH     H1 1192   3.926   4.011   0.542
  335HOH     H2 1193   4.074   4.038   0.523
  336HOH      O 1194   2.216   1.222   2.127
  336HOH     H1 1195   2.124   1.244   2.113
  336HOH     H2 1196   2.258   1.239   2.043
  337HOH      O 1197   1.908   3.278   2.704
  337HOH     H1 1198   1.943   3.293   2.616
  337HOH     H2 1199   1.880   3.186   2.704
  338HOH      O 1200   3.875   0.527   1.368
  338HOH     H1 1201   3.922   0.475   1.433
  338HOH     H2 1202   3.869   0.471   1.291
  339HOH      O 1203   0.831   2.778   2.547
  339HOH     H1 1204   0.829   2.867   2.582
  339HOH     H2 1205   0.742   2.763   2.513
  340HOH      O 1206   0.816   3.035   2.088
  340HOH     H1 1207   0.843   3.098   2.155
  340HOH     H2 1208   0.892   2.978   2.079
  341HOH      O 1209   3.625   0.879   4.008
  341HOH     H1 1210   3.686   0.865   3.935
  341HOH     H2 1211   3.653   0.963   4.045
  342HOH      O 1212   2.811   3.187   1.360
  342HOH     H1 1213   2.734   3.213   1.411
  342HOH     H2 1214   2.789   3.100   1.327
  343HOH      O 1215   1.675   2.415   3.678
  343HOH     H1 1216   1.636   2.403   3.765
  343HOH     H2 1217   1.637   2.497   3.646
  344HOH      O 1218   2.660   0.312   3.135
  344HOH     H1 1219   2.658   0.217   3.150
  344HOH     H2 1220   2.704   0.322   3.050
  345HOH      O 1221   3.712   1.483   0.594
  345HOH     H1 1222   3.739   1.393   0.613
  345HOH     H2 1223   3.649   1.504   0.662
  346HOH      O 1224   3.205   3.035   1.577
  346HOH     H1 1225   3.169   3.113   1.535
  346HOH     H2 1226   3.294   3.060   1.601
  347HOH      O 1227   1.628   1.706   0.528
  347HOH     H1 1228   1.600   1.639   0.590
  347HOH     H2 1229   1.723   1.696   0.524
  348HOH      O 1230   1.878   3.122   1.965
  348HOH     H1 1231   1.971   3.109   1.980
  348HOH     H2 1232   1.852   3.048   1.910
  349HOH      O 1233   1.814   2.847   1.171
  349HOH     H1 1234   1.726   2.886   1.176
  349HOH     H2 1235   1.802   2.767   1.121
  350HOH      O 1236   3.198   0.648   0.631
  350HOH     H1 1237   3.153   0.679   0.553
  350HOH     H2 1238   3.228   0.560   0.608
  351HOH      O 1239   1.242   3.948   3.813
  351HOH     H1 1240   1.157   3.957   3.857
  351HOH     H2 1241   1.306   3.979   3.877
  352HOH      O 1242   1.618   2.101   2.275
  352HOH     H1 1243   1.679   2.044   2.321
  352HOH     H2 1244   1.674   2.163   2.227
  353HOH      O 1245   0.907   1.741   1.457
  353HOH     H1 1246   0.882   1.727   1.365
  353HOH     H2 1247   0.989   1.694   1.467
  354HOH      O 1248   2.086   2.472   0.531
  354HOH     H1 1249   2.012   2.504   0.582
  354HOH     H2 1250   2.135   2.416   0.592
  355HOH      O 1251   0.113   1.097   3.176
  355HOH     H1 1252   0.174   1.161   3.213
  355HOH     H2 1253   0.165   1.051   3.110
  356HOH      O 1254   3.499   3.009   0.483
  356HOH     H1 1255   3.536   2.973   0.564
  356HOH     H2 1256   3.573   3.051   0.439
  357HOH      O 1257   3.283   1.249   3.167
  357HOH     H1 1258   3.228   1.287   3.235
  357HOH     H2 1259   3.306   1.322   3.110
  358HOH      O 1260   2.893   2.234   1.009
  358HOH     H1 1261   2.961   2.294   1.039
  358HOH     H2 1262   2.819   2.249   1.069
  359HOH      O 1263   3.120   2.288   3.854
  359HOH     H1 1264   3.060   2.214   3.848
  359HOH     H2 1265   3.129   2.305   3.948
  360HOH      O 1266   1.777   1.191   2.955
  360HOH     H1 1267   1.862   1.225   2.926
  360HOH     H2 1268   1.718   1.267   2.950
  361HOH      O 1269   3.696   1.470   1.618
  361HOH     H1 1270   3.764   1.535   1.599
  361HOH     H2 1271   3.614   1.517   1.605
  362HOH      O 1272   2.722   0.380   2.423
  362HOH     H1 1273   2.784   0.406   2.491
  362HOH     H2 1274   2.773   0.324   2.364
  363HOH      O 1275   2.121   0.232   3.280
  363HOH     H1 1276   2.210   0.199   3.298
  363HOH     H2 1277   2.066   0.154   3.282
  364HOH      O 1278   0.131   2.882   3.254
  364HOH     H1 1279   0.058   2.939   3.277
  364HOH     H2 1280   0.200   2.903   3.317
  365HOH      O 1281   1.582   1.724   2.820
  365HOH     H1 1282   1.583   1.628   2.821
  365HOH     H2 1283   1.536   1.747   2.740
  366HOH      O 1284   0.644   1.005   3.085
  366HOH     H1 1285   0.647   1.098   3.107
  366HOH     H2 1286   0.667   0.960   3.166
  367HOH      O 1287   0.060   1.235   0.730
  367HOH     H1 1288   0.039   1.142   0.738
  367HOH     H2 1289  -0.023   1.279   0.745
  368HOH      O 1290   2.335   2.013   0.465
  368HOH     H1 1291   2.420   2.024   0.508
  368HOH     H2 1292   2.344   2.061   0.383
  369HOH      O 1293   3.606   3.324   3.052
  369HOH     H1 1294   3.524   3.354   3.013
  369HOH     H2 1295   3.613   3.232   3.026
  370HOH      O 1296   3.072   1.641   1.306
  370HOH     H1 1297   2.988   1.643   1.261
  370HOH     H2 1298   3.055   1.680   1.392
  371HOH      O 1299   2.789   2.833   1.892
  371HOH     H1 1300   2.844   2.759   1.867
  371HOH     H2 1301   2.844   2.910   1.876
  372HOH      O 1302   2.523   1.683   0.552
  372HOH     H1 1303   2.441   1.639   0.530
  372HOH     H2 1304   2.587   1.646   0.491
  373HOH      O 1305   2.375   3.304   3.505
  373HOH     H1 1306   2.326   3.223   3.513
  373HOH     H2 1307   2.356   3.335   3.416
  374HOH      O 1308   3.343   2.860   3.579
  374HOH     H1 1309   3.286   2.933   3.603
  374HOH     H2 1310   3.417   2.902   3.534
  375HOH      O 1311   3.840   0.124   3.384
  375HOH     H1 1312   3.856   0.163   3.298
  375HOH     H2 1313   3.833   0.198   3.443
  376HOH      O 1314   2.947   0.737   0.520
  376HOH     H1 1315   2.988   0.823   0.521
  376HOH     H2 1316   2.959   0.703   0.609
  377HOH      O 1317   3.774   3.956   4.010
  377HOH     H1 1318   3.725   3.961   3.928
  377HOH     H2 1319   3.857   4.000   3.990
  378HOH      O 1320   1.205   3.719   2.675
  378HOH     H1 1321   1.164   3.653   2.619
  378HOH     H2 1322   1.224   3.792   2.617
  379HOH      O 1323   2.489   3.265   2.013
  379HOH     H1 1324   2.466   3.219   1.932
  379HOH     H2 1325   2.441   3.219   2.081
  380HOH      O 1326   0.186   2.948   0.157
  380HOH     H1 1327   0.156   3.028   0.115
  380HOH     H2 1328   0.118   2.883   0.137
  381HOH      O 1329   1.550   2.901   1.458
  381HOH     H1 1330   1.488   2.956   1.505
  381HOH     H2 1331   1.586   2.842   1.526
  382HOH      O 1332   3.155   2.877   2.590
  382HOH     H1 1333   3.160   2.960   2.543
  382HOH     H2 1334   3.068   2.842   2.568
  383HOH      O 1335   3.448   2.026   2.977
  383HOH     H1 1336   3.417   1.979   3.054
  383HOH     H2 1337   3.453   1.960   2.909
  384HOH      O 1338   0.558   3.232   3.210
  384HOH     H1 1339   0.591   3.307   3.259
  384HOH     H2 1340   0.636   3.184   3.183
  385HOH      O 1341   3.114   0.096   2.635
  385HOH     H1 1342   3.164   0.173   2.607
  385HOH     H2 1343   3.169   0.021   2.612
  386HOH      O 1344   3.695   3.495   1.664
  386HOH     H1 1345   3.733   3.581   1.677
  386HOH     H2 1346   3.637   3.483   1.739
  387HOH      O 1347   0.474   1.074   0.554
  387HOH     H1 1348   0.539   1.132   0.513
  387HOH     H2 1349   0.412   1.134   0.596
  388HOH      O 1350   1.715   1.618   4.024
  388HOH     H1 1351   1.774   1.693   4.031
  388HOH     H2 1352   1.726   1.588   3.934
  389HOH      O 1353   3.152   2.410   1.793
  389HOH     H1 1354   3.099   2.331   1.794
  389HOH     H2 1355   3.241   2.380   1.771
  390HOH      O 1356   0.981   3.626   0.026
  390HOH     H1 1357   1.050   3.608   0.089
  390HOH     H2 1358   1.012   3.587  -0.056
  391HOH      O 1359   0.908   0.489   1.050
  391HOH     H1 1360   0.976   0.494   1.117
  391HOH     H2 1361   0.869   0.403   1.062
  392HOH      O 1362   0.560   3.251   0.783
  392HOH     H1 1363   0.517   3.168   0.763
  392HOH     H2 1364   0.546   3.265   0.876
  393HOH      O 1365   3.921   2.736   2.657
  393HOH     H1 1366   3.856   2.743   2.728
  393HOH     H2 1367   3.995   2.788   2.687
  394HOH      O 1368   1.170   2.643   2.145
  394HOH     H1 1369   1.263   2.639   2.125
  394HOH     H2 1370   1.136   2.710   2.085
  395HOH      O 1371   0.301   2.080   1.656
  395HOH     H1 1372   0.317   2.077   1.750
  395HOH     H2 1373   0.384   2.112   1.619
  396HOH      O 1374   3.890   1.234   3.080
  396HOH     H1 1375   3.969   1.189   3.110
  396HOH     H2 1376   3.874   1.197   2.993
  397HOH      O 1377   0.622   1.303   1.497
  397HOH     H1 1378   0.630   1.228   1.556
  397HOH     H2 1379   0.548   1.353   1.532
  398HOH      O 1380   3.642   0.650   1.603
  398HOH     H1 1381   3.627   0.700   1.683
  398HOH     H2 1382   3.697   0.577   1.630
  399HOH      O 1383   3.288   0.948   0.922
  399HOH     H1 1384   3.261   0.975   1.010
  399HOH     H2 1385   3.375   0.986   0.911
  400HOH      O 1386   0.417   1.147   2.331
  400HOH     H1 1387   0.398   1.168   2.240
  400HOH     H2 1388   0.411   1.052   2.336
  401HOH      O 1389   2.737   0.421   0.371
  401HOH     H1 1390   2.644   0.409   0.390
  401HOH     H2 1391   2.780   0.416   0.456
  402HOH      O 1392   3.359   1.259   2.145
  402HOH     H1 1393   3.286   1.318   2.158
  402HOH     H2 1394   3.429   1.295   2.200
  403HOH      O 1395   3.630   3.785   2.738
  403HOH     H1 1396   3.616   3.690   2.744
  403HOH     H2 1397   3.622   3.805   2.645
  404HOH      O 1398   0.336   2.199   0.945
  404HOH     H1 1399   0.290   2.191   1.029
  404HOH     H2 1400   0.410   2.139   0.953
  405HOH      O 1401   3.650   2.553   1.981
  405HOH     H1 1402   3.654   2.529   2.073
  405HOH     H2 1403   3.648   2.469   1.934
  406HOH      O 1404   1.919   1.824   0.230
  406HOH     H1 1405   1.909   1.821   0.135
  406HOH     H2 1406   1.859   1.894   0.258
  407HOH      O 1407   2.305   3.383   1.686
  407HOH     H1 1408   2.225   3.364   1.636
  407HOH     H2 1409   2.323   3.302   1.734
  408HOH      O 1410   3.125   3.207   1.859
  408HOH     H1 1411   3.154   3.253   1.780
  408HOH     H2 1412   3.175   3.126   1.860
  409HOH      O 1413   2.441   0.490   1.051
  409HOH     H1 1414   2.510   0.552   1.073
  409HOH     H2 1415   2.456   0.416   1.111
  410HOH      O 1416   1.522   0.460   3.984
  410HOH     H1 1417   1.454   0.437   3.920
  410HOH     H2 1418   1.603   0.432   3.943
  411HOH      O 1419   0.935   3.501   1.648
  411HOH     H1 1420   1.021   3.512   1.687
  411HOH     H2 1421   0.887   3.447   1.710
  412HOH      O 1422   3.373   3.228   2.454
  412HOH     H1 1423   3.389   3.301   2.394
  412HOH     H2 1424   3.457   3.214   2.497
  413HOH      O 1425   1.290   0.885   2.854
  413HOH     H1 1426   1.374   0.912   2.892
  413HOH     H2 1427   1.228   0.954   2.881
  414HOH      O 1428   1.080   0.339   1.396
  414HOH     H1 1429   1.002   0.314   1.444
  414HOH     H2 1430   1.066   0.306   1.308
  415HOH      O 1431   3.403   2.576   0.731
  415HOH     H1 1432   3.357   2.660   0.722
  415HOH     H2 1433   3.340   2.519   0.776
  416HOH      O 1434   0.095   0.321   2.766
  416HOH     H1 1435   0.150   0.399   2.761
  416HOH     H2 1436   0.137   0.266   2.832
  417HOH      O 1437   1.214   0.658   2.729
  417HOH     H1 1438   1.125   0.630   2.751
  417HOH     H2 1439   1.242   0.710   2.805
  418HOH      O 1440   1.252   3.306   3.801
  418HOH     H1 1441   1.226   3.398   3.797
  418HOH     H2 1442   1.295   3.298   3.886
  419HOH      O 1443   1.855   2.077   3.053
  419HOH     H1 1444   1.787   2.125   3.100
  419HOH     H2 1445   1.882   2.136   2.983
  420HOH      O 1446   3.038   2.958   3.656
  420HOH     H1 1447   2.961   3.013   3.670
  420HOH     H2 1448   3.004   2.882   3.608
  421HOH      O 1449   2.595   2.912   0.121
  421HOH     H1 1450   2.659   2.980   0.100
  421HOH     H2 1451   2.602   2.849   0.050
  422HOH      O 1452   2.861   0.494   3.636
  422HOH     H1 1453   2.911   0.434   3.691
  422HOH     H2 1454   2.920   0.515   3.563
  423HOH      O 1455   1.715   0.167   1.398
  423HOH     H1 1456   1.695   0.082   1.437
  423HOH     H2 1457   1.657   0.172   1.322
  424HOH      O 1458   0.945   0.089   0.900
  424HOH     H1 1459   0.972   0.026   0.833
  424HOH     H2 1460   0.907   0.162   0.851
  425HOH      O 1461   0.901   1.134   1.126
  425HOH     H1 1462   0.885   1.115   1.218
  425HOH     H2 1463   0.866   1.222   1.112
  426HOH      O 1464   0.749   3.797   3.083
  426HOH     H1 1465   0.748   3.892   3.086
  426HOH     H2 1466   0.842   3.774   3.080
  427HOH      O 1467   2.481   4.009   3.756
  427HOH     H1 1468   2.424   4.069   3.709
  427HOH     H2 1469   2.568   4.025   3.721
  428HOH      O 1470   2.708   3.643   2.561
  428HOH     H1 1471   2.681   3.612   2.648
  428HOH     H2 1472   2.632   3.626   2.505
  429HOH      O 1473   0.100   1.694   3.223
  429HOH     H1 1474   0.107   1.697   3.128
  429HOH     H2 1475   0.190   1.686   3.253
  430HOH      O 1476   0.958   2.346   2.643
  430HOH     H1 1477   0.958   2.274   2.580
  430HOH     H2 1478   0.966   2.425   2.589
  431HOH      O 1479   1.256   1.291   0.533
  431HOH     H1 1480   1.298   1.308   0.617
  431HOH     H2 1481   1.276   1.199   0.514
  432HOH      O 1482   1.014   2.665   0.966
  432HOH     H1 1483   1.010   2.725   0.891
  432HOH     H2 1484   1.042   2.721   1.039
  433HOH      O 1485   0.579   2.724   2.966
  433HOH     H1 1486   0.548   2.635   2.986
  433HOH     H2 1487   0.513   2.758   2.906
  434HOH      O 1488   1.400   3.713   3.804
  434HOH     H1 1489   1.351   3.792   3.829
  434HOH     H2 1490   1.477   3.746   3.757
  435HOH      O 1491   2.040   3.459   3.338
  435HOH     H1 1492   2.031   3.375   3.384
  435HOH     H2 1493   1.980   3.452   3.264
  436HOH      O 1494   2.165   1.249   0.289
  436HOH     H1 1495   2.225   1.306   0.242
  436HOH     H2 1496   2.161   1.169   0.236
  437HOH      O 1497   2.407   1.418   0.300
  437HOH     H1 1498   2.428   1.346   0.359
  437HOH     H2 1499   2.389   1.492   0.358
  438HOH      O 1500   1.618   3.109   2.545
  438HOH     H1 1501   1.626   3.088   2.452
  438HOH     H2 1502   1.690   3.061   2.586
  439HOH      O 1503   1.367   0.036   1.898
  439HOH     H1 1504   1.409  -0.033   1.847
  439HOH     H2 1505   1.274   0.027   1.878
  440HOH      O 1506   0.210   0.071   0.860
  440HOH     H1 1507   0.125   0.076   0.904
  440HOH     H2 1508   0.193   0.105   0.772
  441HOH      O 1509   2.824   1.706   3.125
  441HOH     H1 1510   2.845   1.759   3.048
  441HOH     H2 1511   2.902   1.712   3.180
  442HOH      O 1512   3.921   1.971   0.816
  442HOH     H1 1513   3.989   1.924   0.769
  442HOH     H2 1514   3.840   1.950   0.769
  443HOH      O 1515   3.991   2.278   3.614
  443HOH     H1 1516   3.997   2.373   3.618
  443HOH     H2 1517   4.074   2.250   3.576
  444HOH      O 1518   2.466   0.744   3.006
  444HOH     H1 1519   2.546   0.691   3.002
  444HOH     H2 1520   2.459   0.770   3.097
  445HOH      O 1521   2.697   1.260   2.917
  445HOH     H1 1522   2.661   1.176   2.891
  445HOH     H2 1523   2.666   1.321   2.850
  446HOH      O 1524   2.688   1.609   0.027
  446HOH     H1 1525   2.617   1.550   0.051
  446HOH     H2 1526   2.662   1.645  -0.058
  447HOH      O 1527   3.994   2.745   1.317
  447HOH     H1 1528   4.069   2.701   1.277
  447HOH     H2 1529   3.983   2.701   1.401
  448HOH      O 1530   0.553   0.900   3.533
  448HOH     H1 1531   0.577   0.815   3.497
  448HOH     H2 1532   0.633   0.931   3.577
  449HOH      O 1533   0.827   2.268   3.834
  449HOH     H1 1534   0.808   2.331   3.904
  449HOH     H2 1535   0.777   2.301   3.759
  450HOH      O 1536   3.531   2.527   3.053
  450HOH     H1 1537   3.519   2.513   2.959
  450HOH     H2 1538   3.622   2.501   3.069
  451HOH      O 1539   1.182   3.075   2.321
  451HOH     H1 1540   1.184   3.037   2.233
  451HOH     H2 1541   1.243   3.148   2.317
  452HOH      O 1542   1.196   3.755   2.018
  452HOH     H1 1543   1.286   3.729   1.997
  452HOH     H2 1544   1.157   3.676   2.055
  453HOH      O 1545   0.564   3.548   3.312
  453HOH     H1 1546   0.568   3.633   3.357
  453HOH     H2 1547   0.646   3.505   3.336
  454HOH      O 1548   1.166   1.940   3.662
  454HOH     H1 1549   1.141   1.940   3.570
  454HOH     H2 1550   1.090   1.974   3.709
  455HOH      O 1551   0.925   1.319   2.888
  455HOH     H1 1552   1.018   1.334   2.872
  455HOH     H2 1553   0.892   1.404   2.917
  456HOH      O 1554   0.379   2.831   1.128
  456HOH     H1 1555   0.330   2.797   1.053
  456HOH     H2 1556   0.469   2.837   1.096
  457HOH      O 1557   3.044   0.896   1.316
  457HOH     H1 1558   2.977   0.855   1.370
  457HOH     H2 1559   3.065   0.831   1.250
  458HOH      O 1560   0.006   0.316   1.507
  458HOH     H1 1561   0.027   0.319   1.414
  458HOH     H2 1562   0.072   0.257   1.544
  459HOH      O 1563   0.414   2.211   0.411
  459HOH     H1 1564   0.476   2.166   0.353
  459HOH     H2 1565   0.331   2.211   0.362
  460HOH      O 1566   2.073   2.728   1.212
  460HOH     H1 1567   2.010   2.799   1.202
  460HOH     H2 1568   2.023   2.655   1.249
  461HOH      O 1569   0.037   2.032   2.580
  461HOH     H1 1570   0.123   2.074   2.577
  461HOH     H2 1571  -0.000   2.059   2.664
  462HOH      O 1572   2.819   1.873   2.910
  462HOH     H1 1573   2.832   1.854   2.818
  462HOH     H2 1574   2.834   1.967   2.917
  463HOH      O 1575   2.610   0.552   0.716
  463HOH     H1 1576   2.559   0.472   0.712
  463HOH     H2 1577   2.655   0.548   0.801
  464HOH      O 1578   3.988   1.111   3.845
  464HOH     H1 1579   3.905   1.100   3.798
  464HOH     H2 1580   4.052   1.128   3.776
  465HOH      O 1581   1.768   3.873   2.951
  465HOH     H1 1582   1.858   3.876   2.983
  465HOH     H2 1583   1.715   3.901   3.025
  466HOH      O 1584   1.923   2.130   3.707
  466HOH     H1 1585   1.828   2.127   3.696
  466HOH     H2 1586   1.945   2.222   3.693
  467HOH      O 1587   2.459   3.138   2.832
  467HOH     H1 1588   2.405   3.069   2.870
  467HOH     H2 1589   2.545   3.126   2.871
  468HOH      O 1590   3.135   1.877   0.511
  468HOH     H1 1591   3.157   1.890   0.604
  468HOH     H2 1592   3.186   1.801   0.485
  469HOH      O 1593   2.135   1.988   4.025
  469HOH     H1 1594   2.066   1.935   3.987
  469HOH     H2 1595   2.201   1.925   4.055
  470HOH      O 1596   1.728   3.285   0.628
  470HOH     H1 1597   1.765   3.231   0.698
  470HOH     H2 1598   1.724   3.227   0.552
  471HOH      O 1599   4.025   1.417   2.637
  471HOH     H1 1600   4.015   1.512   2.645
  471HOH     H2 1601   4.083   1.405   2.562
  472HOH      O 1602   2.973   3.211   2.501
  472HOH     H1 1603   2.927   3.248   2.577
  472HOH     H2 1604   2.906   3.206   2.433
  473HOH      O 1605   1.810   1.024   0.656
  473HOH     H1 1606   1.841   1.064   0.737
  473HOH     H2 1607   1.877   0.961   0.632
  474HOH      O 1608   1.750   3.504   0.849
  474HOH     H1 1609   1.784   3.478   0.935
  474HOH     H2 1610   1.732   3.421   0.804
  475HOH      O 1611   2.350   0.125   3.020
  475HOH     H1 1612   2.435   0.091   2.992
  475HOH     H2 1613   2.340   0.094   3.110
  476HOH      O 1614   2.608   1.995   3.645
  476HOH     H1 1615   2.669   2.068   3.632
  476HOH     H2 1616   2.570   1.980   3.559
  477HOH      O 1617   2.949   2.490   2.707
  477HOH     H1 1618   2.889   2.543   2.654
  477HOH     H2 1619   2.996   2.437   2.643
  478HOH      O 1620   3.686   3.177   0.388
  478HOH     H1 1621   3.703   3.268   0.364
  478HOH     H2 1622   3.749   3.127   0.336
  479HOH      O 1623   3.405   0.089   2.672
  479HOH     H1 1624   3.388   0.003   2.634
  479HOH     H2 1625   3.450   0.137   2.602
  480HOH      O 1626   0.354   2.533   0.722
  480HOH     H1 1627   0.439   2.506   0.758
  480HOH     H2 1628   0.363   2.520   0.628
  481HOH      O 1629   0.585   1.932   0.744
  481HOH     H1 1630   0.602   2.025   0.760
  481HOH     H2 1631   0.620   1.916   0.657
  482HOH      O 1632   1.221   1.161   3.439
  482HOH     H1 1633   1.208   1.220   3.514
  482HOH     H2 1634   1.316   1.163   3.424
  483HOH      O 1635   1.617   2.542   3.393
  483HOH     H1 1636   1.602   2.525   3.300
  483HOH     H2 1637   1.529   2.544   3.431
  484HOH      O 1638   0.880   3.031   2.698
  484HOH     H1 1639   0.933   3.097   2.653
  484HOH     H2 1640   0.942   2.986   2.756
  485HOH      O 1641   0.472   2.461   2.930
  485HOH     H1 1642   0.515   2.459   3.015
  485HOH     H2 1643   0.526   2.403   2.875
  486HOH      O 1644   0.541   3.668   1.812
  486HOH     H1 1645   0.540   3.635   1.722
  486HOH     H2 1646   0.613   3.731   1.813
  487HOH      O 1647   2.604   1.293   1.167
  487HOH     H1 1648   2.675   1.228   1.164
  487HOH     H2 1649   2.648   1.377   1.151
  488HOH      O 1650   0.785   1.707   1.685
  488HOH     H1 1651   0.828   1.628   1.717
  488HOH     H2 1652   0.814   1.715   1.594
  489HOH      O 1653   2.083   0.193   2.942
  489HOH     H1 1654   2.072   0.284   2.914
  489HOH     H2 1655   2.177   0.183   2.957
  490HOH      O 1656   1.381   2.561   0.176
  490HOH     H1 1657   1.416   2.624   0.239
  490HOH     H2 1658   1.363   2.612   0.097
  491HOH      O 1659   3.346   1.232   3.722
  491HOH     H1 1660   3.327   1.153   3.773
  491HOH     H2 1661   3.439   1.248   3.735
  492HOH      O 1662   3.146   3.053   2.370
  492HOH     H1 1663   3.068   3.095   2.408
  492HOH     H2 1664   3.214   3.119   2.379
  493HOH      O 1665   3.412   3.821   3.175
  493HOH     H1 1666   3.453   3.837   3.090
  493HOH     H2 1667   3.478   3.849   3.239
  494HOH      O 1668   1.145   3.438   1.829
  494HOH     H1 1669   1.174   3.347   1.825
  494HOH     H2 1670   1.149   3.461   1.921
  495HOH      O 1671   3.231   3.173   3.459
  495HOH     H1 1672   3.153   3.127   3.490
  495HOH     H2 1673   3.228   3.257   3.503
  496HOH      O 1674   3.909   1.668   2.772
  496HOH     H1 1675   3.819   1.662   2.739
  496HOH     H2 1676   3.913   1.605   2.843
  497HOH      O 1677   1.853   3.950   1.519
  497HOH     H1 1678   1.900   3.888   1.576
  497HOH     H2 1679   1.761   3.936   1.539
  498HOH      O 1680   3.040   2.788   0.270
  498HOH     H1 1681   2.982   2.786   0.345
  498HOH     H2 1682   3.029   2.876   0.233
  499HOH      O 1683   1.936   2.755   3.786
  499HOH     H1 1684   1.921   2.733   3.694
  499HOH     H2 1685   2.004   2.694   3.814
  500HOH      O 1686   1.692   2.231   3.180
  500HOH     H1 1687   1.626   2.298   3.163
  500HOH     H2 1688   1.677   2.203   3.270
  501HOH      O 1689   2.739   1.478   1.505
  501HOH     H1 1690   2.807   1.412   1.519
  501HOH     H2 1691   2.658   1.435   1.534
  502HOH      O 1692   1.594   2.989   3.216
  502HOH     H1 1693   1.539   2.914   3.195
  502HOH     H2 1694   1.533   3.062   3.224
  503HOH      O 1695   0.356   0.655   0.450
  503HOH     H1 1696   0.351   0.626   0.359
  503HOH     H2 1697   0.357   0.751   0.444
  504HOH      O 1698   3.843   3.061   0.183
  504HOH     H1 1699   3.880   3.034   0.099
  504HOH     H2 1700   3.798   2.983   0.216
  505HOH      O 1701   3.086   1.739   2.781
  505HOH     H1 1702   3.048   1.785   2.705
  505HOH     H2 1703   3.143   1.673   2.743
  506HOH      O 1704   2.868   0.798   0.084
  506HOH     H1 1705   2.928   0.744   0.136
  506HOH     H2 1706   2.787   0.799   0.135
  507HOH      O 1707   3.369   2.377   3.806
  507HOH     H1 1708   3.283   2.337   3.818
  507HOH     H2 1709   3.430   2.318   3.851
  508HOH      O 1710   3.561   3.228   0.867
  508HOH     H1 1711   3.618   3.235   0.791
  508HOH     H2 1712   3.561   3.136   0.890
  509HOH      O 1713   2.973   1.631   1.791
  509HOH     H1 1714   2.907   1.677   1.844
  509HOH     H2 1715   2.988   1.549   1.838
  510HOH      O 1716   1.249   3.078   0.883
  510HOH     H1 1717   1.267   3.045   0.795
  510HOH     H2 1718   1.216   3.166   0.869
  511HOH      O 1719   1.394   0.811   0.239
  511HOH     H1 1720   1.467   0.783   0.184
  511HOH     H2 1721   1.319   0.818   0.180
  512HOH      O 1722   2.617   3.282   3.656
  512HOH     H1 1723   2.583   3.231   3.730
  512HOH     H2 1724   2.538   3.319   3.615
  513HOH      O 1725   2.373   2.066   3.776
  513HOH     H1 1726   2.403   2.149   3.738
  513HOH     H2 1727   2.435   2.001   3.743
  514HOH      O 1728   0.212   2.473   0.098
  514HOH     H1 1729   0.118   2.454   0.101
  514HOH     H2 1730   0.254   2.388   0.088
  515HOH      O 1731   3.139   2.557   0.141
  515HOH     H1 1732   3.106   2.625   0.200
  515HOH     H2 1733   3.060   2.525   0.096
  516HOH      O 1734   0.542   2.068   0.219
  516HOH     H1 1735   0.524   1.978   0.244
  516HOH     H2 1736   0.585   2.062   0.134
  517HOH      O 1737   3.812   2.958   2.436
  517HOH     H1 1738   3.877   3.026   2.421
  517HOH     H2 1739   3.821   2.936   2.529
  518HOH      O 1740   2.962   1.412   3.338
  518HOH     H1 1741   3.024   1.426   3.267
  518HOH     H2 1742   2.876   1.410   3.295
  519HOH      O 1743   0.220   2.255   2.708
  519HOH     H1 1744   0.271   2.336   2.703
  519HOH     H2 1745   0.208   2.240   2.801
  520HOH      O 1746   1.995   3.167   2.298
  520HOH     H1 1747   1.990   3.090   2.355
  520HOH     H2 1748   2.073   3.152   2.244
  521HOH      O 1749   1.267   0.260   2.552
  521HOH     H1 1750   1.269   0.304   2.637
  521HOH     H2 1751   1.178   0.275   2.520
  522HOH      O 1752   1.094   1.891   0.877
  522HOH     H1 1753   1.105   1.973   0.829
  522HOH     H2 1754   1.167   1.890   0.939
  523HOH      O 1755   1.176   0.023   2.686
  523HOH     H1 1756   1.239   0.019   2.758
  523HOH     H2 1757   1.214   0.087   2.625
  524HOH      O 1758   3.269   2.572   2.019
  524HOH     H1 1759   3.302   2.649   1.972
  524HOH     H2 1760   3.288   2.499   1.960
  525HOH      O 1761   2.415   3.636   1.702
  525HOH     H1 1762   2.429   3.619   1.795
  525HOH     H2 1763   2.368   3.559   1.670
  526HOH      O 1764   2.951   2.594   2.296
  526HOH     H1 1765   2.966   2.637   2.212
  526HOH     H2 1766   3.002   2.513   2.291
  527HOH      O 1767   1.329   3.141   1.178
  527HOH     H1 1768   1.243   3.109   1.151
  527HOH     H2 1769   1.324   3.235   1.166
  528HOH      O 1770   1.388   1.288   2.484
  528HOH     H1 1771   1.299   1.322   2.472
  528HOH     H2 1772   1.395   1.272   2.578
  529HOH      O 1773   3.237   0.347   3.599
  529HOH     H1 1774   3.219   0.437   3.624
  529HOH     H2 1775   3.246   0.349   3.504
  530HOH      O 1776   2.449   3.255   3.885
  530HOH     H1 1777   2.366   3.299   3.899
  530HOH     H2 1778   2.467   3.210   3.967
  531HOH      O 1779   1.582   3.510   1.449
  531HOH     H1 1780   1.560   3.600   1.425
  531HOH     H2 1781   1.649   3.519   1.517
  532HOH      O 1782   3.224   1.697   3.864
  532HOH     H1 1783   3.143   1.748   3.864
  532HOH     H2 1784   3.195   1.606   3.868
  533HOH      O 1785   1.264   2.882   0.002
  533HOH     H1 1786   1.264   2.933   0.083
  533HOH     H2 1787   1.172   2.861  -0.012
  534HOH      O 1788   1.195   1.009   3.934
  534HOH     H1 1789   1.229   1.022   4.022
  534HOH     H2 1790   1.272   1.007   3.878
  535HOH      O 1791   2.337   1.190   2.365
  535HOH     H1 1792   2.295   1.202   2.280
  535HOH     H2 1793   2.387   1.108   2.356
  536HOH      O 1794   3.595   1.625   0.076
  536HOH     H1 1795   3.608   1.704   0.023
  536HOH     H2 1796   3.520   1.645   0.131
  537HOH      O 1797   0.455   3.380   0.519
  537HOH     H1 1798   0.370   3.336   0.525
  537HOH     H2 1799   0.506   3.343   0.592
  538HOH      O 1800   0.395   1.475   1.577
  538HOH     H1 1801   0.309   1.493   1.538
  538HOH     H2 1802   0.429   1.561   1.601
  539HOH      O 1803   0.221   0.586   2.699
  539HOH     H1 1804   0.249   0.622   2.784
  539HOH     H2 1805   0.302   0.553   2.660
  540HOH      O 1806   2.167   0.709   0.416
  540HOH     H1 1807   2.226   0.776   0.380
  540HOH     H2 1808   2.121   0.754   0.487
  541HOH      O 1809   1.520   1.786   3.113
  541HOH     H1 1810   1.533   1.762   3.021
  541HOH     H2 1811   1.426   1.772   3.128
  542HOH      O 1812   1.881   3.581   0.285
  542HOH     H1 1813   1.803   3.633   0.303
  542HOH     H2 1814   1.895   3.591   0.191
  543HOH      O 1815   1.817   3.145   3.928
  543HOH     H1 1816   1.746   3.132   3.864
  543HOH     H2 1817   1.864   3.061   3.928
  544HOH      O 1818   2.560   1.885   3.033
  544HOH     H1 1819   2.515   1.890   2.948
  544HOH     H2 1820   2.643   1.842   3.012
  545HOH      O 1821   2.724   1.534   1.085
  545HOH     H1 1822   2.680   1.605   1.039
  545HOH     H2 1823   2.724   1.563   1.177
  546HOH      O 1824   1.069   0.422   0.650
  546HOH     H1 1825   1.082   0.363   0.724
  546HOH     H2 1826   1.098   0.373   0.574
  547HOH      O 1827   1.338   0.444   0.411
  547HOH     H1 1828   1.384   0.380   0.467
  547HOH     H2 1829   1.255   0.402   0.391
  548HOH      O 1830   2.221   0.360   1.432
  548HOH     H1 1831   2.143   0.313   1.460
  548HOH     H2 1832   2.191   0.414   1.359
  549HOH      O 1833   1.333   2.362   2.120
  549HOH     H1 1834   1.359   2.271   2.103
  549HOH     H2 1835   1.343   2.373   2.215
  550HOH      O 1836   2.290   1.618   3.414
  550HOH     H1 1837   2.209   1.615   3.363
  550HOH     H2 1838   2.266   1.584   3.500
  551HOH      O 1839   1.424   0.292   0.647
  551HOH     H1 1840   1.484   0.339   0.705
  551HOH     H2 1841   1.403   0.212   0.694
  552HOH      O 1842   3.254   0.311   0.899
  552HOH     H1 1843   3.305   0.307   0.980
  552HOH     H2 1844   3.183   0.248   0.912
  553HOH      O 1845   2.335   0.725   1.754
  553HOH     H1 1846   2.342   0.658   1.686
  553HOH     H2 1847   2.265   0.693   1.811
  554HOH      O 1848   2.961   3.083   1.041
  554HOH     H1 1849   2.985   3.037   1.121
  554HOH     H2 1850   2.937   3.171   1.069
  555HOH      O 1851   1.846   0.024   2.576
  555HOH     H1 1852   1.842   0.074   2.658
  555HOH     H2 1853   1.842   0.091   2.508
  556HOH      O 1854   2.069   0.694   3.281
  556HOH     H1 1855   2.103   0.760   3.342
  556HOH     H2 1856   2.132   0.623   3.285
  557HOH      O 1857   2.147   1.140   0.944
  557HOH     H1 1858   2.241   1.153   0.958
  557HOH     H2 1859   2.108   1.226   0.962
  558HOH      O 1860   0.411   3.335   2.628
  558HOH     H1 1861   0.372   3.298   2.549
  558HOH     H2 1862   0.493   3.287   2.639
  559HOH      O 1863   0.311   1.718   2.626
  559HOH     H1 1864   0.370   1.706   2.552
  559HOH     H2 1865   0.227   1.739   2.586
  560HOH      O 1866   0.283   3.041   1.895
  560HOH     H1 1867   0.349   2.972   1.898
  560HOH     H2 1868   0.283   3.070   1.804
  561HOH      O 1869   3.594   0.132   0.043
  561HOH     H1 1870   3.659   0.076   0.085
  561HOH     H2 1871   3.569   0.194   0.112
  562HOH      O 1872   2.789   2.607   2.529
  562HOH     H1 1873   2.703   2.615   2.487
  562HOH     H2 1874   2.850   2.604   2.455
  563HOH      O 1875   0.094   3.390   1.341
  563HOH     H1 1876   0.046   3.369   1.261
  563HOH     H2 1877   0.030   3.378   1.411
  564HOH      O 1878   3.808   2.630   3.813
  564HOH     H1 1879   3.800   2.700   3.748
  564HOH     H2 1880   3.901   2.607   3.811
  565HOH      O 1881   0.364   0.962   2.989
  565HOH     H1 1882   0.387   0.952   2.896
  565HOH     H2 1883   0.434   1.017   3.025
  566HOH      O 1884   0.499   3.280   1.059
  566HOH     H1 1885   0.441   3.352   1.036
  566HOH     H2 1886   0.526   3.299   1.149
  567HOH      O 1887   0.245   2.947   0.530
  567HOH     H1 1888   0.239   2.873   0.470
  567HOH     H2 1889   0.166   2.941   0.584
  568HOH      O 1890   2.720   3.640   3.968
  568HOH     H1 1891   2.679   3.727   3.968
  568HOH     H2 1892   2.687   3.597   3.890
  569HOH      O 1893   3.797   3.121   2.960
  569HOH     H1 1894   3.891   3.129   2.974
  569HOH     H2 1895   3.783   3.149   2.870
  570HOH      O 1896   3.421   1.181   2.569
  570HOH     H1 1897   3.495   1.219   2.618
  570HOH     H2 1898   3.442   1.087   2.564
  571HOH      O 1899   2.585   1.247   1.981
  571HOH     H1 1900   2.564   1.314   2.046
  571HOH     H2 1901   2.502   1.232   1.935
  572HOH      O 1902   2.655   2.948   1.496
  572HOH     H1 1903   2.575   2.989   1.530
  572HOH     H2 1904   2.630   2.858   1.478
  573HOH      O 1905   1.881   1.139   3.429
  573HOH     H1 1906   1.966   1.138   3.473
  573HOH     H2 1907   1.827   1.198   3.482
  574HOH      O 1908   2.728   2.593   3.762
  574HOH     H1 1909   2.806   2.538   3.764
  574HOH     H2 1910   2.729   2.639   3.846
  575HOH      O 1911   3.169   2.096   2.883
  575HOH     H1 1912   3.259   2.064   2.880
  575HOH     H2 1913   3.126   2.040   2.948
  576HOH      O 1914   3.490   1.110   0.997
  576HOH     H1 1915   3.515   1.057   1.073
  576HOH     H2 1916   3.452   1.189   1.035
  577HOH      O 1917   2.067   3.639   1.707
  577HOH     H1 1918   2.098   3.593   1.785
  577HOH     H2 1919   2.071   3.573   1.638
  578HOH      O 1920   2.928   3.150   2.786
  578HOH     H1 1921   2.874   3.136   2.865
  578HOH     H2 1922   3.013   3.114   2.809
  579HOH      O 1923   1.792   3.685   3.236
  579HOH     H1 1924   1.746   3.768   3.252
  579HOH     H2 1925   1.724   3.624   3.209
  580HOH      O 1926   0.444   3.779   2.088
  580HOH     H1 1927   0.480   3.777   1.999
  580HOH     H2 1928   0.351   3.763   2.077
  581HOH      O 1929   2.774   1.172   2.172
  581HOH     H1 1930   2.820   1.256   2.167
  581HOH     H2 1931   2.713   1.174   2.099
  582HOH      O 1932   0.052   4.001   2.827
  582HOH     H1 1933   0.143   3.972   2.828
  582HOH     H2 1934   0.000   3.921   2.835
  583HOH      O 1935   0.078   1.174   2.294
  583HOH     H1 1936   0.085   1.243   2.360
  583HOH     H2 1937   0.028   1.214   2.222
  584HOH      O 1938   1.350   1.970   2.797
  584HOH     H1 1939   1.366   1.984   2.704
  584HOH     H2 1940   1.279   2.030   2.818
  585HOH      O 1941   2.925   0.649   2.812
  585HOH     H1 1942   2.852   0.708   2.829
  585HOH     H2 1943   2.944   0.611   2.898
  586HOH      O 1944   0.280   3.539   3.242
  586HOH     H1 1945   0.285   3.539   3.146
  586HOH     H2 1946   0.367   3.511   3.270
  587HOH      O 1947   1.540   1.706   0.252
  587HOH     H1 1948   1.548   1.684   0.345
  587HOH     H2 1949   1.566   1.798   0.247
  588HOH      O 1950   2.559   0.497   2.231
  588HOH     H1 1951   2.601   0.424   2.278
  588HOH     H2 1952   2.526   0.554   2.300
  589HOH      O 1953   1.414   0.555   1.714
  589HOH     H1 1954   1.387   0.465   1.732
  589HOH     H2 1955   1.507   0.556   1.735
  590HOH      O 1956   0.497   0.264   0.222
  590HOH     H1 1957   0.471   0.206   0.293
  590HOH     H2 1958   0.547   0.208   0.162
  591HOH      O 1959   0.035   2.533   3.804
  591HOH     H1 1960   0.087   2.465   3.847
  591HOH     H2 1961   0.100   2.593   3.766
  592HOH      O 1962   3.889   0.797   1.400
  592HOH     H1 1963   3.797   0.824   1.389
  592HOH     H2 1964   3.886   0.702   1.395
  593HOH      O 1965   1.202   2.962   1.724
  593HOH     H1 1966   1.270   2.917   1.774
  593HOH     H2 1967   1.159   2.892   1.674
  594HOH      O 1968   1.407   1.701   1.778
  594HOH     H1 1969   1.467   1.704   1.852
  594HOH     H2 1970   1.454   1.652   1.710
  595HOH      O 1971   2.453   1.108   3.024
  595HOH     H1 1972   2.378   1.070   2.980
  595HOH     H2 1973   2.416   1.159   3.096
  596HOH      O 1974   3.490   1.199   0.007
  596HOH     H1 1975   3.430   1.130   0.034
  596HOH     H2 1976   3.572   1.179   0.051
  597HOH      O 1977   0.244   0.926   2.004
  597HOH     H1 1978   0.281   0.932   1.916
  597HOH     H2 1979   0.257   1.013   2.042
  598HOH      O 1980   0.683   1.891   0.479
  598HOH     H1 1981   0.611   1.843   0.439
  598HOH     H2 1982   0.761   1.863   0.431
  599HOH      O 1983   3.417   3.319   2.813
  599HOH     H1 1984   3.358   3.295   2.742
  599HOH     H2 1985   3.408   3.247   2.876
  600HOH      O 1986   1.783   3.289   2.149
  600HOH     H1 1987   1.838   3.270   2.224
  600HOH     H2 1988   1.807   3.223   2.084
  601HOH      O 1989   2.284   1.139   0.520
  601HOH     H1 1990   2.245   1.158   0.435
  601HOH     H2 1991   2.376   1.164   0.510
  602HOH      O 1992   0.983   2.823   1.622
  602HOH     H1 1993   0.970   2.746   1.567
  602HOH     H2 1994   0.899   2.869   1.620
  603HOH      O 1995   0.066   1.539   1.713
  603HOH     H1 1996   0.098   1.496   1.633
  603HOH     H2 1997  -0.000   1.601   1.681
  604HOH      O 1998   1.195   0.617   3.966
  604HOH     H1 1999   1.159   0.530   3.978
  604HOH     H2 2000   1.168   0.666   4.044
  605HOH      O 2001   0.681   1.517   1.329
  605HOH     H1 2002   0.670   1.456   1.402
  605HOH     H2 2003   0.612   1.582   1.341
  606HOH      O 2004   0.964   2.960   0.856
  606HOH     H1 2005   0.902   2.993   0.921
  606HOH     H2 2006   1.050   2.982   0.891
  607HOH      O 2007   0.793   0.038   2.336
  607HOH     H1 2008   0.819   0.013   2.247
  607HOH     H2 2009   0.699   0.053   2.330
  608HOH      O 2010   1.127   1.866   3.408
  608HOH     H1 2011   1.221   1.882   3.415
  608HOH     H2 2012   1.107   1.880   3.315
  609HOH      O 2013   1.468   3.555   0.439
  609HOH     H1 2014   1.465   3.530   0.531
  609HOH     H2 2015   1.481   3.472   0.393
  610HOH      O 2016   3.496   1.784   2.816
  610HOH     H1 2017   3.561   1.781   2.746
  610HOH     H2 2018   3.432   1.717   2.791
  611HOH      O 2019   0.229   2.252   2.097
  611HOH     H1 2020   0.140   2.249   2.064
  611HOH     H2 2021   0.225   2.212   2.184
  612HOH      O 2022   3.738   2.811   0.266
  612HOH     H1 2023   3.663   2.774   0.312
  612HOH     H2 2024   3.731   2.776   0.177
  613HOH      O 2025   1.252   1.402   1.137
  613HOH     H1 2026   1.291   1.317   1.160
  613HOH     H2 2027   1.302   1.466   1.187
  614HOH      O 2028   1.956   1.328   2.082
  614HOH     H1 2029   1.867   1.324   2.117
  614HOH     H2 2030   1.959   1.409   2.032
  615HOH      O 2031   3.308   0.686   1.246
  615HOH     H1 2032   3.255   0.666   1.323
  615HOH     H2 2033   3.245   0.713   1.179
  616HOH      O 2034   2.594   1.427   3.711
  616HOH     H1 2035   2.550   1.489   3.652
  616HOH     H2 2036   2.611   1.351   3.656
  617HOH      O 2037   0.219   3.689   3.846
  617HOH     H1 2038   0.162   3.709   3.772
  617HOH     H2 2039   0.168   3.627   3.899
  618HOH      O 2040   1.147   3.047   2.839
  618HOH     H1 2041   1.171   2.995   2.915
  618HOH     H2 2042   1.195   3.009   2.767
  619HOH      O 2043   0.537   2.052   3.937
  619HOH     H1 2044   0.530   2.136   3.981
  619HOH     H2 2045   0.628   2.024   3.952
  620HOH      O 2046   3.848   1.809   1.866
  620HOH     H1 2047   3.922   1.796   1.807
  620HOH     H2 2048   3.878   1.775   1.950
  621HOH      O 2049   1.573   2.950   2.327
  621HOH     H1 2050   1.612   2.863   2.319
  621HOH     H2 2051   1.490   2.935   2.372
  622HOH      O 2052   0.790   1.501   2.379
  622HOH     H1 2053   0.765   1.460   2.462
  622HOH     H2 2054   0.858   1.563   2.404
  623HOH      O 2055   0.394   2.086   3.281
  623HOH     H1 2056   0.478   2.125   3.305
  623HOH     H2 2057   0.396   2.084   3.185
  624HOH      O 2058   2.983   1.118   0.897
  624HOH     H1 2059   2.945   1.203   0.878
  624HOH     H2 2060   3.063   1.137   0.945
  625HOH      O 2061   0.721   0.165   1.332
  625HOH     H1 2062   0.639   0.211   1.313
  625HOH     H2 2063   0.770   0.226   1.387
  626HOH      O 2064   0.624   3.593   0.968
  626HOH     H1 2065   0.685   3.604   1.041
  626HOH     H2 2066   0.658   3.652   0.900
  627HOH      O 2067   3.751   2.150   3.595
  627HOH     H1 2068   3.841   2.182   3.604
  627HOH     H2 2069   3.758   2.056   3.613
  628HOH      O 2070   3.036   3.573   0.563
  628HOH     H1 2071   2.963   3.634   0.569
  628HOH     H2 2072   3.095   3.599   0.633
  629HOH      O 2073   0.740   0.186   2.032
  629HOH     H1 2074   0.781   0.101   2.050
  629HOH     H2 2075   0.813   0.248   2.033
  630HOH      O 2076   1.467   3.297   0.930
  630HOH     H1 2077   1.399   3.229   0.930
  630HOH     H2 2078   1.456   3.340   1.015
  631HOH      O 2079   2.670   3.650   2.111
  631HOH     H1 2080   2.632   3.736   2.092
  631HOH     H2 2081   2.765   3.666   2.113
  632HOH      O 2082   1.143   1.387   2.539
  632HOH     H1 2083   1.060   1.340   2.552
  632HOH     H2 2084   1.146   1.450   2.611
  633HOH      O 2085   1.880   1.064   3.985
  633HOH     H1 2086   1.833   1.054   3.903
  633HOH     H2 2087   1.970   1.083   3.960
  634HOH      O 2088   0.481   1.803   0.306
  634HOH     H1 2089   0.475   1.816   0.212
  634HOH     H2 2090   0.505   1.711   0.317
  635HOH      O 2091   3.746   2.292   2.214
  635HOH     H1 2092   3.747   2.383   2.243
  635HOH     H2 2093   3.654   2.274   2.195
  636HOH      O 2094   0.999   3.346   1.399
  636HOH     H1 2095   1.086   3.387   1.400
  636HOH     H2 2096   1.011   3.263   1.445
  637HOH      O 2097   1.911   2.522   0.294
  637HOH     H1 2098   1.940   2.531   0.204
  637HOH     H2 2099   1.992   2.525   0.346
  638HOH      O 2100   2.691   2.335   0.191
  638HOH     H1 2101   2.715   2.277   0.263
  638HOH     H2 2102   2.739   2.416   0.209
  639HOH      O 2103   0.020   0.774   3.098
  639HOH     H1 2104  -0.009   0.852   3.145
  639HOH     H2 2105  -0.038   0.769   3.022
  640HOH      O 2106   2.483   3.521   2.686
  640HOH     H1 2107   2.536   3.456   2.640
  640HOH     H2 2108   2.457   3.477   2.767
  641HOH      O 2109   0.241   3.798   0.166
  641HOH     H1 2110   0.229   3.717   0.116
  641HOH     H2 2111   0.253   3.769   0.257
  642HOH      O 2112   3.532   2.754   2.419
  642HOH     H1 2113   3.449   2.730   2.378
  642HOH     H2 2114   3.585   2.790   2.348
  643HOH      O 2115   2.392   0.528   2.629
  643HOH     H1 2116   2.474   0.492   2.661
  643HOH     H2 2117   2.333   0.524   2.704
  644HOH      O 2118   0.284   3.566   1.881
  644HOH     H1 2119   0.333   3.488   1.908
  644HOH     H2 2120   0.333   3.600   1.806
  645HOH      O 2121   1.661   3.082   3.721
  645HOH     H1 2122   1.576   3.082   3.764
  645HOH     H2 2123   1.648   3.028   3.643
  646HOH      O 2124   1.850   1.834   3.379
  646HOH     H1 2125   1.919   1.900   3.378
  646HOH     H2 2126   1.841   1.806   3.288
  647HOH      O 2127   0.199   3.682   3.461
  647HOH     H1 2128   0.193   3.644   3.373
  647HOH     H2 2129   0.254   3.620   3.509
  648HOH      O 2130   2.860   2.602   1.663
  648HOH     H1 2131   2.781   2.582   1.714
  648HOH     H2 2132   2.913   2.523   1.669
  649HOH      O 2133   2.356   3.491   0.538
  649HOH     H1 2134   2.442   3.451   0.546
  649HOH     H2 2135   2.363   3.572   0.590
  650HOH      O 2136   2.191   1.481   3.013
  650HOH     H1 2137   2.180   1.558   2.959
  650HOH     H2 2138   2.272   1.496   3.061
  651HOH      O 2139   3.995   0.539   0.362
  651HOH     H1 2140   4.022   0.447   0.361
  651HOH     H2 2141   3.926   0.543   0.296
  652HOH      O 2142   3.497   3.910   1.349
  652HOH     H1 2143   3.572   3.874   1.396
  652HOH     H2 2144   3.484   3.997   1.388
  653HOH      O 2145   1.716   1.287   1.821
  653HOH     H1 2146   1.632   1.320   1.852
  653HOH     H2 2147   1.734   1.338   1.742
  654HOH      O 2148   1.701   0.953   2.677
  654HOH     H1 2149   1.714   1.039   2.638
  654HOH     H2 2150   1.631   0.965   2.741
  655HOH      O 2151   3.864   1.518   2.998
  655HOH     H1 2152   3.870   1.547   3.089
  655HOH     H2 2153   3.818   1.434   3.003
  656HOH      O 2154   3.204   1.491   2.111
  656HOH     H1 2155   3.166   1.578   2.097
  656HOH     H2 2156   3.155   1.434   2.052
  657HOH      O 2157   1.866   1.510   0.307
  657HOH     H1 2158   1.867   1.588   0.362
  657HOH     H2 2159   1.888   1.439   0.367
  658HOH      O 2160   2.316   2.195   0.930
  658HOH     H1 2161   2.267   2.181   1.011
  658HOH     H2 2162   2.408   2.184   0.956
  659HOH      O 2163   0.675   0.543   3.159
  659HOH     H1 2164   0.675   0.586   3.244
  659HOH     H2 2165   0.623   0.600   3.103
  660HOH      O 2166   2.463   2.505   1.071
  660HOH     H1 2167   2.504   2.446   1.008
  660HOH     H2 2168   2.370   2.503   1.049
  661HOH      O 2169   1.941   0.001   0.643
  661HOH     H1 2170   1.977   0.041   0.722
  661HOH     H2 2171   2.018  -0.029   0.594
  662HOH      O 2172   1.710   2.266   2.602
  662HOH     H1 2173   1.802   2.280   2.622
  662HOH     H2 2174   1.688   2.335   2.540
  663HOH      O 2175   1.033   0.637   2.507
  663HOH     H1 2176   0.992   0.704   2.452
  663HOH     H2 2177   1.079   0.687   2.575
  664HOH      O 2178   1.162   1.647   1.475
  664HOH     H1 2179   1.188   1.707   1.405
  664HOH     H2 2180   1.212   1.568   1.458
  665HOH      O 2181   0.049   0.975   0.285
  665HOH     H1 2182   0.053   1.037   0.213
  665HOH     H2 2183   0.138   0.974   0.321
  666HOH      O 2184   0.270   2.754   2.271
  666HOH     H1 2185   0.304   2.840   2.247
  666HOH     H2 2186   0.333   2.692   2.233
  667HOH      O 2187   1.773   1.300   0.135
  667HOH     H1 2188   1.842   1.285   0.200
  667HOH     H2 2189   1.798   1.245   0.061
  668HOH      O 2190   3.792   1.812   0.249
  668HOH     H1 2191   3.856   1.817   0.320
  668HOH     H2 2192   3.805   1.892   0.199
  669HOH      O 2193   3.715   3.317   1.076
  669HOH     H1 2194   3.664   3.362   1.143
  669HOH     H2 2195   3.652   3.303   1.005
  670HOH      O 2196   2.607   3.311   0.817
  670HOH     H1 2197   2.662   3.299   0.895
  670HOH     H2 2198   2.530   3.359   0.849
  671HOH      O 2199   2.760   0.254   1.176
  671HOH     H1 2200   2.722   0.194   1.112
  671HOH     H2 2201   2.845   0.277   1.139
  672HOH      O 2202   2.521   0.122   2.132
  672HOH     H1 2203   2.516   0.082   2.219
  672HOH     H2 2204   2.430   0.125   2.102
  673HOH      O 2205   1.028   1.904   0.044
  673HOH     H1 2206   1.053   1.814   0.021
  673HOH     H2 2207   1.109   1.945   0.074
  674HOH      O 2208   0.172   1.291   0.285
  674HOH     H1 2209   0.126   1.264   0.206
  674HOH     H2 2210   0.109   1.276   0.356
  675HOH      O 2211   3.179   1.515   3.238
  675HOH     H1 2212   3.135   1.549   3.161
  675HOH     H2 2213   3.253   1.575   3.252
  676HOH      O 2214   1.262   1.709   2.483
  676HOH     H1 2215   1.279   1.694   2.390
  676HOH     H2 2216   1.348   1.712   2.524
  677HOH      O 2217   3.420   0.004   1.760
  677HOH     H1 2218   3.354   0.032   1.697
  677HOH     H2 2219   3.488  -0.037   1.707
  678HOH      O 2220   0.879   2.254   1.762
  678HOH     H1 2221   0.954   2.310   1.785
  678HOH     H2 2222   0.887   2.178   1.820
  679HOH      O 2223   2.820   0.382   2.934
  679HOH     H1 2224   2.863   0.419   3.011
  679HOH     H2 2225   2.892   0.353   2.877
  680HOH      O 2226   1.376   2.081   2.177
  680HOH     H1 2227   1.364   1.998   2.130
  680HOH     H2 2228   1.467   2.079   2.206
  681HOH      O 2229   3.340   2.018   2.039
  681HOH     H1 2230   3.404   1.951   2.014
  681HOH     H2 2231   3.281   1.973   2.100
  682HOH      O 2232   1.205   3.360   0.623
  682HOH     H1 2233   1.297   3.372   0.647
  682HOH     H2 2234   1.162   3.338   0.706
  683HOH      O 2235   2.374   0.039   0.123
  683HOH     H1 2236   2.317   0.115   0.117
  683HOH     H2 2237   2.321  -0.034   0.092
  684HOH      O 2238   2.617   2.515   3.368
  684HOH     H1 2239   2.593   2.435   3.415
  684HOH     H2 2240   2.535   2.565   3.365
  685HOH      O 2241   3.437   2.607   1.334
  685HOH     H1 2242   3.525   2.640   1.356
  685HOH     H2 2243   3.379   2.681   1.352
  686HOH      O 2244   3.588   1.978   3.251
  686HOH     H1 2245   3.608   1.921   3.176
  686HOH     H2 2246   3.636   2.058   3.233
  687HOH      O 2247   3.948   0.978   0.708
  687HOH     H1 2248   4.038   0.944   0.700
  687HOH     H2 2249   3.893   0.905   0.680
  688HOH      O 2250   1.721   3.303   0.130
  688HOH     H1 2251   1.797   3.252   0.157
  688HOH     H2 2252   1.699   3.270   0.043
  689HOH      O 2253   3.882   3.536   1.034
  689HOH     H1 2254   3.808   3.533   0.974
  689HOH     H2 2255   3.928   3.618   1.012
  690HOH      O 2256   3.530   3.965   2.014
  690HOH     H1 2257   3.617   3.938   1.985
  690HOH     H2 2258   3.477   3.965   1.935
  691HOH      O 2259   0.941   1.312   3.695
  691HOH     H1 2260   0.975   1.268   3.772
  691HOH     H2 2261   0.847   1.323   3.712
  692HOH      O 2262   2.920   2.865   2.431
  692HOH     H1 2263   2.882   2.899   2.350
  692HOH     H2 2264   2.963   2.784   2.404
  693HOH      O 2265   0.504   1.953   1.026
  693HOH     H1 2266   0.565   1.945   0.953
  693HOH     H2 2267   0.557   1.931   1.103
  694HOH      O 2268   2.985   1.265   1.621
  694HOH     H1 2269   3.023   1.191   1.574
  694HOH     H2 2270   2.989   1.239   1.713
  695HOH      O 2271   0.297   0.306   3.745
  695HOH     H1 2272   0.284   0.401   3.750
  695HOH     H2 2273   0.249   0.278   3.668
  696HOH      O 2274   0.563   3.969   0.721
  696HOH     H1 2275   0.549   4.055   0.761
  696HOH     H2 2276   0.603   3.989   0.636
  697HOH      O 2277   1.008   1.664   2.359
  697HOH     H1 2278   1.058   1.672   2.441
  697HOH     H2 2279   1.049   1.727   2.300
  698HOH      O 2280   0.083   1.800   0.651
  698HOH     H1 2281   0.170   1.839   0.654
  698HOH     H2 2282   0.095   1.716   0.606
  699HOH      O 2283   0.798   3.943   1.043
  699HOH     H1 2284   0.845   3.863   1.018
  699HOH     H2 2285   0.825   4.008   0.978
  700HOH      O 2286   1.591   2.311   1.431
  700HOH     H1 2287   1.577   2.336   1.340
  700HOH     H2 2288   1.661   2.370   1.461
  701HOH      O 2289   0.533   0.325   3.878
  701HOH     H1 2290   0.461   0.287   3.828
  701HOH     H2 2291   0.513   0.418   3.882
  702HOH      O 2292   2.114   1.077   3.581
  702HOH     H1 2293   2.065   1.001   3.550
  702HOH     H2 2294   2.136   1.057   3.671
  703HOH      O 2295   0.130   1.677   3.678
  703HOH     H1 2296   0.077   1.726   3.741
  703HOH     H2 2297   0.143   1.738   3.605
  704HOH      O 2298   1.733   1.295   0.588
  704HOH     H1 2299   1.749   1.203   0.611
  704HOH     H2 2300   1.788   1.311   0.511
  705HOH      O 2301   3.927   2.124   3.214
  705HOH     H1 2302   3.840   2.163   3.226
  705HOH     H2 2303   3.910   2.035   3.184
  706HOH      O 2304   0.025   2.611   2.211
  706HOH     H1 2305   0.107   2.657   2.229
  706HOH     H2 2306  -0.013   2.594   2.297
  707HOH      O 2307   0.299   2.229   3.764
  707HOH     H1 2308   0.297   2.275   3.680
  707HOH     H2 2309   0.373   2.169   3.757
  708HOH      O 2310   2.186   3.440   0.325
  708HOH     H1 2311   2.213   3.448   0.417
  708HOH     H2 2312   2.090   3.440   0.328
  709HOH      O 2313   1.906   0.393   3.210
  709HOH     H1 2314   1.984   0.343   3.188
  709HOH     H2 2315   1.904   0.465   3.148
  710HOH      O 2316   2.894   0.956   3.625
  710HOH     H1 2317   2.859   0.929   3.710
  710HOH     H2 2318   2.970   0.901   3.612
  711HOH      O 2319   3.782   3.064   1.471
  711HOH     H1 2320   3.861   3.010   1.481
  711HOH     H2 2321   3.815   3.151   1.449
  712HOH      O 2322   3.620   0.984   3.367
  712HOH     H1 2323   3.623   1.079   3.356
  712HOH     H2 2324   3.616   0.950   3.278
  713HOH      O 2325   2.253   0.463   3.279
  713HOH     H1 2326   2.193   0.397   3.245
  713HOH     H2 2327   2.315   0.479   3.207
  714HOH      O 2328   1.184   2.209   3.591
  714HOH     H1 2329   1.267   2.245   3.623
  714HOH     H2 2330   1.182   2.120   3.626
  715HOH      O 2331   4.000   3.334   3.251
  715HOH     H1 2332   4.056   3.294   3.184
  715HOH     H2 2333   4.060   3.386   3.304
  716HOH      O 2334   4.020   1.629   2.339
  716HOH     H1 2335   4.106   1.600   2.311
  716HOH     H2 2336   4.035   1.671   2.424
  717HOH      O 2337   0.276   0.910   0.440
  717HOH     H1 2338   0.214   0.928   0.511
  717HOH     H2 2339   0.359   0.946   0.472
  718HOH      O 2340   1.510   0.242   1.569
  718HOH     H1 2341   1.599   0.261   1.542
  718HOH     H2 2342   1.510   0.149   1.591
  719HOH      O 2343   3.323   1.456   2.974
  719HOH     H1 2344   3.264   1.531   2.974
  719HOH     H2 2345   3.340   1.439   2.881
  720HOH      O 2346   1.477   1.180   3.388
  720HOH     H1 2347   1.545   1.187   3.322
  720HOH     H2 2348   1.513   1.226   3.464
  721HOH      O 2349   0.242   0.123   3.304
  721HOH     H1 2350   0.315   0.071   3.272
  721HOH     H2 2351   0.177   0.120   3.234
  722HOH      O 2352   0.843   1.036   0.872
  722HOH     H1 2353   0.923   0.988   0.851
  722HOH     H2 2354   0.853   1.062   0.963
  723HOH      O 2355   2.741   0.062   0.540
  723HOH     H1 2356   2.735  -0.016   0.485
  723HOH     H2 2357   2.831   0.092   0.530
  724HOH      O 2358   1.472   2.913   0.521
  724HOH     H1 2359   1.383   2.949   0.521
  724HOH     H2 2360   1.502   2.923   0.611
  725HOH      O 2361   3.865   3.909   0.243
  725HOH     H1 2362   3.831   3.872   0.162
  725HOH     H2 2363   3.788   3.920   0.299
  726HOH      O 2364   3.902   3.354   1.511
  726HOH     H1 2365   3.943   3.303   1.580
  726HOH     H2 2366   3.819   3.384   1.549
  727HOH      O 2367   2.886   2.509   3.015
  727HOH     H1 2368   2.819   2.441   3.011
  727HOH     H2 2369   2.883   2.541   3.105
  728HOH      O 2370   0.397   2.777   3.421
  728HOH     H1 2371   0.401   2.772   3.325
  728HOH     H2 2372   0.465   2.839   3.445
  729HOH      O 2373   3.397   0.202   1.137
  729HOH     H1 2374   3.347   0.172   1.213
  729HOH     H2 2375   3.441   0.281   1.167
  730HOH      O 2376   2.510   0.158   1.844
  730HOH     H1 2377   2.594   0.131   1.806
  730HOH     H2 2378   2.471   0.216   1.778
  731HOH      O 2379   0.628   2.192   2.089
  731HOH     H1 2380   0.629   2.154   2.176
  731HOH     H2 2381   0.713   2.170   2.052
  732HOH      O 2382   1.631   3.306   1.215
  732HOH     H1 2383   1.583   3.336   1.292
  732HOH     H2 2384   1.655   3.215   1.237
  733HOH      O 2385   1.443   0.428   2.727
  733HOH     H1 2386   1.372   0.492   2.733
  733HOH     H2 2387   1.419   0.360   2.790
  734HOH      O 2388   1.426   3.839   1.735
  734HOH     H1 2389   1.386   3.752   1.735
  734HOH     H2 2390   1.510   3.826   1.781
  735HOH      O 2391   2.870   1.537   2.791
  735HOH     H1 2392   2.778   1.538   2.765
  735HOH     H2 2393   2.888   1.627   2.818
  736HOH      O 2394   3.232   2.947   0.500
  736HOH     H1 2395   3.173   3.022   0.506
  736HOH     H2 2396   3.319   2.986   0.488
  737HOH      O 2397   1.371   1.059   0.463
  737HOH     H1 2398   1.412   1.057   0.549
  737HOH     H2 2399   1.398   0.977   0.421
  738HOH      O 2400   0.177   1.529   0.124
  738HOH     H1 2401   0.250   1.520   0.063
  738HOH     H2 2402   0.174   1.446   0.172
  739HOH      O 2403   1.285   1.079   0.167
  739HOH     H1 2404   1.276   1.064   0.261
  739HOH     H2 2405   1.379   1.086   0.153
  740HOH      O 2406   2.416   0.352   0.821
  740HOH     H1 2407   2.444   0.363   0.912
  740HOH     H2 2408   2.373   0.435   0.799
  741HOH      O 2409   1.661   0.638   1.821
  741HOH     H1 2410   1.602   0.649   1.895
  741HOH     H2 2411   1.722   0.711   1.828
  742HOH      O 2412   2.666   3.501   0.194
  742HOH     H1 2413   2.676   3.555   0.116
  742HOH     H2 2414   2.735   3.531   0.253
  743HOH      O 2415   0.074   2.548   3.457
  743HOH     H1 2416   0.120   2.624   3.492
  743HOH     H2 2417   0.102   2.542   3.366
  744HOH      O 2418   3.094   0.527   0.889
  744HOH     H1 2419   3.166   0.463   0.883
  744HOH     H2 2420   3.108   0.585   0.814
  745HOH      O 2421   3.440   1.581   1.978
  745HOH     H1 2422   3.389   1.659   1.957
  745HOH     H2 2423   3.393   1.539   2.050
  746HOH      O 2424   1.979   3.825   1.976
  746HOH     H1 2425   2.002   3.733   1.985
  746HOH     H2 2426   2.035   3.857   1.905
  747HOH      O 2427   2.030   0.457   2.804
  747HOH     H1 2428   2.011   0.514   2.729
  747HOH     H2 2429   2.109   0.496   2.843
  748HOH      O 2430   3.251   2.709   3.775
  748HOH     H1 2431   3.315   2.720   3.705
  748HOH     H2 2432   3.267   2.783   3.834
  749HOH      O 2433   0.870   0.781   1.485
  749HOH     H1 2434   0.963   0.759   1.482
  749HOH     H2 2435   0.862   0.839   1.561
  750HOH      O 2436   0.620   3.138   2.670
  750HOH     H1 2437   0.579   3.123   2.756
  750HOH     H2 2438   0.707   3.097   2.677
  751HOH      O 2439   0.623   0.670   1.407
  751HOH     H1 2440   0.712   0.705   1.413
  751HOH     H2 2441   0.616   0.639   1.316
  752HOH      O 2442   0.963   2.818   0.619
  752HOH     H1 2443   0.938   2.874   0.692
  752HOH     H2 2444   0.970   2.878   0.544
  753HOH      O 2445   2.622   1.797   1.117
  753HOH     H1 2446   2.602   1.782   1.210
  753HOH     H2 2447   2.538   1.820   1.078
  754HOH      O 2448   3.990   3.289   1.119
  754HOH     H1 2449   3.901   3.256   1.130
  754HOH     H2 2450   3.979   3.371   1.071
  755HOH      O 2451   1.173   0.345   2.826
  755HOH     H1 2452   1.099   0.344   2.887
  755HOH     H2 2453   1.245   0.305   2.875
  756HOH      O 2454   2.781   0.840   2.930
  756HOH     H1 2455   2.731   0.878   2.858
  756HOH     H2 2456   2.750   0.886   3.008
  757HOH      O 2457   0.354   1.817   3.356
  757HOH     H1 2458   0.365   1.905   3.320
  757HOH     H2 2459   0.426   1.807   3.418
  758HOH      O 2460   0.596   1.804   3.461
  758HOH     H1 2461   0.622   1.795   3.552
  758HOH     H2 2462   0.673   1.840   3.417
  759HOH      O 2463   3.584   2.483   2.764
  759HOH     H1 2464   3.550   2.478   2.675
  759HOH     H2 2465   3.548   2.405   2.807
  760HOH      O 2466   0.201   4.014   3.922
  760HOH     H1 2467   0.275   4.028   3.862
  760HOH     H2 2468   0.240   3.977   4.001
  761HOH      O 2469   3.967   1.273   2.100
  761HOH     H1 2470   3.875   1.251   2.085
  761HOH     H2 2471   4.009   1.254   2.016
  762HOH      O 2472   4.000   3.544   2.918
  762HOH     H1 2473   3.958   3.536   3.003
  762HOH     H2 2474   3.969   3.628   2.884
  763HOH      O 2475   2.665   1.980   0.834
  763HOH     H1 2476   2.656   2.060   0.886
  763HOH     H2 2477   2.713   1.920   0.891
  764HOH      O 2478   0.210   2.124   2.321
  764HOH     H1 2479   0.115   2.111   2.317
  764HOH     H2 2480   0.246   2.035   2.317
  765HOH      O 2481   3.410   4.022   0.977
  765HOH     H1 2482   3.419   4.115   0.997
  765HOH     H2 2483   3.480   3.980   1.027
  766HOH      O 2484   4.010   3.346   0.191
  766HOH     H1 2485   4.025   3.425   0.138
  766HOH     H2 2486   3.955   3.376   0.264
  767HOH      O 2487   1.918   0.409   1.049
  767HOH     H1 2488   1.944   0.493   1.087
  767HOH     H2 2489   1.990   0.349   1.072
  768HOH      O 2490   2.067   0.880   1.014
  768HOH     H1 2491   2.099   0.968   0.996
  768HOH     H2 2492   2.145   0.830   1.036
  769HOH      O 2493   1.293   1.333   2.120
  769HOH     H1 2494   1.223   1.268   2.124
  769HOH     H2 2495   1.314   1.351   2.211
  770HOH      O 2496   2.662   0.507   1.817
  770HOH     H1 2497   2.650   0.507   1.722
  770HOH     H2 2498   2.662   0.599   1.842
  771HOH      O 2499   1.456   1.856   1.416
  771HOH     H1 2500   1.526   1.806   1.459
  771HOH     H2 2501   1.469   1.946   1.447
  772HOH      O 2502   3.282   1.035   0.094
  772HOH     H1 2503   3.298   0.950   0.133
  772HOH     H2 2504   3.272   1.018   0.001
  773HOH      O 2505   0.495   0.518   3.610
  773HOH     H1 2506   0.540   0.474   3.682
  773HOH     H2 2507   0.470   0.448   3.550
  774HOH      O 2508   0.876   1.818   2.103
  774HOH     H1 2509   0.836   1.820   2.190
  774HOH     H2 2510   0.905   1.727   2.093
  775HOH      O 2511   1.174   3.578   3.808
  775HOH     H1 2512   1.253   3.630   3.822
  775HOH     H2 2513   1.183   3.547   3.717
  776HOH      O 2514   2.013   1.901   1.313
  776HOH     H1 2515   2.010   1.918   1.408
  776HOH     H2 2516   2.038   1.808   1.306
  777HOH      O 2517   2.407   1.306   3.220
  777HOH     H1 2518   2.468   1.375   3.197
  777HOH     H2 2519   2.379   1.327   3.309
  778HOH      O 2520   1.002   3.845   1.606
  778HOH     H1 2521   0.975   3.758   1.577
  778HOH     H2 2522   1.096   3.848   1.590
  779HOH      O 2523   0.573   2.615   2.651
  779HOH     H1 2524   0.495   2.564   2.671
  779HOH     H2 2525   0.579   2.614   2.555
  780HOH      O 2526   0.487   2.865   1.912
  780HOH     H1 2527   0.517   2.884   2.001
  780HOH     H2 2528   0.450   2.778   1.917
  781HOH      O 2529   1.210   2.856   3.064
  781HOH     H1 2530   1.165   2.779   3.028
  781HOH     H2 2531   1.283   2.821   3.114
  782HOH      O 2532   2.887   3.767   2.398
  782HOH     H1 2533   2.817   3.731   2.452
  782HOH     H2 2534   2.918   3.693   2.347
  783HOH      O 2535   3.271   1.568   2.662
  783HOH     H1 2536   3.277   1.607   2.575
  783HOH     H2 2537   3.271   1.474   2.646
  784HOH      O 2538   2.451   1.138   2.654
  784HOH     H1 2539   2.362   1.115   2.681
  784HOH     H2 2540   2.441   1.224   2.613
  785HOH      O 2541   1.288   0.152   3.661
  785HOH     H1 2542   1.380   0.170   3.678
  785HOH     H2 2543   1.269   0.074   3.713
  786HOH      O 2544   3.801   2.052   1.723
  786HOH     H1 2545   3.894   2.066   1.704
  786HOH     H2 2546   3.799   1.975   1.779
  787HOH      O 2547   1.660   2.053   3.756
  787HOH     H1 2548   1.625   1.970   3.789
  787HOH     H2 2549   1.691   2.098   3.835
  788HOH      O 2550   1.809   0.851   1.864
  788HOH     H1 2551   1.827   0.896   1.781
  788HOH     H2 2552   1.780   0.921   1.923
  789HOH      O 2553   1.803   0.139   0.972
  789HOH     H1 2554   1.883   0.168   0.928
  789HOH     H2 2555   1.745   0.214   0.970
  790HOH      O 2556   1.573   2.477   3.128
  790HOH     H1 2557   1.492   2.497   3.081
  790HOH     H2 2558   1.639   2.466   3.060
  791HOH      O 2559   0.952   0.584   3.469
  791HOH     H1 2560   1.039   0.584   3.429
  791HOH     H2 2561   0.959   0.648   3.539
  792HOH      O 2562   1.541   1.472   0.655
  792HOH     H1 2563   1.508   1.435   0.737
  792HOH     H2 2564   1.617   1.418   0.633
  793HOH      O 2565   1.703   0.110   1.914
  793HOH     H1 2566   1.665   0.190   1.878
  793HOH     H2 2567   1.789   0.136   1.945
  794HOH      O 2568   0.204   3.786   3.080
  794HOH     H1 2569   0.243   3.703   3.053
  794HOH     H2 2570   0.251   3.853   3.031
  795HOH      O 2571   1.270   2.220   0.041
  795HOH     H1 2572   1.295   2.136   0.003
  795HOH     H2 2573   1.218   2.263  -0.028
  796HOH      O 2574   0.080   2.936   2.038
  796HOH     H1 2575   0.102   2.988   1.960
  796HOH     H2 2576   0.102   2.846   2.014
  797HOH      O 2577   2.519   3.487   1.286
  797HOH     H1 2578   2.439   3.455   1.245
  797HOH     H2 2579   2.530   3.431   1.364
  798HOH      O 2580   3.606   3.939   3.365
  798HOH     H1 2581   3.589   4.010   3.426
  798HOH     H2 2582   3.701   3.938   3.354
  799HOH      O 2583   3.306   3.356   0.550
  799HOH     H1 2584   3.345   3.298   0.484
  799HOH     H2 2585   3.234   3.305   0.586
  800HOH      O 2586   0.855   0.733   0.344
  800HOH     H1 2587   0.861   0.753   0.437
  800HOH     H2 2588   0.853   0.637   0.340
  801HOH      O 2589   0.662   2.366   1.226
  801HOH     H1 2590   0.711   2.340   1.304
  801HOH     H2 2591   0.573   2.385   1.258
  802HOH      O 2592   2.354   2.657   3.378
  802HOH     H1 2593   2.298   2.644   3.302
  802HOH     H2 2594   2.336   2.582   3.434
  803HOH      O 2595   1.031   3.782   3.563
  803HOH     H1 2596   1.105   3.721   3.556
  803HOH     H2 2597   0.969   3.753   3.496
  804HOH      O 2598   0.821   0.962   3.317
  804HOH     H1 2599   0.912   0.937   3.333
  804HOH     H2 2600   0.793   1.002   3.399
  805HOH      O 2601   3.184   1.323   0.820
  805HOH     H1 2602   3.190   1.271   0.740
  805HOH     H2 2603   3.275   1.337   0.846
  806HOH      O 2604   1.627   1.543   3.466
  806HOH     H1 2605   1.660   1.632   3.457
  806HOH     H2 2606   1.540   1.553   3.503
  807HOH      O 2607   2.380   2.811   3.761
  807HOH     H1 2608   2.367   2.846   3.849
  807HOH     H2 2609   2.474   2.808   3.750
  808HOH      O 2610   0.670   2.177   3.263
  808HOH     H1 2611   0.696   2.122   3.189
  808HOH     H2 2612   0.719   2.142   3.337
  809HOH      O 2613   2.082   1.384   3.429
  809HOH     H1 2614   2.103   1.452   3.494
  809HOH     H2 2615   2.060   1.433   3.350
  810HOH      O 2616   3.932   1.561   0.042
  810HOH     H1 2617   4.025   1.541   0.044
  810HOH     H2 2618   3.914   1.602   0.127
  811HOH      O 2619   2.438   0.128   0.496
  811HOH     H1 2620   2.415   0.042   0.460
  811HOH     H2 2621   2.521   0.114   0.542
  812HOH      O 2622   0.770   1.871   2.365
  812HOH     H1 2623   0.811   1.814   2.429
  812HOH     H2 2624   0.790   1.960   2.396
  813HOH      O 2625   2.851   2.621   0.718
  813HOH     H1 2626   2.869   2.714   0.732
  813HOH     H2 2627   2.934   2.586   0.683
  814HOH      O 2628   0.533   2.437   1.776
  814HOH     H1 2629   0.471   2.491   1.825
  814HOH     H2 2630   0.618   2.459   1.814
  815HOH      O 2631   0.103   2.701   1.860
  815HOH     H1 2632   0.034   2.657   1.908
  815HOH     H2 2633   0.118   2.646   1.783
  816HOH      O 2634   3.153   3.222   3.896
  816HOH     H1 2635   3.162   3.245   3.989
  816HOH     H2 2636   3.135   3.128   3.897
  817HOH      O 2637   2.651   0.988   3.134
  817HOH     H1 2638   2.581   1.028   3.083
  817HOH     H2 2639   2.606   0.926   3.192
  818HOH      O 2640   3.992   1.022   1.287
  818HOH     H1 2641   3.963   0.938   1.323
  818HOH     H2 2642   4.030   1.000   1.203
  819HOH      O 2643   1.492   1.590   1.134
  819HOH     H1 2644   1.500   1.595   1.229
  819HOH     H2 2645   1.557   1.652   1.101
  820HOH      O 2646   2.327   2.901   4.012
  820HOH     H1 2647   2.393   2.853   4.062
  820HOH     H2 2648   2.291   2.964   4.075
  821HOH      O 2649   0.336   3.990   2.236
  821HOH     H1 2650   0.389   4.070   2.235
  821HOH     H2 2651   0.371   3.937   2.165
  822HOH      O 2652   3.854   1.656   1.486
  822HOH     H1 2653   3.887   1.734   1.530
  822HOH     H2 2654   3.871   1.672   1.393
  823HOH      O 2655   0.019   1.771   2.581
  823HOH     H1 2656   0.032   1.866   2.577
  823HOH     H2 2657  -0.024   1.757   2.666
  824HOH      O 2658   1.699   1.117   3.245
  824HOH     H1 2659   1.743   1.156   3.170
  824HOH     H2 2660   1.763   1.121   3.315
  825HOH      O 2661   1.578   2.460   0.711
  825HOH     H1 2662   1.587   2.370   0.680
  825HOH     H2 2663   1.664   2.499   0.697
  826HOH      O 2664   1.809   2.699   0.579
  826HOH     H1 2665   1.811   2.667   0.670
  826HOH     H2 2666   1.717   2.694   0.554
  827HOH      O 2667   1.178   3.089   3.186
  827HOH     H1 2668   1.180   3.000   3.150
  827HOH     H2 2669   1.087   3.103   3.211
  828HOH      O 2670   3.219   3.777   3.359
  828HOH     H1 2671   3.215   3.682   3.370
  828HOH     H2 2672   3.286   3.791   3.292
  829HOH      O 2673   0.877   2.351   3.021
  829HOH     H1 2674   0.863   2.446   3.032
  829HOH     H2 2675   0.793   2.318   2.990
  830HOH      O 2676   3.442   1.910   0.741
  830HOH     H1 2677   3.431   1.987   0.685
  830HOH     H2 2678   3.355   1.896   0.779
  831HOH      O 2679   0.882   0.942   1.683
  831HOH     H1 2680   0.900   0.973   1.772
  831HOH     H2 2681   0.919   1.010   1.626
  832HOH      O 2682   2.241   0.602   2.323
  832HOH     H1 2683   2.267   0.584   2.413
  832HOH     H2 2684   2.157   0.556   2.313
  833HOH      O 2685   3.947   2.544   2.442
  833HOH     H1 2686   3.967   2.458   2.478
  833HOH     H2 2687   3.917   2.595   2.517
  834HOH      O 2688   1.968   0.767   2.220
  834HOH     H1 2689   2.050   0.774   2.172
  834HOH     H2 2690   1.946   0.857   2.244
  835HOH      O 2691   1.336   1.983   3.923
  835HOH     H1 2692   1.281   1.977   3.845
  835HOH     H2 2693   1.358   1.892   3.943
  836HOH      O 2694   2.718   1.287   3.203
  836HOH     H1 2695   2.688   1.277   3.113
  836HOH     H2 2696   2.736   1.197   3.232
  837HOH      O 2697   0.887   3.223   2.279
  837HOH     H1 2698   0.857   3.313   2.264
  837HOH     H2 2699   0.919   3.223   2.369
  838HOH      O 2700   0.538   1.176   3.904
  838HOH     H1 2701   0.497   1.188   3.990
  838HOH     H2 2702   0.607   1.113   3.919
  839HOH      O 2703   0.899   0.853   2.377
  839HOH     H1 2704   0.853   0.937   2.380
  839HOH     H2 2705   0.830   0.787   2.374
  840HOH      O 2706   0.003   3.734   0.421
  840HOH     H1 2707   0.031   3.792   0.492
  840HOH     H2 2708  -0.053   3.789   0.366
  841HOH      O 2709   2.737   3.114   2.355
  841HOH     H1 2710   2.757   3.073   2.271
  841HOH     H2 2711   2.704   3.042   2.409
  842HOH      O 2712   2.417   1.202   0.954
  842HOH     H1 2713   2.416   1.271   0.888
  842HOH     H2 2714   2.471   1.237   1.025
  843HOH      O 2715   1.709   2.003   2.528
  843HOH     H1 2716   1.707   2.092   2.564
  843HOH     H2 2717   1.787   1.963   2.567
  844HOH      O 2718   2.096   1.644   3.878
  844HOH     H1 2719   2.076   1.594   3.957
  844HOH     H2 2720   2.025   1.708   3.871
  845HOH      O 2721   3.453   1.387   1.086
  845HOH     H1 2722   3.492   1.446   1.151
  845HOH     H2 2723   3.359   1.393   1.102
  846HOH      O 2724   0.840   1.498   3.064
  846HOH     H1 2725   0.779   1.568   3.088
  846HOH     H2 2726   0.803   1.420   3.105
  847HOH      O 2727   0.355   3.101   1.499
  847HOH     H1 2728   0.410   3.040   1.549
  847HOH     H2 2729   0.382   3.089   1.408
  848HOH      O 2730   0.332   3.890   2.575
  848HOH     H1 2731   0.416   3.858   2.540
  848HOH     H2 2732   0.327   3.981   2.547
  849HOH      O 2733   1.364   2.466   3.432
  849HOH     H1 2734   1.297   2.500   3.373
  849HOH     H2 2735   1.365   2.372   3.416
  850HOH      O 2736   1.037   3.594   3.311
  850HOH     H1 2737   1.073   3.512   3.345
  850HOH     H2 2738   1.065   3.596   3.219
  851HOH      O 2739   2.688   0.168   1.434
  851HOH     H1 2740   2.596   0.152   1.414
  851HOH     H2 2741   2.730   0.178   1.348
  852HOH      O 2742   1.061   0.450   2.292
  852HOH     H1 2743   1.034   0.366   2.329
  852HOH     H2 2744   1.047   0.513   2.363
  853HOH      O 2745   3.110   2.538   0.654
  853HOH     H1 2746   3.160   2.619   0.654
  853HOH     H2 2747   3.142   2.490   0.730
  854HOH      O 2748   1.677   3.938   3.212
  854HOH     H1 2749   1.665   4.030   3.233
  854HOH     H2 2750   1.590   3.899   3.222
  855HOH      O 2751   2.934   1.715   2.243
  855HOH     H1 2752   2.967   1.634   2.284
  855HOH     H2 2753   2.870   1.748   2.306
  856HOH      O 2754   1.029   1.599   2.065
  856HOH     H1 2755   0.990   1.524   2.112
  856HOH     H2 2756   1.040   1.568   1.975
  857HOH      O 2757   2.787   2.452   0.482
  857HOH     H1 2758   2.831   2.491   0.558
  857HOH     H2 2759   2.817   2.361   0.481
  858HOH      O 2760   3.522   2.603   3.747
  858HOH     H1 2761   3.602   2.556   3.725
  858HOH     H2 2762   3.458   2.535   3.767
  859HOH      O 2763   2.931   0.167   1.754
  859HOH     H1 2764   2.968   0.117   1.827
  859HOH     H2 2765   2.840   0.137   1.748
  860HOH      O 2766   3.342   3.640   2.619
  860HOH     H1 2767   3.273   3.615   2.681
  860HOH     H2 2768   3.418   3.589   2.646
  861HOH      O 2769   0.142   1.416   1.958
  861HOH     H1 2770   0.079   1.447   2.023
  861HOH     H2 2771   0.113   1.458   1.876
  862HOH      O 2772   0.801   3.405   0.807
  862HOH     H1 2773   0.769   3.494   0.818
  862HOH     H2 2774   0.721   3.352   0.797
  863HOH      O 2775   3.806   0.726   0.131
  863HOH     H1 2776   3.724   0.742   0.084
  863HOH     H2 2777   3.858   0.805   0.115
  864HOH      O 2778   3.785   0.114   1.655
  864HOH     H1 2779   3.821   0.115   1.743
  864HOH     H2 2780   3.826   0.039   1.612
  865HOH      O 2781   3.367   3.981   0.411
  865HOH     H1 2782   3.324   4.053   0.458
  865HOH     H2 2783   3.342   3.994   0.320
  866HOH      O 2784   2.687   0.994   3.442
  866HOH     H1 2785   2.763   0.994   3.501
  866HOH     H2 2786   2.720   0.956   3.361
  867HOH      O 2787   2.334   3.183   0.279
  867HOH     H1 2788   2.272   3.118   0.245
  867HOH     H2 2789   2.280   3.259   0.300
  868HOH      O 2790   2.461   3.527   1.962
  868HOH     H1 2791   2.518   3.579   2.020
  868HOH     H2 2792   2.485   3.437   1.982
  869HOH      O 2793   3.030   2.024   0.942
  869HOH     H1 2794   2.977   2.104   0.939
  869HOH     H2 2795   2.969   1.955   0.916
  870HOH      O 2796   0.520   1.879   2.755
  870HOH     H1 2797   0.519   1.944   2.686
  870HOH     H2 2798   0.428   1.852   2.763
  871HOH      O 2799   2.413   2.496   0.263
  871HOH     H1 2800   2.341   2.447   0.304
  871HOH     H2 2801   2.447   2.551   0.334
  872HOH      O 2802   2.363   0.902   2.320
  872HOH     H1 2803   2.377   0.807   2.312
  872HOH     H2 2804   2.450   0.940   2.314
  873HOH      O 2805   2.303   2.585   1.373
  873HOH     H1 2806   2.311   2.494   1.344
  873HOH     H2 2807   2.209   2.599   1.383
  874HOH      O 2808   3.700   0.018   1.121
  874HOH     H1 2809   3.675  -0.026   1.202
  874HOH     H2 2810   3.769   0.079   1.147
  875HOH      O 2811   0.715   3.047   1.849
  875HOH     H1 2812   0.755   3.052   1.936
  875HOH     H2 2813   0.669   2.963   1.849
  876HOH      O 2814   0.017   1.226   0.080
  876HOH     H1 2815  -0.032   1.303   0.053
  876HOH     H2 2816   0.023   1.173   0.001
  877HOH      O 2817   3.100   3.213   1.402
  877HOH     H1 2818   3.144   3.169   1.330
  877HOH     H2 2819   3.009   3.219   1.374
  878HOH      O 2820   2.089   2.966   2.916
  878HOH     H1 2821   2.040   2.937   2.993
  878HOH     H2 2822   2.052   3.051   2.894
  879HOH      O 2823   0.032   3.609   1.768
  879HOH     H1 2824   0.108   3.624   1.824
  879HOH     H2 2825   0.068   3.589   1.682
  880HOH      O 2826   1.004   1.894   3.117
  880HOH     H1 2827   1.023   1.972   3.065
  880HOH     H2 2828   0.908   1.894   3.126
  881HOH      O 2829   3.467   1.165   0.667
  881HOH     H1 2830   3.474   1.254   0.632
  881HOH     H2 2831   3.511   1.168   0.752
  882HOH      O 2832   0.214   0.844   3.363
  882HOH     H1 2833   0.175   0.862   3.278
  882HOH     H2 2834   0.238   0.931   3.396
  883HOH      O 2835   3.411   2.596   4.022
  883HOH     H1 2836   3.392   2.555   3.938
  883HOH     H2 2837   3.345   2.664   4.031
  884HOH      O 2838   0.231   0.417   0.178
  884HOH     H1 2839   0.314   0.373   0.196
  884HOH     H2 2840   0.168   0.373   0.236
  885HOH      O 2841   0.937   4.018   2.838
  885HOH     H1 2842   1.009   4.041   2.779
  885HOH     H2 2843   0.971   3.943   2.888
  886HOH      O 2844   4.024   0.858   2.589
  886HOH     H1 2845   3.992   0.907   2.514
  886HOH     H2 2846   4.115   0.884   2.598
  887HOH      O 2847   1.580   1.052   0.185
  887HOH     H1 2848   1.614   0.962   0.181
  887HOH     H2 2849   1.593   1.086   0.096
  888HOH      O 2850   0.706   2.400   2.775
  888HOH     H1 2851   0.664   2.479   2.740
  888HOH     H2 2852   0.797   2.407   2.746
  889HOH      O 2853   1.196   1.171   1.451
  889HOH     H1 2854   1.101   1.182   1.444
  889HOH     H2 2855   1.218   1.105   1.386
  890HOH      O 2856   2.219   0.368   2.522
  890HOH     H1 2857   2.287   0.417   2.568
  890HOH     H2 2858   2.241   0.276   2.537
  891HOH      O 2859   0.955   2.158   2.421
  891HOH     H1 2860   1.012   2.081   2.430
  891HOH     H2 2861   1.008   2.222   2.375
  892HOH      O 2862   1.026   0.208   1.149
  892HOH     H1 2863   1.047   0.131   1.202
  892HOH     H2 2864   0.953   0.179   1.094
  893HOH      O 2865   3.968   2.210   2.040
  893HOH     H1 2866   3.919   2.255   2.109
  893HOH     H2 2867   3.918   2.129   2.025
  894HOH      O 2868   1.679   3.063   0.454
  894HOH     H1 2869   1.623   2.988   0.472
  894HOH     H2 2870   1.767   3.026   0.444
  895HOH      O 2871   1.645   0.466   0.780
  895HOH     H1 2872   1.661   0.427   0.866
  895HOH     H2 2873   1.725   0.448   0.730
  896HOH      O 2874   3.941   2.252   0.854
  896HOH     H1 2875   3.849   2.227   0.858
  896HOH     H2 2876   3.981   2.188   0.795
  897HOH      O 2877   3.750   3.209   0.671
  897HOH     H1 2878   3.739   3.116   0.693
  897HOH     H2 2879   3.702   3.220   0.589
  898HOH      O 2880   0.313   1.159   2.591
  898HOH     H1 2881   0.294   1.156   2.497
  898HOH     H2 2882   0.404   1.186   2.596
  899HOH      O 2883   3.254   0.561   2.737
  899HOH     H1 2884   3.214   0.474   2.737
  899HOH     H2 2885   3.324   0.556   2.672
  900HOH      O 2886   1.687   1.238   1.432
  900HOH     H1 2887   1.702   1.290   1.511
  900HOH     H2 2888   1.723   1.292   1.361
  901HOH      O 2889   0.199   0.922   0.023
  901HOH     H1 2890   0.293   0.904   0.028
  901HOH     H2 2891   0.162   0.874   0.098
  902HOH      O 2892   2.816   0.060   3.134
  902HOH     H1 2893   2.902   0.103   3.130
  902HOH     H2 2894   2.822  -0.011   3.071
  903HOH      O 2895   2.000   0.710   1.502
  903HOH     H1 2896   1.920   0.677   1.543
  903HOH     H2 2897   1.971   0.780   1.444
  904HOH      O 2898   3.344   1.559   2.387
  904HOH     H1 2899   3.400   1.630   2.418
  904HOH     H2 2900   3.291   1.599   2.318
  905HOH      O 2901   1.437   3.789   3.294
  905HOH     H1 2902   1.394   3.705   3.278
  905HOH     H2 2903   1.399   3.820   3.376
  906HOH      O 2904   0.210   1.333   3.290
  906HOH     H1 2905   0.122   1.342   3.327
  906HOH     H2 2906   0.201   1.366   3.200
  907HOH      O 2907   2.947   2.776   2.892
  907HOH     H1 2908   2.890   2.752   2.965
  907HOH     H2 2909   2.888   2.797   2.820
  908HOH      O 2910   2.618   3.964   2.668
  908HOH     H1 2911   2.698   3.923   2.635
  908HOH     H2 2912   2.620   4.052   2.631
  909HOH      O 2913   2.667   0.632   1.186
  909HOH     H1 2914   2.674   0.722   1.154
  909HOH     H2 2915   2.728   0.628   1.260
  910HOH      O 2916   0.411   1.446   4.008
  910HOH     H1 2917   0.471   1.458   3.935
  910HOH     H2 2918   0.450   1.377   4.060
  911HOH      O 2919   3.039   2.957   1.271
  911HOH     H1 2920   2.974   2.917   1.329
  911HOH     H2 2921   3.123   2.939   1.314
  912HOH      O 2922   2.771   2.842   0.910
  912HOH     H1 2923   2.749   2.752   0.935
  912HOH     H2 2924   2.859   2.856   0.945
  913HOH      O 2925   1.020   3.191   2.527
  913HOH     H1 2926   1.036   3.258   2.593
  913HOH     H2 2927   1.107   3.165   2.497
  914HOH      O 2928   0.393   3.521   3.584
  914HOH     H1 2929   0.401   3.453   3.652
  914HOH     H2 2930   0.473   3.574   3.595
  915HOH      O 2931   1.648   2.207   0.643
  915HOH     H1 2932   1.608   2.132   0.601
  915HOH     H2 2933   1.703   2.247   0.576
  916HOH      O 2934   3.944   1.353   3.320
  916HOH     H1 2935   3.894   1.431   3.344
  916HOH     H2 2936   3.927   1.341   3.227
  917HOH      O 2937   2.527   1.364   1.609
  917HOH     H1 2938   2.517   1.422   1.685
  917HOH     H2 2939   2.560   1.282   1.646
  918HOH      O 2940   0.096   4.008   0.235
  918HOH     H1 2941   0.007   3.972   0.241
  918HOH     H2 2942   0.145   3.941   0.188
  919HOH      O 2943   2.389   0.245   1.174
  919HOH     H1 2944   2.398   0.214   1.264
  919HOH     H2 2945   2.425   0.174   1.120
  920HOH      O 2946   0.493   3.425   0.157
  920HOH     H1 2947   0.405   3.400   0.186
  920HOH     H2 2948   0.551   3.383   0.221
  921HOH      O 2949   0.768   0.268   0.464
  921HOH     H1 2950   0.753   0.256   0.370
  921HOH     H2 2951   0.785   0.362   0.473
  922HOH      O 2952   0.159   1.598   1.214
  922HOH     H1 2953   0.191   1.659   1.147
  922HOH     H2 2954   0.209   1.622   1.292
  923HOH      O 2955   0.908   1.478   1.769
  923HOH     H1 2956   0.886   1.399   1.819
  923HOH     H2 2957   1.003   1.484   1.774
  924HOH      O 2958   1.393   3.975   1.292
  924HOH     H1 2959   1.339   3.962   1.214
  924HOH     H2 2960   1.422   4.066   1.286
  925HOH      O 2961   1.517   3.255   1.936
  925HOH     H1 2962   1.563   3.338   1.945
  925HOH     H2 2963   1.566   3.195   1.992
  926HOH      O 2964   1.501   0.743   2.017
  926HOH     H1 2965   1.491   0.814   2.080
  926HOH     H2 2966   1.483   0.664   2.068
  927HOH      O 2967   3.320   3.349   0.956
  927HOH     H1 2968   3.327   3.416   0.888
  927HOH     H2 2969   3.403   3.300   0.950
  928HOH      O 2970   0.463   1.675   0.836
  928HOH     H1 2971   0.515   1.749   0.803
  928HOH     H2 2972   0.435   1.629   0.756
  929HOH      O 2973   2.225   1.538   1.222
  929HOH     H1 2974   2.277   1.542   1.142
  929HOH     H2 2975   2.260   1.464   1.270
  930HOH      O 2976   2.841   2.608   3.258
  930HOH     H1 2977   2.773   2.548   3.288
  930HOH     H2 2978   2.824   2.689   3.307
  931HOH      O 2979   2.933   3.358   0.419
  931HOH     H1 2980   2.884   3.386   0.341
  931HOH     H2 2981   2.960   3.440   0.460
  932HOH      O 2982   0.379   3.295   3.766
  932HOH     H1 2983   0.293   3.261   3.741
  932HOH     H2 2984   0.386   3.275   3.860
  933HOH      O 2985   2.287   0.719   2.043
  933HOH     H1 2986   2.253   0.680   2.124
  933HOH     H2 2987   2.349   0.654   2.010
  934HOH      O 2988   1.797   3.281   3.380
  934HOH     H1 2989   1.850   3.271   3.459
  934HOH     H2 2990   1.842   3.229   3.314
  935HOH      O 2991   0.013   0.772   0.471
  935HOH     H1 2992   0.031   0.829   0.396
  935HOH     H2 2993  -0.007   0.687   0.432
  936HOH      O 2994   2.573   2.242   3.230
  936HOH     H1 2995   2.578   2.232   3.325
  936HOH     H2 2996   2.479   2.243   3.211
  937HOH      O 2997   3.555   2.712   0.471
  937HOH     H1 2998   3.470   2.685   0.438
  937HOH     H2 2999   3.572   2.653   0.545
  938HOH      O 3000   1.065   2.138   3.321
  938HOH     H1 3001   0.999   2.090   3.371
  938HOH     H2 3002   1.137   2.151   3.383
  939HOH      O 3003   2.927   3.631   0.290
  939HOH     H1 3004   2.962   3.619   0.201
  939HOH     H2 3005   3.003   3.656   0.342
  940HOH      O 3006   2.525   0.681   0.462
  940HOH     H1 3007   2.537   0.587   0.475
  940HOH     H2 3008   2.577   0.721   0.532
  941HOH      O 3009   2.150   3.841   3.771
  941HOH     H1 3010   2.131   3.881   3.857
  941HOH     H2 3011   2.235   3.879   3.746
  942HOH      O 3012   3.714   2.703   1.328
  942HOH     H1 3013   3.711   2.713   1.423
  942HOH     H2 3014   3.803   2.673   1.309
  943HOH      O 3015   0.128   3.830   2.057
  943HOH     H1 3016   0.044   3.788   2.039
  943HOH     H2 3017   0.111   3.887   2.132
  944HOH      O 3018   3.160   3.405   0.138
  944HOH     H1 3019   3.195   3.479   0.189
  944HOH     H2 3020   3.098   3.445   0.077
  945HOH      O 3021   2.544   3.310   1.507
  945HOH     H1 3022   2.506   3.227   1.537
  945HOH     H2 3023   2.568   3.356   1.587
  946HOH      O 3024   1.355   2.106   2.466
  946HOH     H1 3025   1.362   2.193   2.506
  946HOH     H2 3026   1.432   2.101   2.408
  947HOH      O 3027   3.482   0.471   1.166
  947HOH     H1 3028   3.519   0.474   1.254
  947HOH     H2 3029   3.420   0.544   1.163
  948HOH      O 3030   0.916   1.679   3.817
  948HOH     H1 3031   0.895   1.753   3.759
  948HOH     H2 3032   0.856   1.687   3.890
  949HOH      O 3033   1.323   0.292   1.788
  949HOH     H1 3034   1.317   0.242   1.869
  949HOH     H2 3035   1.393   0.250   1.739
  950HOH      O 3036   2.002   4.006   3.287
  950HOH     H1 3037   2.018   3.946   3.214
  950HOH     H2 3038   1.909   3.994   3.308
  951HOH      O 3039   2.880   2.774   1.461
  951HOH     H1 3040   2.874   2.718   1.538
  951HOH     H2 3041   2.794   2.815   1.454
  952HOH      O 3042   0.869   3.508   2.223
  952HOH     H1 3043   0.841   3.567   2.293
  952HOH     H2 3044   0.820   3.537   2.146
  953HOH      O 3045   3.948   1.641   1.052
  953HOH     H1 3046   4.028   1.612   1.096
  953HOH     H2 3047   3.935   1.731   1.084
  954HOH      O 3048   1.448   0.548   1.177
  954HOH     H1 3049   1.428   0.504   1.260
  954HOH     H2 3050   1.519   0.609   1.199
  955HOH      O 3051   1.528   2.417   1.897
  955HOH     H1 3052   1.549   2.325   1.880
  955HOH     H2 3053   1.469   2.414   1.972
  956HOH      O 3054   1.672   3.768   0.320
  956HOH     H1 3055   1.613   3.694   0.337
  956HOH     H2 3056   1.660   3.827   0.394
  957HOH      O 3057   2.832   1.145   1.148
  957HOH     H1 3058   2.877   1.140   1.063
  957HOH     H2 3059   2.901   1.171   1.209
  958HOH      O 3060   1.898   1.665   0.518
  958HOH     H1 3061   1.959   1.732   0.549
  958HOH     H2 3062   1.921   1.586   0.569
  959HOH      O 3063   1.554   0.163   3.328
  959HOH     H1 3064   1.469   0.122   3.343
  959HOH     H2 3065   1.537   0.227   3.258
  960HOH      O 3066   2.995   2.055   3.607
  960HOH     H1 3067   2.972   2.068   3.699
  960HOH     H2 3068   3.025   1.964   3.602
  961HOH      O 3069   3.196   0.904   0.413
  961HOH     H1 3070   3.267   0.945   0.463
  961HOH     H2 3071   3.153   0.978   0.369
  962HOH      O 3072   0.914   2.143   0.549
  962HOH     H1 3073   0.880   2.175   0.466
  962HOH     H2 3074   0.836   2.128   0.603
  963HOH      O 3075   3.819   0.460   0.125
  963HOH     H1 3076   3.807   0.554   0.118
  963HOH     H2 3077   3.845   0.433   0.036
  964HOH      O 3078   1.347   3.945   3.075
  964HOH     H1 3079   1.338   4.026   3.124
  964HOH     H2 3080   1.372   3.880   3.141
  965HOH      O 3081   1.454   2.999   3.874
  965HOH     H1 3082   1.469   3.074   3.931
  965HOH     H2 3083   1.386   2.948   3.918
  966HOH      O 3084   0.139   3.170   3.991
  966HOH     H1 3085   0.113   3.223   3.915
  966HOH     H2 3086   0.128   3.229   4.066
  967HOH      O 3087   3.094   2.962   3.925
  967HOH     H1 3088   3.001   2.950   3.948
  967HOH     H2 3089   3.098   2.940   3.832
  968HOH      O 3090   1.296   0.278   2.115
  968HOH     H1 3091   1.220   0.274   2.173
  968HOH     H2 3092   1.326   0.369   2.121
  969HOH      O 3093   1.534   3.328   0.315
  969HOH     H1 3094   1.615   3.330   0.263
  969HOH     H2 3095   1.549   3.258   0.379
  970HOH      O 3096   1.623   1.889   3.510
  970HOH     H1 3097   1.654   1.947   3.580
  970HOH     H2 3098   1.695   1.887   3.447
  971HOH      O 3099   2.669   2.906   3.223
  971HOH     H1 3100   2.724   2.984   3.229
  971HOH     H2 3101   2.581   2.938   3.243
  972HOH      O 3102   0.267   2.760   2.797
  972HOH     H1 3103   0.179   2.791   2.820
  972HOH     H2 3104   0.278   2.785   2.706
  973HOH      O 3105   3.013   1.605   0.127
  973HOH     H1 3106   3.043   1.527   0.081
  973HOH     H2 3107   2.920   1.588   0.144
  974HOH      O 3108   2.624   1.665   0.854
  974HOH     H1 3109   2.672   1.746   0.873
  974HOH     H2 3110   2.603   1.671   0.761
  975HOH      O 3111   0.866   3.603   2.811
  975HOH     H1 3112   0.910   3.671   2.862
  975HOH     H2 3113   0.778   3.638   2.797
  976HOH      O 3114   2.837   3.768   1.256
  976HOH     H1 3115   2.863   3.697   1.198
  976HOH     H2 3116   2.908   3.832   1.249
  977HOH      O 3117   0.213   3.133   2.735
  977HOH     H1 3118   0.279   3.186   2.692
  977HOH     H2 3119   0.177   3.078   2.665
  978HOH      O 3120   3.845   0.320   2.776
  978HOH     H1 3121   3.829   0.348   2.866
  978HOH     H2 3122   3.941   0.324   2.767
  979HOH      O 3123   1.449   3.267   4.001
  979HOH     H1 3124   1.442   3.217   4.082
  979HOH     H2 3125   1.520   3.329   4.017
  980HOH      O 3126   0.677   3.444   0.379
  980HOH     H1 3127   0.601   3.407   0.424
  980HOH     H2 3128   0.743   3.375   0.382
  981HOH      O 3129   0.138   0.512   1.686
  981HOH     H1 3130   0.083   0.589   1.700
  981HOH     H2 3131   0.078   0.444   1.655
  982HOH      O 3132   2.249   0.957   3.344
  982HOH     H1 3133   2.186   0.996   3.282
  982HOH     H2 3134   2.274   1.030   3.401
  983HOH      O 3135   2.820   1.725   2.006
  983HOH     H1 3136   2.869   1.746   2.085
  983HOH     H2 3137   2.728   1.733   2.032
  984HOH      O 3138   3.811   0.800   3.826
  984HOH     H1 3139   3.843   0.871   3.770
  984HOH     H2 3140   3.780   0.734   3.763
  985HOH      O 3141   1.834   3.031   1.383
  985HOH     H1 3142   1.762   3.007   1.441
  985HOH     H2 3143   1.835   2.964   1.316
  986HOH      O 3144   1.494   2.346   3.926
  986HOH     H1 3145   1.474   2.437   3.948
  986HOH     H2 3146   1.434   2.295   3.980
  987HOH      O 3147   1.212   1.409   2.899
  987HOH     H1 3148   1.224   1.503   2.884
  987HOH     H2 3149   1.223   1.397   2.993
  988HOH      O 3150   3.189   0.530   1.923
  988HOH     H1 3151   3.107   0.550   1.968
  988HOH     H2 3152   3.203   0.437   1.941
  989HOH      O 3153   0.008   3.043   2.255
  989HOH     H1 3154  -0.037   3.119   2.219
  989HOH     H2 3155   0.032   2.990   2.179
  990HOH      O 3156   2.806   2.870   2.693
  990HOH     H1 3157   2.834   2.960   2.711
  990HOH     H2 3158   2.843   2.851   2.607
  991HOH      O 3159   3.641   0.863   0.867
  991HOH     H1 3160   3.620   0.908   0.949
  991HOH     H2 3161   3.570   0.800   0.855
  992HOH      O 3162   2.542   2.703   1.470
  992HOH     H1 3163   2.484   2.654   1.528
  992HOH     H2 3164   2.564   2.641   1.401
  993HOH      O 3165   2.570   3.998   2.980
  993HOH     H1 3166   2.610   3.942   3.047
  993HOH     H2 3167   2.578   3.947   2.899
  994HOH      O 3168   0.412   0.874   2.350
  994HOH     H1 3169   0.317   0.863   2.347
  994HOH     H2 3170   0.445   0.814   2.282
  995HOH      O 3171   2.935   1.035   3.157
  995HOH     H1 3172   2.842   1.048   3.138
  995HOH     H2 3173   2.969   0.991   3.080
  996HOH      O 3174   3.198   3.909   0.853
  996HOH     H1 3175   3.266   3.946   0.910
  996HOH     H2 3176   3.245   3.881   0.775
  997HOH      O 3177   0.478   1.403   1.897
  997HOH     H1 3178   0.502   1.426   1.807
  997HOH     H2 3179   0.384   1.386   1.893
  998HOH      O 3180   3.384   0.194   3.901
  998HOH     H1 3181   3.427   0.217   3.818
  998HOH     H2 3182   3.455   0.162   3.956
  999HOH      O 3183   1.203   2.506   3.722
  999HOH     H1 3184   1.218   2.511   3.627
  999HOH     H2 3185   1.267   2.566   3.759
 1000HOH      O 3186   1.959   0.020   1.185
 1000HOH     H1 3187   1.913   0.047   1.105
 1000HOH     H2 3188   1.892   0.025   1.254
 1001HOH      O 3189   3.142   0.530   3.777
 1001HOH     H1 3190   3.181   0.536   3.864
 1001HOH     H2 3191   3.171   0.610   3.732
 1002HOH      O 3192   2.120   1.841   0.441
 1002HOH     H1 3193   2.079   1.841   0.354
 1002HOH     H2 3194   2.178   1.918   0.440
 1003HOH      O 3195   0.874   1.438   0.320
 1003HOH     H1 3196   0.967   1.439   0.342
 1003HOH     H2 3197   0.833   1.492   0.388
 1004HOH      O 3198   0.117   1.430   3.808
 1004HOH     H1 3199   0.209   1.404   3.808
 1004HOH     H2 3200   0.117   1.519   3.773
 1005HOH      O 3201   2.473   1.463   0.038
 1005HOH     H1 3202   2.462   1.448   0.132
 1005HOH     H2 3203   2.458   1.377  -0.002
 1006HOH      O 3204   0.502   1.677   1.715
 1006HOH     H1 3205   0.598   1.682   1.710
 1006HOH     H2 3206   0.483   1.679   1.809
 1007HOH      O 3207   3.476   0.522   2.209
 1007HOH     H1 3208   3.417   0.523   2.285
 1007HOH     H2 3209   3.490   0.429   2.192
 1008HOH      O 3210   0.352   3.453   1.342
 1008HOH     H1 3211   0.369   3.529   1.287
 1008HOH     H2 3212   0.266   3.422   1.313
 1009HOH      O 3213   0.329   0.080   0.563
 1009HOH     H1 3214   0.404   0.082   0.504
 1009HOH     H2 3215   0.318  -0.013   0.585
 1010HOH      O 3216   3.085   1.965   3.113
 1010HOH     H1 3217   3.012   1.973   3.174
 1010HOH     H2 3218   3.162   1.990   3.163
 1011HOH      O 3219   1.388   3.532   3.233
 1011HOH     H1 3220   1.483   3.517   3.230
 1011HOH     H2 3221   1.358   3.512   3.145
 1012HOH      O 3222   1.568   3.182   2.983
 1012HOH     H1 3223   1.620   3.131   3.045
 1012HOH     H2 3224   1.631   3.244   2.945
 1013HOH      O 3225   3.046   0.704   1.097
 1013HOH     H1 3226   2.986   0.754   1.041
 1013HOH     H2 3227   3.080   0.635   1.039
 1014HOH      O 3228   0.215   1.108   1.376
 1014HOH     H1 3229   0.162   1.062   1.311
 1014HOH     H2 3230   0.299   1.121   1.333
 1015HOH      O 3231   1.189   0.286   0.884
 1015HOH     H1 3232   1.177   0.278   0.979
 1015HOH     H2 3233   1.247   0.213   0.861
 1016HOH      O 3234   1.209   1.851   1.303
 1016HOH     H1 3235   1.300   1.858   1.333
 1016HOH     H2 3236   1.192   1.935   1.259
 1017HOH      O 3237   3.236   2.768   0.718
 1017HOH     H1 3238   3.224   2.827   0.793
 1017HOH     H2 3239   3.231   2.825   0.641
 1018HOH      O 3240   3.662   2.980   1.738
 1018HOH     H1 3241   3.587   2.925   1.718
 1018HOH     H2 3242   3.696   3.006   1.652
 1019HOH      O 3243   0.355   0.983   0.893
 1019HOH     H1 3244   0.338   1.076   0.879
 1019HOH     H2 3245   0.450   0.974   0.880
 1020HOH      O 3246   3.192   3.722   3.045
 1020HOH     H1 3247   3.266   3.736   3.105
 1020HOH     H2 3248   3.178   3.807   3.004
 1021HOH      O 3249   2.033   3.123   1.685
 1021HOH     H1 3250   2.110   3.125   1.629
 1021HOH     H2 3251   2.067   3.109   1.773
 1022HOH      O 3252   0.616   1.769   3.738
 1022HOH     H1 3253   0.630   1.746   3.830
 1022HOH     H2 3254   0.572   1.692   3.701
 1023HOH      O 3255   2.771   3.303   1.054
 1023HOH     H1 3256   2.722   3.307   1.135
 1023HOH     H2 3257   2.823   3.384   1.053
 1024HOH      O 3258   0.318   0.440   3.177
 1024HOH     H1 3259   0.297   0.501   3.107
 1024HOH     H2 3260   0.235   0.430   3.225
 1025HOH      O 3261   2.960   3.574   0.030
 1025HOH     H1 3262   2.869   3.599   0.018
 1025HOH     H2 3263   3.003   3.594  -0.053
 1026HOH      O 3264   0.194   3.352   3.459
 1026HOH     H1 3265   0.113   3.374   3.504
 1026HOH     H2 3266   0.254   3.424   3.482
 1027HOH      O 3267   2.828   3.101   0.056
 1027HOH     H1 3268   2.762   3.169   0.067
 1027HOH     H2 3269   2.883   3.109   0.134
 1028HOH      O 3270   0.864   0.274   1.559
 1028HOH     H1 3271   0.795   0.328   1.597
 1028HOH     H2 3272   0.855   0.189   1.602
 1029HOH      O 3273   1.729   2.939   3.457
 1029HOH     H1 3274   1.805   2.983   3.418
 1029HOH     H2 3275   1.664   2.939   3.387
 1030HOH      O 3276   2.601   2.913   0.378
 1030HOH     H1 3277   2.592   3.005   0.403
 1030HOH     H2 3278   2.598   2.914   0.282
 1031HOH      O 3279   0.696   0.048   3.161
 1031HOH     H1 3280   0.783   0.084   3.178
 1031HOH     H2 3281   0.639   0.124   3.154
 1032HOH      O 3282   1.031   1.509   1.053
 1032HOH     H1 3283   0.957   1.456   1.084
 1032HOH     H2 3284   1.108   1.465   1.088
 1033HOH      O 3285   3.197   0.937   2.497
 1033HOH     H1 3286   3.284   0.904   2.471
 1033HOH     H2 3287   3.198   0.932   2.592
 1034HOH      O 3288   2.623   0.979   2.305
 1034HOH     H1 3289   2.692   0.914   2.287
 1034HOH     H2 3290   2.662   1.062   2.279
 1035HOH      O 3291   3.735   2.402   3.966
 1035HOH     H1 3292   3.791   2.445   3.901
 1035HOH     H2 3293   3.674   2.471   3.994
 1036HOH      O 3294   2.185   2.525   1.032
 1036HOH     H1 3295   2.114   2.471   0.996
 1036HOH     H2 3296   2.140   2.591   1.085
 1037HOH      O 3297   1.805   2.843   1.908
 1037HOH     H1 3298   1.736   2.777   1.902
 1037HOH     H2 3299   1.791   2.898   1.831
 1038HOH      O 3300   2.166   0.441   0.403
 1038HOH     H1 3301   2.158   0.536   0.403
 1038HOH     H2 3302   2.121   0.413   0.323
 1039HOH      O 3303   0.347   1.830   2.106
 1039HOH     H1 3304   0.436   1.813   2.075
 1039HOH     H2 3305   0.316   1.903   2.053
 1040HOH      O 3306   1.143   2.598   3.305
 1040HOH     H1 3307   1.103   2.555   3.380
 1040HOH     H2 3308   1.088   2.675   3.289
 1041HOH      O 3309   2.535   0.685   1.529
 1041HOH     H1 3310   2.575   0.598   1.529
 1041HOH     H2 3311   2.441   0.668   1.532
 1042HOH      O 3312   0.762   3.477   1.428
 1042HOH     H1 3313   0.793   3.515   1.510
 1042HOH     H2 3314   0.837   3.427   1.395
 1043HOH      O 3315   0.224   3.222   0.516
 1043HOH     H1 3316   0.244   3.128   0.521
 1043HOH     H2 3317   0.131   3.227   0.540
 1044HOH      O 3318   1.227   0.361   3.233
 1044HOH     H1 3319   1.286   0.433   3.256
 1044HOH     H2 3320   1.168   0.398   3.167
 1045HOH      O 3321   1.410   3.213   3.203
 1045HOH     H1 3322   1.323   3.182   3.180
 1045HOH     H2 3323   1.441   3.258   3.124
 1046HOH      O 3324   3.634   3.430   0.177
 1046HOH     H1 3325   3.646   3.492   0.249
 1046HOH     H2 3326   3.722   3.398   0.158
 1047HOH      O 3327   1.006   2.182   1.497
 1047HOH     H1 3328   0.985   2.185   1.591
 1047HOH     H2 3329   0.958   2.105   1.465
 1048HOH      O 3330   3.376   1.182   1.349
 1048HOH     H1 3331   3.453   1.235   1.329
 1048HOH     H2 3332   3.336   1.226   1.425
 1049HOH      O 3333   2.670   0.480   3.902
 1049HOH     H1 3334   2.758   0.444   3.895
 1049HOH     H2 3335   2.612   0.404   3.896
 1050HOH      O 3336   2.097   1.501   0.684
 1050HOH     H1 3337   2.111   1.535   0.772
 1050HOH     H2 3338   2.074   1.409   0.696
 1051HOH      O 3339   1.172   1.799   1.713
 1051HOH     H1 3340   1.146   1.731   1.651
 1051HOH     H2 3341   1.263   1.778   1.736
 1052HOH      O 3342   3.797   1.897   3.066
 1052HOH     H1 3343   3.869   1.836   3.083
 1052HOH     H2 3344   3.799   1.911   2.971
 1053HOH      O 3345   3.372   1.943   1.473
 1053HOH     H1 3346   3.369   1.899   1.387
 1053HOH     H2 3347   3.432   1.889   1.525
 1054HOH      O 3348   3.179   1.436   3.923
 1054HOH     H1 3349   3.236   1.367   3.890
 1054HOH     H2 3350   3.091   1.398   3.922
 1055HOH      O 3351   1.192   3.987   2.198
 1055HOH     H1 3352   1.193   3.938   2.116
 1055HOH     H2 3353   1.233   3.929   2.262
 1056HOH      O 3354   3.427   1.650   0.834
 1056HOH     H1 3355   3.443   1.684   0.922
 1056HOH     H2 3356   3.419   1.728   0.779
 1057HOH      O 3357   0.183   2.789   3.575
 1057HOH     H1 3358   0.218   2.801   3.664
 1057HOH     H2 3359   0.260   2.783   3.519
 1058HOH      O 3360   1.581   3.471   2.123
 1058HOH     H1 3361   1.645   3.401   2.134
 1058HOH     H2 3362   1.584   3.520   2.205
 1059HOH      O 3363   2.474   2.672   0.481
 1059HOH     H1 3364   2.503   2.678   0.572
 1059HOH     H2 3365   2.470   2.763   0.451
 1060HOH      O 3366   0.310   3.562   2.696
 1060HOH     H1 3367   0.354   3.489   2.654
 1060HOH     H2 3368   0.256   3.601   2.628
 1061HOH      O 3369   2.000   1.533   3.205
 1061HOH     H1 3370   1.948   1.592   3.151
 1061HOH     H2 3371   2.056   1.486   3.143
 1062HOH      O 3372   0.887   3.260   0.576
 1062HOH     H1 3373   0.846   3.330   0.627
 1062HOH     H2 3374   0.947   3.306   0.518
 1063HOH      O 3375   1.369   2.926   2.513
 1063HOH     H1 3376   1.341   3.016   2.499
 1063HOH     H2 3377   1.294   2.873   2.485
 1064HOH      O 3378   3.189   0.114   1.617
 1064HOH     H1 3379   3.101   0.123   1.653
 1064HOH     H2 3380   3.199   0.020   1.600
 1065HOH      O 3381   0.751   1.351   0.092
 1065HOH     H1 3382   0.802   1.352   0.173
 1065HOH     H2 3383   0.817   1.353   0.023
 1066HOH      O 3384   3.822   3.485   3.130
 1066HOH     H1 3385   3.768   3.448   3.060
 1066HOH     H2 3386   3.862   3.409   3.171
 1067HOH      O 3387   0.710   3.697   0.110
 1067HOH     H1 3388   0.801   3.674   0.093
 1067HOH     H2 3389   0.663   3.614   0.107
 1068HOH      O 3390   0.687   0.332   3.534
 1068HOH     H1 3391   0.715   0.243   3.552
 1068HOH     H2 3392   0.612   0.322   3.475
 1069HOH      O 3393   3.333   2.853   0.000
 1069HOH     H1 3394   3.262   2.911  -0.025
 1069HOH     H2 3395   3.370   2.892   0.079
 1070HOH      O 3396   3.267   0.971   3.091
 1070HOH     H1 3397   3.260   1.066   3.100
 1070HOH     H2 3398   3.210   0.949   3.018
 1071HOH      O 3399   2.259   2.968   3.177
 1071HOH     H1 3400   2.294   2.921   3.101
 1071HOH     H2 3401   2.204   2.903   3.222
 1072HOH      O 3402   1.383   0.134   3.956
 1072HOH     H1 3403   1.471   0.156   3.924
 1072HOH     H2 3404   1.330   0.211   3.936
 1073HOH      O 3405   1.139   1.640   3.992
 1073HOH     H1 3406   1.093   1.580   4.050
 1073HOH     H2 3407   1.100   1.623   3.906
 1074HOH      O 3408   1.699   3.625   2.820
 1074HOH     H1 3409   1.613   3.641   2.858
 1074HOH     H2 3410   1.751   3.702   2.844
 1075HOH      O 3411   2.671   3.036   1.104
 1075HOH     H1 3412   2.747   3.085   1.073
 1075HOH     H2 3413   2.703   2.947   1.114
 1076HOH      O 3414   2.696   2.550   2.790
 1076HOH     H1 3415   2.721   2.567   2.699
 1076HOH     H2 3416   2.779   2.535   2.835
 1077HOH      O 3417   2.460   3.036   3.526
 1077HOH     H1 3418   2.485   3.115   3.478
 1077HOH     H2 3419   2.540   3.008   3.571
 1078HOH      O 3420   3.339   1.161   1.868
 1078HOH     H1 3421   3.344   1.188   1.960
 1078HOH     H2 3422   3.397   1.222   1.823
 1079HOH      O 3423   1.130   0.977   2.610
 1079HOH     H1 3424   1.141   0.977   2.705
 1079HOH     H2 3425   1.205   0.927   2.577
 1080HOH      O 3426   1.452   2.262   1.134
 1080HOH     H1 3427   1.402   2.279   1.054
 1080HOH     H2 3428   1.387   2.259   1.203
 1081HOH      O 3429   0.275   2.796   0.873
 1081HOH     H1 3430   0.198   2.848   0.852
 1081HOH     H2 3431   0.272   2.722   0.813
 1082HOH      O 3432   3.210   1.222   0.318
 1082HOH     H1 3433   3.228   1.305   0.274
 1082HOH     H2 3434   3.268   1.159   0.275
 1083HOH      O 3435   2.200   4.011   3.491
 1083HOH     H1 3436   2.137   4.027   3.421
 1083HOH     H2 3437   2.152   3.961   3.556
 1084HOH      O 3438   0.091   0.504   0.888
 1084HOH     H1 3439   0.166   0.463   0.931
 1084HOH     H2 3440   0.127   0.538   0.806
 1085HOH      O 3441   3.934   1.476   3.581
 1085HOH     H1 3442   4.027   1.490   3.601
 1085HOH     H2 3443   3.889   1.506   3.660
 1086HOH      O 3444   3.067   2.661   1.043
 1086HOH     H1 3445   2.979   2.655   1.004
 1086HOH     H2 3446   3.064   2.599   1.116
 1087HOH      O 3447   3.754   0.014   2.981
 1087HOH     H1 3448   3.840  -0.020   3.008
 1087HOH     H2 3449   3.758   0.015   2.886
 1088HOH      O 3450   0.323   2.159   1.341
 1088HOH     H1 3451   0.271   2.080   1.326
 1088HOH     H2 3452   0.405   2.128   1.379
 1089HOH      O 3453   3.310   0.440   3.360
 1089HOH     H1 3454   3.237   0.500   3.376
 1089HOH     H2 3455   3.388   0.491   3.382
 1090HOH      O 3456   0.871   1.392   2.157
 1090HOH     H1 3457   0.869   1.428   2.246
 1090HOH     H2 3458   0.779   1.379   2.134
 1091HOH      O 3459   2.251   0.713   3.536
 1091HOH     H1 3460   2.305   0.790   3.554
 1091HOH     H2 3461   2.313   0.639   3.539
 1092HOH      O 3462   0.883   4.004   2.088
 1092HOH     H1 3463   0.863   3.944   2.016
 1092HOH     H2 3464   0.979   4.012   2.087
 1093HOH      O 3465   0.358   0.463   0.946
 1093HOH     H1 3466   0.432   0.457   0.885
 1093HOH     H2 3467   0.398   0.490   1.029
 1094HOH      O 3468   0.468   1.186   1.277
 1094HOH     H1 3469   0.513   1.104   1.258
 1094HOH     H2 3470   0.524   1.229   1.342
 1095HOH      O 3471   1.295   3.857   3.535
 1095HOH     H1 3472   1.386   3.883   3.544
 1095HOH     H2 3473   1.260   3.862   3.624
 1096HOH      O 3474   2.908   3.342   0.700
 1096HOH     H1 3475   2.945   3.430   0.690
 1096HOH     H2 3476   2.835   3.339   0.638
 1097HOH      O 3477   2.376   2.844   1.267
 1097HOH     H1 3478   2.424   2.773   1.309
 1097HOH     H2 3479   2.299   2.801   1.229
 1098HOH      O 3480   1.883   2.559   2.811
 1098HOH     H1 3481   1.960   2.514   2.845
 1098HOH     H2 3482   1.809   2.508   2.845
 1099HOH      O 3483   3.233   1.047   1.169
 1099HOH     H1 3484   3.294   1.091   1.230
 1099HOH     H2 3485   3.156   1.029   1.223
 1100HOH      O 3486   2.265   2.191   3.199
 1100HOH     H1 3487   2.211   2.220   3.272
 1100HOH     H2 3488   2.225   2.232   3.122
 1101HOH      O 3489   3.268   3.972   2.867
 1101HOH     H1 3490   3.273   4.038   2.799
 1101HOH     H2 3491   3.359   3.950   2.886
 1102HOH      O 3492   0.412   1.314   0.429
 1102HOH     H1 3493   0.398   1.319   0.524
 1102HOH     H2 3494   0.324   1.310   0.392
 1103HOH      O 3495   2.404   1.362   1.367
 1103HOH     H1 3496   2.459   1.354   1.445
 1103HOH     H2 3497   2.462   1.341   1.294
 1104HOH      O 3498   2.392   0.473   3.513
 1104HOH     H1 3499   2.476   0.514   3.491
 1104HOH     H2 3500   2.343   0.474   3.430
 1105HOH      O 3501   1.547   2.652   1.297
 1105HOH     H1 3502   1.533   2.724   1.358
 1105HOH     H2 3503   1.630   2.613   1.326
 1106HOH      O 3504   2.836   3.789   3.546
 1106HOH     H1 3505   2.746   3.767   3.569
 1106HOH     H2 3506   2.875   3.819   3.629
 1107HOH      O 3507   2.595   3.239   0.136
 1107HOH     H1 3508   2.511   3.224   0.179
 1107HOH     H2 3509   2.600   3.334   0.126
 1108HOH      O 3510   3.444   0.311   2.828
 1108HOH     H1 3511   3.411   0.286   2.914
 1108HOH     H2 3512   3.417   0.239   2.770
 1109HOH      O 3513   4.022   2.931   1.764
 1109HOH     H1 3514   4.015   2.924   1.669
 1109HOH     H2 3515   4.076   2.857   1.790
 1110HOH      O 3516   1.571   2.655   1.616
 1110HOH     H1 3517   1.638   2.601   1.572
 1110HOH     H2 3518   1.494   2.599   1.618
 1111HOH      O 3519   2.598   1.225   3.528
 1111HOH     H1 3520   2.636   1.144   3.495
 1111HOH     H2 3521   2.509   1.227   3.492
 1112HOH      O 3522   0.965   2.227   0.211
 1112HOH     H1 3523   0.995   2.306   0.257
 1112HOH     H2 3524   1.036   2.164   0.223
 1113HOH      O 3525   2.725   0.509   0.949
 1113HOH     H1 3526   2.820   0.499   0.954
 1113HOH     H2 3527   2.700   0.545   1.034
 1114HOH      O 3528   1.473   3.417   0.679
 1114HOH     H1 3529   1.545   3.360   0.654
 1114HOH     H2 3530   1.481   3.425   0.774
 1115HOH      O 3531   0.617   1.634   3.107
 1115HOH     H1 3532   0.572   1.597   3.031
 1115HOH     H2 3533   0.577   1.591   3.182
 1116HOH      O 3534   2.725   1.778   2.439
 1116HOH     H1 3535   2.665   1.783   2.365
 1116HOH     H2 3536   2.688   1.711   2.496
 1117HOH      O 3537   3.575   3.191   3.995
 1117HOH     H1 3538   3.601   3.127   4.061
 1117HOH     H2 3539   3.513   3.248   4.039
 1118HOH      O 3540   2.419   3.677   3.433
 1118HOH     H1 3541   2.483   3.710   3.496
 1118HOH     H2 3542   2.472   3.636   3.365
 1119HOH      O 3543   1.816   3.604   3.529
 1119HOH     H1 3544   1.823   3.633   3.438
 1119HOH     H2 3545   1.786   3.514   3.524
 1120HOH      O 3546   1.261   3.977   0.571
 1120HOH     H1 3547   1.233   4.057   0.526
 1120HOH     H2 3548   1.284   3.917   0.500
 1121HOH      O 3549   0.786   1.092   3.553
 1121HOH     H1 3550   0.847   1.052   3.615
 1121HOH     H2 3551   0.773   1.181   3.587
 1122HOH      O 3552   0.354   3.628   0.407
 1122HOH     H1 3553   0.399   3.599   0.328
 1122HOH     H2 3554   0.393   3.577   0.478
 1123HOH      O 3555   2.661   0.814   1.775
 1123HOH     H1 3556   2.600   0.797   1.704
 1123HOH     H2 3557   2.610   0.863   1.839
 1124HOH      O 3558   3.138   2.086   1.561
 1124HOH     H1 3559   3.068   2.021   1.564
 1124HOH     H2 3560   3.204   2.048   1.504
 1125HOH      O 3561   3.099   3.391   2.074
 1125HOH     H1 3562   3.114   3.343   1.992
 1125HOH     H2 3563   3.185   3.392   2.117
 1126HOH      O 3564   2.954   0.379   3.980
 1126HOH     H1 3565   2.974   0.384   3.887
 1126HOH     H2 3566   3.039   0.370   4.023
 1127HOH      O 3567   0.197   2.200   0.230
 1127HOH     H1 3568   0.192   2.190   0.135
 1127HOH     H2 3569   0.107   2.218   0.257
 1128HOH      O 3570   0.969   0.299   2.997
 1128HOH     H1 3571   0.956   0.205   3.006
 1128HOH     H2 3572   0.939   0.335   3.080
 1129HOH      O 3573   1.639   1.046   1.089
 1129HOH     H1 3574   1.703   1.089   1.032
 1129HOH     H2 3575   1.594   0.984   1.033
 1130HOH      O 3576   2.349   1.183   0.047
 1130HOH     H1 3577   2.297   1.122   0.099
 1130HOH     H2 3578   2.439   1.156   0.061
 1131HOH      O 3579   3.969   3.410   3.544
 1131HOH     H1 3580   3.950   3.490   3.495
 1131HOH     H2 3581   3.898   3.350   3.521
 1132HOH      O 3582   0.593   0.796   0.767
 1132HOH     H1 3583   0.590   0.828   0.677
 1132HOH     H2 3584   0.534   0.720   0.767
 1133HOH      O 3585   3.669   1.245   3.823
 1133HOH     H1 3586   3.746   1.303   3.829
 1133HOH     H2 3587   3.620   1.263   3.903
 1134HOH      O 3588   2.075   2.311   3.394
 1134HOH     H1 3589   2.005   2.315   3.459
 1134HOH     H2 3590   2.037   2.350   3.315
 1135HOH      O 3591   2.321   0.133   2.624
 1135HOH     H1 3592   2.248   0.088   2.667
 1135HOH     H2 3593   2.390   0.134   2.690
 1136HOH      O 3594   2.795   1.366   3.912
 1136HOH     H1 3595   2.727   1.394   3.851
 1136HOH     H2 3596   2.767   1.400   3.997
 1137HOH      O 3597   3.058   1.141   1.918
 1137HOH     H1 3598   3.031   1.062   1.872
 1137HOH     H2 3599   3.150   1.153   1.892
 1138HOH      O 3600   0.964   3.095   3.386
 1138HOH     H1 3601   1.000   3.081   3.474
 1138HOH     H2 3602   0.874   3.063   3.392
 1139HOH      O 3603   1.561   0.169   1.186
 1139HOH     H1 3604   1.588   0.192   1.097
 1139HOH     H2 3605   1.508   0.244   1.215
 1140HOH      O 3606   3.640   3.643   0.357
 1140HOH     H1 3607   3.566   3.669   0.302
 1140HOH     H2 3608   3.676   3.726   0.387
 1141HOH      O 3609   1.656   0.215   0.504
 1141HOH     H1 3610   1.571   0.227   0.545
 1141HOH     H2 3611   1.664   0.120   0.493
 1142HOH      O 3612   3.199   3.373   1.626
 1142HOH     H1 3613   3.162   3.316   1.558
 1142HOH     H2 3614   3.194   3.461   1.588
 1143HOH      O 3615   0.575   3.221   1.731
 1143HOH     H1 3616   0.612   3.160   1.795
 1143HOH     H2 3617   0.631   3.298   1.737
 1144HOH      O 3618   2.444   1.581   3.096
 1144HOH     H1 3619   2.450   1.676   3.085
 1144HOH     H2 3620   2.520   1.557   3.148
 1145HOH      O 3621   0.780   0.061   3.917
 1145HOH     H1 3622   0.775   0.011   3.836
 1145HOH     H2 3623   0.779   0.152   3.889
 1146HOH      O 3624   2.892   1.796   0.898
 1146HOH     H1 3625   2.924   1.789   0.988
 1146HOH     H2 3626   2.939   1.729   0.850
 1147HOH      O 3627   1.043   2.434   2.263
 1147HOH     H1 3628   1.091   2.477   2.192
 1147HOH     H2 3629   1.074   2.477   2.342
 1148HOH      O 3630   3.050   0.951   2.915
 1148HOH     H1 3631   2.959   0.927   2.928
 1148HOH     H2 3632   3.081   0.892   2.846
 1149HOH      O 3633   0.359   2.706   0.117
 1149HOH     H1 3634   0.315   2.625   0.141
 1149HOH     H2 3635   0.316   2.774   0.169
 1150HOH      O 3636   1.050   0.034   0.370
 1150HOH     H1 3637   1.012  -0.044   0.410
 1150HOH     H2 3638   1.092   0.003   0.290
 1151HOH      O 3639   0.139   0.099   1.616
 1151HOH     H1 3640   0.171   0.111   1.705
 1151HOH     H2 3641   0.219   0.090   1.563
 1152HOH      O 3642   1.693   2.653   3.917
 1152HOH     H1 3643   1.697   2.724   3.981
 1152HOH     H2 3644   1.723   2.692   3.835
 1153HOH      O 3645   0.303   1.268   1.736
 1153HOH     H1 3646   0.233   1.318   1.777
 1153HOH     H2 3647   0.347   1.331   1.678
 1154HOH      O 3648   0.954   3.104   0.195
 1154HOH     H1 3649   0.863   3.108   0.164
 1154HOH     H2 3650   0.981   3.014   0.180
 1155HOH      O 3651   1.122   0.109   0.029
 1155HOH     H1 3652   1.048   0.048   0.030
 1155HOH     H2 3653   1.190   0.066   0.079
 1156HOH      O 3654   3.101   0.387   2.238
 1156HOH     H1 3655   3.109   0.420   2.148
 1156HOH     H2 3656   3.022   0.333   2.236
 1157HOH      O 3657   2.257   2.518   3.096
 1157HOH     H1 3658   2.346   2.527   3.062
 1157HOH     H2 3659   2.206   2.486   3.022
 1158HOH      O 3660   3.026   1.212   0.540
 1158HOH     H1 3661   3.065   1.229   0.454
 1158HOH     H2 3662   3.065   1.128   0.567
 1159HOH      O 3663   3.832   2.153   0.261
 1159HOH     H1 3664   3.857   2.073   0.309
 1159HOH     H2 3665   3.799   2.212   0.329
 1160HOH      O 3666   2.969   1.770   3.924
 1160HOH     H1 3667   2.878   1.780   3.896
 1160HOH     H2 3668   2.963   1.736   4.014
 1161HOH      O 3669   0.478   0.582   3.917
 1161HOH     H1 3670   0.492   0.672   3.945
 1161HOH     H2 3671   0.389   0.582   3.881
 1162HOH      O 3672   1.296   3.228   2.547
 1162HOH     H1 3673   1.345   3.238   2.628
 1162HOH     H2 3674   1.331   3.296   2.489
 1163HOH      O 3675   0.067   1.932   2.950
 1163HOH     H1 3676   0.137   1.996   2.944
 1163HOH     H2 3677  -0.006   1.972   2.905
 1164HOH      O 3678   3.671   2.253   1.864
 1164HOH     H1 3679   3.730   2.208   1.804
 1164HOH     H2 3680   3.606   2.186   1.888
 1165HOH      O 3681   0.894   1.808   3.509
 1165HOH     H1 3682   0.971   1.829   3.456
 1165HOH     H2 3683   0.881   1.714   3.497
 1166HOH      O 3684   1.527   1.025   2.901
 1166HOH     H1 3685   1.485   1.077   2.970
 1166HOH     H2 3686   1.619   1.021   2.927
 1167HOH      O 3687   3.201   1.858   0.833
 1167HOH     H1 3688   3.216   1.803   0.910
 1167HOH     H2 3689   3.139   1.925   0.864
 1168HOH      O 3690   2.215   0.804   2.526
 1168HOH     H1 3691   2.264   0.823   2.446
 1168HOH     H2 3692   2.278   0.817   2.597
 1169HOH      O 3693   3.944   0.092   1.240
 1169HOH     H1 3694   3.928   0.022   1.303
 1169HOH     H2 3695   4.022   0.063   1.192
 1170HOH      O 3696   2.859   0.580   1.428
 1170HOH     H1 3697   2.900   0.548   1.348
 1170HOH     H2 3698   2.910   0.541   1.499
 1171HOH      O 3699   3.326   2.643   2.265
 1171HOH     H1 3700   3.313   2.559   2.309
 1171HOH     H2 3701   3.318   2.623   2.172
 1172HOH      O 3702   2.287   3.812   2.056
 1172HOH     H1 3703   2.247   3.741   2.006
 1172HOH     H2 3704   2.251   3.892   2.017
 1173HOH      O 3705   3.582   3.144   3.712
 1173HOH     H1 3706   3.555   3.171   3.800
 1173HOH     H2 3707   3.580   3.049   3.714
 1174HOH      O 3708   1.153   3.348   3.394
 1174HOH     H1 3709   1.157   3.258   3.426
 1174HOH     H2 3710   1.176   3.342   3.301
 1175HOH      O 3711   0.918   2.800   0.128
 1175HOH     H1 3712   0.824   2.785   0.135
 1175HOH     H2 3713   0.937   2.789   0.035
 1176HOH      O 3714   3.537   2.956   3.435
 1176HOH     H1 3715   3.577   2.908   3.363
 1176HOH     H2 3716   3.556   3.048   3.415
 1177HOH      O 3717   3.174   3.058   3.196
 1177HOH     H1 3718   3.157   2.966   3.216
 1177HOH     H2 3719   3.214   3.092   3.276
 1178HOH      O 3720   0.654   2.297   3.626
 1178HOH     H1 3721   0.583   2.233   3.635
 1178HOH     H2 3722   0.609   2.378   3.602
 1179HOH      O 3723   3.643   2.455   0.663
 1179HOH     H1 3724   3.551   2.448   0.688
 1179HOH     H2 3725   3.672   2.539   0.699
 1180HOH      O 3726   0.505   3.799   3.422
 1180HOH     H1 3727   0.410   3.796   3.406
 1180HOH     H2 3728   0.527   3.892   3.418
 1181HOH      O 3729   0.046   1.129   3.532
 1181HOH     H1 3730   0.035   1.217   3.496
 1181HOH     H2 3731   0.140   1.112   3.527
 1182HOH      O 3732   3.305   3.743   0.565
 1182HOH     H1 3733   3.233   3.699   0.520
 1182HOH     H2 3734   3.325   3.819   0.510
 1183HOH      O 3735   2.966   1.769   1.530
 1183HOH     H1 3736   2.885   1.818   1.541
 1183HOH     H2 3737   2.976   1.721   1.612
 1184HOH      O 3738   1.628   1.474   3.156
 1184HOH     H1 3739   1.653   1.473   3.248
 1184HOH     H2 3740   1.685   1.540   3.117
 1185HOH      O 3741   1.356   3.836   2.365
 1185HOH     H1 3742   1.385   3.916   2.409
 1185HOH     H2 3743   1.425   3.773   2.383
 1186HOH      O 3744   0.395   0.886   2.733
 1186HOH     H1 3745   0.407   0.792   2.716
 1186HOH     H2 3746   0.436   0.929   2.657
 1187HOH      O 3747   3.939   1.095   0.975
 1187HOH     H1 3748   3.869   1.120   1.035
 1187HOH     H2 3749   3.897   1.038   0.911
 1188HOH      O 3750   3.289   2.274   0.085
 1188HOH     H1 3751   3.214   2.239   0.134
 1188HOH     H2 3752   3.317   2.202   0.030
 1189HOH      O 3753   0.491   2.501   3.542
 1189HOH     H1 3754   0.431   2.469   3.473
 1189HOH     H2 3755   0.481   2.596   3.539
 1190HOH      O 3756   0.468   3.453   1.598
 1190HOH     H1 3757   0.422   3.458   1.514
 1190HOH     H2 3758   0.491   3.360   1.607
 1191HOH      O 3759   3.013   1.409   1.914
 1191HOH     H1 3760   3.037   1.317   1.908
 1191HOH     H2 3761   2.922   1.408   1.944
 1192HOH      O 3762   2.270   0.012   1.905
 1192HOH     H1 3763   2.353   0.056   1.884
 1192HOH     H2 3764   2.249  -0.038   1.827
 1193HOH      O 3765   3.852   3.465   0.376
 1193HOH     H1 3766   3.877   3.475   0.468
 1193HOH     H2 3767   3.785   3.532   0.362
 1194HOH      O 3768   0.124   0.243   3.518
 1194HOH     H1 3769   0.163   0.224   3.433
 1194HOH     H2 3770   0.108   0.157   3.558
 1195HOH      O 3771   0.465   1.586   0.558
 1195HOH     H1 3772   0.542   1.562   0.506
 1195HOH     H2 3773   0.420   1.651   0.505
 1196HOH      O 3774   0.401   2.470   2.107
 1196HOH     H1 3775   0.489   2.436   2.122
 1196HOH     H2 3776   0.350   2.394   2.081
 1197HOH      O 3777   1.575   1.506   2.469
 1197HOH     H1 3778   1.555   1.518   2.376
 1197HOH     H2 3779   1.539   1.420   2.491
 1198HOH      O 3780   1.244   3.509   3.566
 1198HOH     H1 3781   1.202   3.452   3.502
 1198HOH     H2 3782   1.337   3.486   3.562
 1199HOH      O 3783   2.434   4.027   2.388
 1199HOH     H1 3784   2.394   3.941   2.398
 1199HOH     H2 3785   2.401   4.078   2.461
 1200HOH      O 3786   3.220   0.647   0.341
 1200HOH     H1 3787   3.198   0.739   0.357
 1200HOH     H2 3788   3.141   0.608   0.305
 1201HOH      O 3789   2.232   3.555   0.005
 1201HOH     H1 3790   2.203   3.477  -0.040
 1201HOH     H2 3791   2.241   3.528   0.097
 1202HOH      O 3792   3.329   0.623   1.710
 1202HOH     H1 3793   3.343   0.537   1.671
 1202HOH     H2 3794   3.282   0.605   1.791
 1203HOH      O 3795   2.389   0.343   1.664
 1203HOH     H1 3796   2.317   0.350   1.727
 1203HOH     H2 3797   2.346   0.330   1.580
 1204HOH      O 3798   0.440   2.992   0.717
 1204HOH     H1 3799   0.416   2.935   0.790
 1204HOH     H2 3800   0.384   2.965   0.645
 1205HOH      O 3801   1.180   0.991   1.222
 1205HOH     H1 3802   1.098   1.019   1.181
 1205HOH     H2 3803   1.246   1.051   1.187
 1206HOH      O 3804   3.863   0.364   3.579
 1206HOH     H1 3805   3.957   0.373   3.595
 1206HOH     H2 3806   3.839   0.282   3.622
 1207HOH      O 3807   0.290   2.463   0.965
 1207HOH     H1 3808   0.291   2.507   0.880
 1207HOH     H2 3809   0.324   2.376   0.947
 1208HOH      O 3810   1.936   1.277   0.416
 1208HOH     H1 3811   1.978   1.265   0.501
 1208HOH     H2 3812   2.005   1.260   0.352
 1209HOH      O 3813   3.667   0.724   2.129
 1209HOH     H1 3814   3.676   0.690   2.040
 1209HOH     H2 3815   3.598   0.671   2.168
 1210HOH      O 3816   3.665   1.777   2.617
 1210HOH     H1 3817   3.651   1.871   2.605
 1210HOH     H2 3818   3.679   1.744   2.528
 1211HOH      O 3819   0.390   2.457   1.293
 1211HOH     H1 3820   0.356   2.484   1.208
 1211HOH     H2 3821   0.368   2.364   1.299
 1212HOH      O 3822   0.323   1.412   2.801
 1212HOH     H1 3823   0.251   1.351   2.786
 1212HOH     H2 3824   0.280   1.493   2.828
 1213HOH      O 3825   0.593   1.610   2.819
 1213HOH     H1 3826   0.529   1.544   2.793
 1213HOH     H2 3827   0.553   1.693   2.794
 1214HOH      O 3828   3.713   1.171   1.578
 1214HOH     H1 3829   3.798   1.137   1.550
 1214HOH     H2 3830   3.732   1.259   1.612
 1215HOH      O 3831   1.859   1.117   0.913
 1215HOH     H1 3832   1.849   1.212   0.920
 1215HOH     H2 3833   1.950   1.100   0.935
 1216HOH      O 3834   1.569   1.371   3.887
 1216HOH     H1 3835   1.610   1.431   3.825
 1216HOH     H2 3836   1.604   1.285   3.865
 1217HOH      O 3837   1.418   1.242   3.048
 1217HOH     H1 3838   1.338   1.250   3.100
 1217HOH     H2 3839   1.483   1.292   3.097
 1218HOH      O 3840   1.618   3.524   1.739
 1218HOH     H1 3841   1.671   3.454   1.778
 1218HOH     H2 3842   1.530   3.487   1.731
 1219HOH      O 3843   1.790   1.414   1.242
 1219HOH     H1 3844   1.851   1.487   1.245
 1219HOH     H2 3845   1.779   1.396   1.148
 1220HOH      O 3846   3.787   0.068   2.716
 1220HOH     H1 3847   3.769   0.066   2.622
 1220HOH     H2 3848   3.793   0.161   2.738
 1221HOH      O 3849   1.934   3.485   0.550
 1221HOH     H1 3850   1.931   3.490   0.454
 1221HOH     H2 3851   1.860   3.429   0.573
 1222HOH      O 3852   2.798   2.601   1.066
 1222HOH     H1 3853   2.745   2.529   1.032
 1222HOH     H2 3854   2.766   2.615   1.155
 1223HOH      O 3855   2.074   1.998   3.411
 1223HOH     H1 3856   2.117   1.951   3.483
 1223HOH     H2 3857   2.077   2.090   3.438
 1224HOH      O 3858   2.054   0.138   2.247
 1224HOH     H1 3859   2.029   0.187   2.325
 1224HOH     H2 3860   2.144   0.167   2.229
 1225HOH      O 3861   1.493   0.764   0.756
 1225HOH     H1 3862   1.578   0.722   0.744
 1225HOH     H2 3863   1.443   0.740   0.678
 1226HOH      O 3864   1.762   1.671   0.958
 1226HOH     H1 3865   1.695   1.739   0.962
 1226HOH     H2 3866   1.844   1.719   0.945
 1227HOH      O 3867   2.395   1.904   1.001
 1227HOH     H1 3868   2.435   1.990   1.007
 1227HOH     H2 3869   2.307   1.921   0.966
 1228HOH      O 3870   1.709   1.045   2.016
 1228HOH     H1 3871   1.708   1.133   2.051
 1228HOH     H2 3872   1.627   1.006   2.045
 1229HOH      O 3873   0.270   1.577   2.242
 1229HOH     H1 3874   0.348   1.521   2.238
 1229HOH     H2 3875   0.290   1.650   2.183
 1230HOH      O 3876   0.664   3.075   1.368
 1230HOH     H1 3877   0.664   3.170   1.362
 1230HOH     H2 3878   0.583   3.048   1.325
 1231HOH      O 3879   0.660   3.220   3.654
 1231HOH     H1 3880   0.565   3.233   3.644
 1231HOH     H2 3881   0.673   3.209   3.748
 1232HOH      O 3882   3.436   3.729   0.189
 1232HOH     H1 3883   3.432   3.661   0.121
 1232HOH     H2 3884   3.429   3.812   0.141
 1233HOH      O 3885   2.630   1.579   2.622
 1233HOH     H1 3886   2.576   1.590   2.700
 1233HOH     H2 3887   2.583   1.514   2.569
 1234HOH      O 3888   0.781   3.964   2.599
 1234HOH     H1 3889   0.849   3.993   2.659
 1234HOH     H2 3890   0.802   4.008   2.516
 1235HOH      O 3891   0.822   2.067   3.479
 1235HOH     H1 3892   0.791   2.117   3.554
 1235HOH     H2 3893   0.866   1.991   3.517
 1236HOH      O 3894   2.784   1.909   0.174
 1236HOH     H1 3895   2.697   1.946   0.189
 1236HOH     H2 3896   2.779   1.820   0.209
 1237HOH      O 3897   2.628   0.421   1.554
 1237HOH     H1 3898   2.557   0.396   1.613
 1237HOH     H2 3899   2.660   0.338   1.519
 1238HOH      O 3900   0.469   0.263   2.741
 1238HOH     H1 3901   0.528   0.193   2.767
 1238HOH     H2 3902   0.406   0.270   2.813
 1239HOH      O 3903   1.042   0.166   2.337
 1239HOH     H1 3904   0.947   0.155   2.329
 1239HOH     H2 3905   1.078   0.094   2.285
 1240HOH      O 3906   2.138   3.627   2.595
 1240HOH     H1 3907   2.142   3.603   2.688
 1240HOH     H2 3908   2.064   3.686   2.589
 1241HOH      O 3909   3.432   3.786   3.887
 1241HOH     H1 3910   3.378   3.775   3.809
 1241HOH     H2 3911   3.466   3.698   3.905
 1242HOH      O 3912   0.836   1.226   0.646
 1242HOH     H1 3913   0.831   1.149   0.702
 1242HOH     H2 3914   0.846   1.299   0.707
 1243HOH      O 3915   0.579   0.519   1.126
 1243HOH     H1 3916   0.525   0.459   1.178
 1243HOH     H2 3917   0.650   0.463   1.092
 1244HOH      O 3918   1.147   0.700   0.673
 1244HOH     H1 3919   1.203   0.740   0.606
 1244HOH     H2 3920   1.139   0.609   0.645
 1245HOH      O 3921   4.015   1.281   1.281
 1245HOH     H1 3922   4.008   1.186   1.276
 1245HOH     H2 3923   4.043   1.309   1.194
 1246HOH      O 3924   2.653   2.801   3.598
 1246HOH     H1 3925   2.623   2.757   3.519
 1246HOH     H2 3926   2.666   2.731   3.662
 1247HOH      O 3927   3.011   1.256   3.628
 1247HOH     H1 3928   3.027   1.172   3.584
 1247HOH     H2 3929   2.920   1.276   3.608
 1248HOH      O 3930   1.501   3.340   3.436
 1248HOH     H1 3931   1.593   3.314   3.435
 1248HOH     H2 3932   1.469   3.318   3.349
 1249HOH      O 3933   2.846   0.391   0.622
 1249HOH     H1 3934   2.842   0.336   0.700
 1249HOH     H2 3935   2.814   0.476   0.651
 1250HOH      O 3936   1.500   3.359   3.710
 1250HOH     H1 3937   1.414   3.342   3.747
 1250HOH     H2 3938   1.493   3.330   3.619
 1251HOH      O 3939   3.254   2.376   0.380
 1251HOH     H1 3940   3.203   2.358   0.459
 1251HOH     H2 3941   3.265   2.290   0.339
 1252HOH      O 3942   2.206   3.834   0.310
 1252HOH     H1 3943   2.268   3.869   0.373
 1252HOH     H2 3944   2.259   3.816   0.232
 1253HOH      O 3945   0.602   2.647   2.370
 1253HOH     H1 3946   0.593   2.696   2.289
 1253HOH     H2 3947   0.646   2.566   2.344
 1254HOH      O 3948   2.044   0.170   0.842
 1254HOH     H1 3949   2.083   0.217   0.916
 1254HOH     H2 3950   2.086   0.208   0.765
 1255HOH      O 3951   2.685   1.431   0.727
 1255HOH     H1 3952   2.678   1.490   0.802
 1255HOH     H2 3953   2.704   1.345   0.766
 1256HOH      O 3954   2.538   3.304   2.341
 1256HOH     H1 3955   2.608   3.238   2.345
 1256HOH     H2 3956   2.457   3.253   2.350
 1257HOH      O 3957   1.231   1.195   0.897
 1257HOH     H1 3958   1.184   1.154   0.825
 1257HOH     H2 3959   1.166   1.250   0.940
 1258HOH      O 3960   1.867   2.612   3.312
 1258HOH     H1 3961   1.778   2.586   3.332
 1258HOH     H2 3962   1.896   2.553   3.243
 1259HOH      O 3963   2.524   2.408   0.536
 1259HOH     H1 3964   2.502   2.500   0.517
 1259HOH     H2 3965   2.620   2.406   0.538
 1260HOH      O 3966   3.500   0.489   0.704
 1260HOH     H1 3967   3.471   0.572   0.742
 1260HOH     H2 3968   3.522   0.435   0.780
 1261HOH      O 3969   1.934   1.300   3.698
 1261HOH     H1 3970   1.978   1.280   3.781
 1261HOH     H2 3971   2.005   1.302   3.634
 1262HOH      O 3972   1.211   0.431   3.529
 1262HOH     H1 3973   1.231   0.349   3.484
 1262HOH     H2 3974   1.186   0.491   3.460
 1263HOH      O 3975   3.931   0.812   2.196
 1263HOH     H1 3976   3.845   0.788   2.162
 1263HOH     H2 3977   3.989   0.805   2.120
 1264HOH      O 3978   3.307   0.925   3.458
 1264HOH     H1 3979   3.381   0.946   3.401
 1264HOH     H2 3980   3.240   0.989   3.434
 1265HOH      O 3981   0.359   2.631   1.866
 1265HOH     H1 3982   0.270   2.664   1.854
 1265HOH     H2 3983   0.360   2.599   1.957
 1266HOH      O 3984   2.502   2.534   2.994
 1266HOH     H1 3985   2.557   2.481   3.052
 1266HOH     H2 3986   2.560   2.556   2.921
 1267HOH      O 3987   0.404   3.622   1.152
 1267HOH     H1 3988   0.481   3.602   1.099
 1267HOH     H2 3989   0.349   3.678   1.097
 1268HOH      O 3990   1.362   3.411   2.899
 1268HOH     H1 3991   1.382   3.450   2.814
 1268HOH     H2 3992   1.391   3.320   2.892
 1269HOH      O 3993   0.319   3.846   0.599
 1269HOH     H1 3994   0.319   3.780   0.529
 1269HOH     H2 3995   0.371   3.806   0.669
 1270HOH      O 3996   1.377   2.400   2.387
 1270HOH     H1 3997   1.435   2.475   2.377
 1270HOH     H2 3998   1.350   2.402   2.479
 1271HOH      O 3999   3.742   1.145   1.150
 1271HOH     H1 4000   3.670   1.206   1.169
 1271HOH     H2 4001   3.809   1.166   1.216
 1272HOH      O 4002   2.546   2.995   2.542
 1272HOH     H1 4003   2.533   2.928   2.608
 1272HOH     H2 4004   2.461   3.004   2.499
 1273HOH      O 4005   0.758   1.562   0.537
 1273HOH     H1 4006   0.759   1.484   0.593
 1273HOH     H2 4007   0.759   1.636   0.598
 1274HOH      O 4008   1.593   0.395   2.486
 1274HOH     H1 4009   1.608   0.490   2.483
 1274HOH     H2 4010   1.540   0.382   2.565
 1275HOH      O 4011   1.105   2.305   3.863
 1275HOH     H1 4012   1.134   2.379   3.809
 1275HOH     H2 4013   1.032   2.267   3.813
 1276HOH      O 4014   1.024   2.546   1.794
 1276HOH     H1 4015   1.009   2.573   1.704
 1276HOH     H2 4016   1.117   2.523   1.797
 1277HOH      O 4017   3.168   0.759   2.159
 1277HOH     H1 4018   3.203   0.683   2.112
 1277HOH     H2 4019   3.211   0.834   2.119
 1278HOH      O 4020   3.530   0.813   1.128
 1278HOH     H1 4021   3.452   0.763   1.152
 1278HOH     H2 4022   3.568   0.840   1.211
 1279HOH      O 4023   3.819   3.862   2.013
 1279HOH     H1 4024   3.835   3.829   2.101
 1279HOH     H2 4025   3.864   3.946   2.010
 1280HOH      O 4026   2.878   2.121   2.863
 1280HOH     H1 4027   2.859   2.201   2.913
 1280HOH     H2 4028   2.974   2.114   2.865
 1281HOH      O 4029   2.899   1.867   2.637
 1281HOH     H1 4030   2.877   1.959   2.654
 1281HOH     H2 4031   2.858   1.848   2.553
 1282HOH      O 4032   2.717   1.854   3.898
 1282HOH     H1 4033   2.688   1.880   3.985
 1282HOH     H2 4034   2.638   1.855   3.845
 1283HOH      O 4035   1.980   0.659   2.553
 1283HOH     H1 4036   2.068   0.691   2.534
 1283HOH     H2 4037   1.955   0.704   2.633
 1284HOH      O 4038   2.783   2.906   3.882
 1284HOH     H1 4039   2.795   2.980   3.943
 1284HOH     H2 4040   2.770   2.947   3.797
 1285HOH      O 4041   1.254   3.077   0.594
 1285HOH     H1 4042   1.174   3.066   0.542
 1285HOH     H2 4043   1.276   3.170   0.584
 1286HOH      O 4044   2.335   1.218   1.863
 1286HOH     H1 4045   2.292   1.133   1.857
 1286HOH     H2 4046   2.318   1.260   1.779
 1287HOH      O 4047   2.529   3.187   0.457
 1287HOH     H1 4048   2.471   3.173   0.382
 1287HOH     H2 4049   2.472   3.179   0.533
 1288HOH      O 4050   1.856   2.613   0.837
 1288HOH     H1 4051   1.921   2.545   0.854
 1288HOH     H2 4052   1.798   2.610   0.914
 1289HOH      O 4053   1.630   0.386   1.045
 1289HOH     H1 4054   1.720   0.410   1.068
 1289HOH     H2 4055   1.576   0.453   1.087
 1290HOH      O 4056   2.881   0.847   0.889
 1290HOH     H1 4057   2.817   0.850   0.818
 1290HOH     H2 4058   2.891   0.938   0.917
 1291HOH      O 4059   3.169   2.666   1.698
 1291HOH     H1 4060   3.152   2.575   1.724
 1291HOH     H2 4061   3.088   2.712   1.719
 1292HOH      O 4062   0.269   1.781   1.029
 1292HOH     H1 4063   0.224   1.804   0.948
 1292HOH     H2 4064   0.361   1.769   1.003
 1293HOH      O 4065   0.431   2.392   2.487
 1293HOH     H1 4066   0.339   2.368   2.476
 1293HOH     H2 4067   0.443   2.468   2.430
 1294HOH      O 4068   0.758   0.541   0.809
 1294HOH     H1 4069   0.811   0.563   0.885
 1294HOH     H2 4070   0.673   0.581   0.827
 1295HOH      O 4071   2.928   3.994   3.997
 1295HOH     H1 4072   3.002   4.011   4.055
 1295HOH     H2 4073   2.851   3.999   4.053
 1296HOH      O 4074   0.912   1.243   1.483
 1296HOH     H1 4075   0.888   1.166   1.430
 1296HOH     H2 4076   0.835   1.300   1.479
 1297HOH      O 4077   0.438   1.569   3.319
 1297HOH     H1 4078   0.403   1.547   3.405
 1297HOH     H2 4079   0.416   1.661   3.307
 1298HOH      O 4080   2.549   2.286   3.508
 1298HOH     H1 4081   2.589   2.269   3.593
 1298HOH     H2 4082   2.460   2.316   3.530
 1299HOH      O 4083   2.547   2.017   0.020
 1299HOH     H1 4084   2.479   2.041   0.083
 1299HOH     H2 4085   2.508   2.033  -0.065
 1300HOH      O 4086   0.776   1.115   2.824
 1300HOH     H1 4087   0.694   1.163   2.832
 1300HOH     H2 4088   0.844   1.181   2.837
 1301HOH      O 4089   3.934   0.923   0.044
 1301HOH     H1 4090   4.012   0.923  -0.012
 1301HOH     H2 4091   3.882   0.996   0.012
 1302HOH      O 4092   3.904   1.750   3.811
 1302HOH     H1 4093   3.843   1.753   3.738
 1302HOH     H2 4094   3.854   1.712   3.883
 1303HOH      O 4095   2.799   3.225   1.713
 1303HOH     H1 4096   2.728   3.173   1.673
 1303HOH     H2 4097   2.868   3.162   1.730
 1304HOH      O 4098   0.081   0.725   2.010
 1304HOH     H1 4099   0.057   0.716   1.918
 1304HOH     H2 4100   0.143   0.798   2.012
 1305HOH      O 4101   0.955   0.121   3.240
 1305HOH     H1 4102   0.952   0.216   3.235
 1305HOH     H2 4103   1.003   0.102   3.321
 1306HOH      O 4104   1.620   2.913   0.749
 1306HOH     H1 4105   1.692   2.974   0.763
 1306HOH     H2 4106   1.590   2.891   0.837
 1307HOH      O 4107   0.248   3.270   1.688
 1307HOH     H1 4108   0.293   3.239   1.609
 1307HOH     H2 4109   0.257   3.366   1.684
 1308HOH      O 4110   3.437   0.674   3.381
 1308HOH     H1 4111   3.403   0.758   3.413
 1308HOH     H2 4112   3.532   0.681   3.392
 1309HOH      O 4113   2.556   2.614   0.751
 1309HOH     H1 4114   2.530   2.524   0.771
 1309HOH     H2 4115   2.651   2.613   0.755
 1310HOH      O 4116   2.062   1.131   3.227
 1310HOH     H1 4117   1.971   1.124   3.253
 1310HOH     H2 4118   2.077   1.224   3.212
 1311HOH      O 4119   2.826   0.845   1.492
 1311HOH     H1 4120   2.824   0.750   1.496
 1311HOH     H2 4121   2.741   0.870   1.455
 1312HOH      O 4122   1.874   3.916   3.602
 1312HOH     H1 4123   1.857   3.955   3.516
 1312HOH     H2 4124   1.870   3.989   3.663
 1313HOH      O 4125   1.534   0.467   3.333
 1313HOH     H1 4126   1.502   0.495   3.419
 1313HOH     H2 4127   1.553   0.548   3.287
 1314HOH      O 4128   2.691   0.708   3.733
 1314HOH     H1 4129   2.673   0.629   3.784
 1314HOH     H2 4130   2.776   0.739   3.766
 1315HOH      O 4131   1.597   2.145   1.898
 1315HOH     H1 4132   1.527   2.100   1.851
 1315HOH     H2 4133   1.674   2.090   1.886
 1316HOH      O 4134   0.475   2.864   1.572
 1316HOH     H1 4135   0.465   2.773   1.544
 1316HOH     H2 4136   0.492   2.858   1.666
 1317HOH      O 4137   3.858   3.871   3.701
 1317HOH     H1 4138   3.772   3.860   3.661
 1317HOH     H2 4139   3.913   3.805   3.658
 1318HOH      O 4140   3.092   3.175   0.544
 1318HOH     H1 4141   3.040   3.249   0.514
 1318HOH     H2 4142   3.037   3.133   0.610
 1319HOH      O 4143   1.053   3.772   2.985
 1319HOH     H1 4144   1.121   3.819   3.032
 1319HOH     H2 4145   1.082   3.681   2.985
 1320HOH      O 4146   3.566   0.902   3.619
 1320HOH     H1 4147   3.646   0.903   3.672
 1320HOH     H2 4148   3.596   0.920   3.530
 1321HOH      O 4149   2.044   0.259   3.830
 1321HOH     H1 4150   2.136   0.251   3.856
 1321HOH     H2 4151   2.026   0.353   3.831
 1322HOH      O 4152   2.063   3.446   1.505
 1322HOH     H1 4153   2.058   3.525   1.451
 1322HOH     H2 4154   2.031   3.376   1.449
 1323HOH      O 4155   2.723   0.329   2.022
 1323HOH     H1 4156   2.673   0.395   1.974
 1323HOH     H2 4157   2.660   0.259   2.040
 1324HOH      O 4158   3.015   2.912   1.712
 1324HOH     H1 4159   3.076   2.967   1.663
 1324HOH     H2 4160   2.952   2.881   1.646
 1325HOH      O 4161   0.151   0.680   0.155
 1325HOH     H1 4162   0.155   0.584   0.148
 1325HOH     H2 4163   0.183   0.699   0.243
 1326HOH      O 4164   1.924   2.929   0.394
 1326HOH     H1 4165   2.000   2.912   0.449
 1326HOH     H2 4166   1.898   2.842   0.362
 1327HOH      O 4167   2.882   3.512   1.868
 1327HOH     H1 4168   2.819   3.478   1.804
 1327HOH     H2 4169   2.879   3.449   1.940
 1328HOH      O 4170   0.342   3.936   2.855
 1328HOH     H1 4171   0.416   3.994   2.839
 1328HOH     H2 4172   0.322   3.899   2.769
 1329HOH      O 4173   1.919   0.786   2.773
 1329HOH     H1 4174   1.932   0.805   2.866
 1329HOH     H2 4175   1.856   0.853   2.744
 1330HOH      O 4176   2.127   3.657   3.493
 1330HOH     H1 4177   2.222   3.648   3.485
 1330HOH     H2 4178   2.092   3.577   3.453
 1331HOH      O 4179   0.924   3.771   2.360
 1331HOH     H1 4180   0.984   3.741   2.429
 1331HOH     H2 4181   0.876   3.843   2.400
 1332HOH      O 4182   4.006   2.346   1.813
 1332HOH     H1 4183   3.963   2.416   1.862
 1332HOH     H2 4184   4.027   2.280   1.878
 1333HOH      O 4185   0.066   2.277   1.106
 1333HOH     H1 4186   0.032   2.260   1.018
 1333HOH     H2 4187   0.049   2.370   1.121
 1334HOH      O 4188   0.264   1.171   2.092
 1334HOH     H1 4189   0.232   1.254   2.056
 1334HOH     H2 4190   0.218   1.162   2.176
 1335HOH      O 4191   0.235   0.688   2.946
 1335HOH     H1 4192   0.318   0.726   2.974
 1335HOH     H2 4193   0.169   0.735   2.996
 1336HOH      O 4194   2.564   2.630   0.023
 1336HOH     H1 4195   2.511   2.556  -0.006
 1336HOH     H2 4196   2.592   2.606   0.112
 1337HOH      O 4197   2.947   0.749   3.820
 1337HOH     H1 4198   2.977   0.675   3.766
 1337HOH     H2 4199   2.946   0.715   3.909
 1338HOH      O 4200   2.593   1.549   1.800
 1338HOH     H1 4201   2.553   1.570   1.885
 1338HOH     H2 4202   2.656   1.619   1.785
 1339HOH      O 4203   2.874   1.796   1.213
 1339HOH     H1 4204   2.890   1.875   1.265
 1339HOH     H2 4205   2.796   1.817   1.162
 1340HOH      O 4206   1.342   1.308   1.654
 1340HOH     H1 4207   1.400   1.246   1.698
 1340HOH     H2 4208   1.295   1.254   1.590
 1341HOH      O 4209   0.200   0.876   1.590
 1341HOH     H1 4210   0.173   0.966   1.572
 1341HOH     H2 4211   0.243   0.848   1.509
 1342HOH      O 4212   0.627   0.607   2.478
 1342HOH     H1 4213   0.599   0.577   2.564
 1342HOH     H2 4214   0.546   0.633   2.434
 1343HOH      O 4215   2.066   1.275   2.650
 1343HOH     H1 4216   2.095   1.184   2.650
 1343HOH     H2 4217   2.091   1.309   2.564
 1344HOH      O 4218   1.424   2.703   2.094
 1344HOH     H1 4219   1.473   2.675   2.172
 1344HOH     H2 4220   1.488   2.696   2.023
 1345HOH      O 4221   1.093   0.684   2.037
 1345HOH     H1 4222   1.062   0.624   2.105
 1345HOH     H2 4223   1.147   0.748   2.084
 1346HOH      O 4224   3.574   0.173   1.455
 1346HOH     H1 4225   3.649   0.174   1.514
 1346HOH     H2 4226   3.577   0.259   1.412
 1347HOH      O 4227   2.967   3.703   1.502
 1347HOH     H1 4228   2.926   3.735   1.422
 1347HOH     H2 4229   2.995   3.614   1.480
 1348HOH      O 4230   1.574   1.120   2.377
 1348HOH     H1 4231   1.662   1.127   2.415
 1348HOH     H2 4232   1.522   1.184   2.426
 1349HOH      O 4233   2.316   1.236   3.478
 1349HOH     H1 4234   2.280   1.180   3.547
 1349HOH     H2 4235   2.245   1.296   3.456
 1350HOH      O 4236   1.598   0.243   2.169
 1350HOH     H1 4237   1.680   0.210   2.132
 1350HOH     H2 4238   1.607   0.228   2.263
 1351HOH      O 4239   1.054   0.839   0.903
 1351HOH     H1 4240   1.140   0.863   0.938
 1351HOH     H2 4241   1.070   0.759   0.853
 1352HOH      O 4242   3.037   0.257   2.825
 1352HOH     H1 4243   3.036   0.196   2.751
 1352HOH     H2 4244   3.121   0.242   2.868
 1353HOH      O 4245   0.865   0.317   3.782
 1353HOH     H1 4246   0.863   0.296   3.688
 1353HOH     H2 4247   0.794   0.380   3.794
 1354HOH      O 4248   0.660   3.940   1.776
 1354HOH     H1 4249   0.608   4.017   1.802
 1354HOH     H2 4250   0.619   3.911   1.694
 1355HOH      O 4251   3.572   3.527   2.732
 1355HOH     H1 4252   3.637   3.482   2.679
 1355HOH     H2 4253   3.520   3.457   2.772
 1356HOH      O 4254   0.801   3.164   3.146
 1356HOH     H1 4255   0.861   3.208   3.086
 1356HOH     H2 4256   0.848   3.160   3.229
 1357HOH      O 4257   2.172   3.052   3.418
 1357HOH     H1 4258   2.200   2.971   3.460
 1357HOH     H2 4259   2.228   3.059   3.340
 1358HOH      O 4260   3.840   0.511   2.991
 1358HOH     H1 4261   3.795   0.567   3.055
 1358HOH     H2 4262   3.878   0.572   2.929
 1359HOH      O 4263   3.814   0.403   1.688
 1359HOH     H1 4264   3.843   0.393   1.779
 1359HOH     H2 4265   3.863   0.337   1.640
 1360HOH      O 4266   3.590   1.656   0.390
 1360HOH     H1 4267   3.655   1.675   0.322
 1360HOH     H2 4268   3.632   1.589   0.445
 1361HOH      O 4269   3.205   1.761   1.077
 1361HOH     H1 4270   3.176   1.700   1.145
 1361HOH     H2 4271   3.286   1.798   1.112
 1362HOH      O 4272   1.866   0.299   0.644
 1362HOH     H1 4273   1.803   0.240   0.603
 1362HOH     H2 4274   1.906   0.247   0.714
 1363HOH      O 4275   1.820   2.912   3.110
 1363HOH     H1 4276   1.736   2.932   3.152
 1363HOH     H2 4277   1.798   2.858   3.035
 1364HOH      O 4278   2.869   0.695   3.215
 1364HOH     H1 4279   2.829   0.620   3.260
 1364HOH     H2 4280   2.917   0.655   3.142
 1365HOH      O 4281   3.931   2.549   1.970
 1365HOH     H1 4282   3.839   2.575   1.978
 1365HOH     H2 4283   3.970   2.574   2.054
 1366HOH      O 4284   1.800   0.674   3.388
 1366HOH     H1 4285   1.791   0.594   3.440
 1366HOH     H2 4286   1.851   0.647   3.312
 1367HOH      O 4287   1.685   2.868   0.062
 1367HOH     H1 4288   1.608   2.923   0.077
 1367HOH     H2 4289   1.703   2.829   0.147
 1368HOH      O 4290   0.917   1.809   0.349
 1368HOH     H1 4291   0.960   1.894   0.335
 1368HOH     H2 4292   0.973   1.765   0.413
 1369HOH      O 4293   1.787   3.740   2.257
 1369HOH     H1 4294   1.859   3.679   2.240
 1369HOH     H2 4295   1.800   3.811   2.195
 1370HOH      O 4296   3.910   3.600   3.378
 1370HOH     H1 4297   3.905   3.696   3.382
 1370HOH     H2 4298   3.850   3.577   3.307
 1371HOH      O 4299   0.818   1.079   0.149
 1371HOH     H1 4300   0.811   1.165   0.109
 1371HOH     H2 4301   0.835   1.097   0.242
 1372HOH      O 4302   2.300   2.759   0.946
 1372HOH     H1 4303   2.238   2.686   0.952
 1372HOH     H2 4304   2.385   2.720   0.965
 1373HOH      O 4305   1.517   1.410   1.937
 1373HOH     H1 4306   1.428   1.403   1.972
 1373HOH     H2 4307   1.537   1.504   1.941
 1374HOH      O 4308   2.976   2.169   3.369
 1374HOH     H1 4309   2.885   2.157   3.342
 1374HOH     H2 4310   2.977   2.144   3.461
 1375HOH      O 4311   3.397   0.956   3.854
 1375HOH     H1 4312   3.435   0.960   3.766
 1375HOH     H2 4313   3.469   0.928   3.910
 1376HOH      O 4314   2.513   0.911   1.977
 1376HOH     H1 4315   2.525   0.960   2.059
 1376HOH     H2 4316   2.418   0.905   1.967
 1377HOH      O 4317   0.416   1.856   0.045
 1377HOH     H1 4318   0.440   1.916  -0.025
 1377HOH     H2 4319   0.323   1.837   0.029
 1378HOH      O 4320   2.473   0.289   3.872
 1378HOH     H1 4321   2.427   0.246   3.944
 1378HOH     H2 4322   2.469   0.227   3.800
 1379HOH      O 4323   1.558   0.407   0.238
 1379HOH     H1 4324   1.480   0.419   0.292
 1379HOH     H2 4325   1.527   0.421   0.149
 1380HOH      O 4326   1.086   0.709   1.206
 1380HOH     H1 4327   1.108   0.687   1.115
 1380HOH     H2 4328   1.109   0.801   1.215
 1381HOH      O 4329   1.800   3.385   2.926
 1381HOH     H1 4330   1.828   3.348   2.843
 1381HOH     H2 4331   1.778   3.476   2.906
 1382HOH      O 4332   3.662   2.690   0.033
 1382HOH     H1 4333   3.569   2.678   0.014
 1382HOH     H2 4334   3.703   2.692  -0.053
 1383HOH      O 4335   1.048   3.100   1.126
 1383HOH     H1 4336   0.992   3.175   1.108
 1383HOH     H2 4337   0.997   3.045   1.186
 1384HOH      O 4338   1.388   2.481   1.566
 1384HOH     H1 4339   1.324   2.509   1.500
 1384HOH     H2 4340   1.441   2.416   1.521
 1385HOH      O 4341   2.113   2.728   3.205
 1385HOH     H1 4342   2.142   2.641   3.177
 1385HOH     H2 4343   2.018   2.724   3.204
 1386HOH      O 4344   0.505   0.313   1.298
 1386HOH     H1 4345   0.451   0.271   1.231
 1386HOH     H2 4346   0.444   0.333   1.369
 1387HOH      O 4347   1.436   0.138   2.368
 1387HOH     H1 4348   1.491   0.088   2.428
 1387HOH     H2 4349   1.386   0.196   2.425
 1388HOH      O 4350   3.501   2.466   2.510
 1388HOH     H1 4351   3.423   2.440   2.461
 1388HOH     H2 4352   3.561   2.500   2.443
 1389HOH      O 4353   0.765   2.602   0.608
 1389HOH     H1 4354   0.747   2.615   0.515
 1389HOH     H2 4355   0.835   2.663   0.627
 1390HOH      O 4356   3.560   0.439   3.961
 1390HOH     H1 4357   3.634   0.383   3.982
 1390HOH     H2 4358   3.554   0.437   3.865
 1391HOH      O 4359   1.262   1.716   2.839
 1391HOH     H1 4360   1.300   1.802   2.823
 1391HOH     H2 4361   1.253   1.710   2.934
 1392HOH      O 4362   2.181   0.983   2.937
 1392HOH     H1 4363   2.153   0.921   3.005
 1392HOH     H2 4364   2.157   1.069   2.973
 1393HOH      O 4365   2.558   3.520   3.760
 1393HOH     H1 4366   2.583   3.433   3.727
 1393HOH     H2 4367   2.476   3.505   3.808
 1394HOH      O 4368   3.108   2.396   1.172
 1394HOH     H1 4369   3.049   2.435   1.237
 1394HOH     H2 4370   3.193   2.394   1.215
 1395HOH      O 4371   2.841   0.254   0.151
 1395HOH     H1 4372   2.805   0.319   0.211
 1395HOH     H2 4373   2.867   0.305   0.074
 1396HOH      O 4374   0.468   3.943   1.310
 1396HOH     H1 4375   0.447   3.923   1.219
 1396HOH     H2 4376   0.563   3.933   1.316
 1397HOH      O 4377   1.474   2.049   3.115
 1397HOH     H1 4378   1.485   1.960   3.083
 1397HOH     H2 4379   1.563   2.084   3.117
 1398HOH      O 4380   1.579   3.479   3.959
 1398HOH     H1 4381   1.557   3.565   3.995
 1398HOH     H2 4382   1.567   3.489   3.865
 1399HOH      O 4383   1.339   2.208   0.544
 1399HOH     H1 4384   1.341   2.293   0.587
 1399HOH     H2 4385   1.353   2.227   0.452
 1400HOH      O 4386   1.784   0.367   3.448
 1400HOH     H1 4387   1.693   0.353   3.420
 1400HOH     H2 4388   1.834   0.370   3.367
 1401HOH      O 4389   0.768   2.652   3.241
 1401HOH     H1 4390   0.850   2.650   3.290
 1401HOH     H2 4391   0.751   2.745   3.227
 1402HOH      O 4392   1.063   2.167   3.045
 1402HOH     H1 4393   1.070   2.147   3.138
 1402HOH     H2 4394   1.006   2.243   3.042
 1403HOH      O 4395   3.342   2.712   0.283
 1403HOH     H1 4396   3.253   2.744   0.296
 1403HOH     H2 4397   3.395   2.792   0.272
 1404HOH      O 4398   3.614   3.681   1.099
 1404HOH     H1 4399   3.627   3.731   1.179
 1404HOH     H2 4400   3.681   3.714   1.039
 1405HOH      O 4401   2.211   1.507   3.658
 1405HOH     H1 4402   2.263   1.452   3.716
 1405HOH     H2 4403   2.173   1.574   3.715
 1406HOH      O 4404   2.708   2.304   3.020
 1406HOH     H1 4405   2.638   2.272   2.963
 1406HOH     H2 4406   2.690   2.264   3.105
 1407HOH      O 4407   0.221   1.397   2.455
 1407HOH     H1 4408   0.292   1.378   2.518
 1407HOH     H2 4409   0.259   1.462   2.396
 1408HOH      O 4410   2.274   3.788   2.311
 1408HOH     H1 4411   2.303   3.776   2.220
 1408HOH     H2 4412   2.180   3.807   2.303
 1409HOH      O 4413   2.006   0.407   0.065
 1409HOH     H1 4414   1.953   0.349   0.119
 1409HOH     H2 4415   1.942   0.455   0.012
 1410HOH      O 4416   1.052   3.894   0.749
 1410HOH     H1 4417   1.014   3.861   0.668
 1410HOH     H2 4418   1.138   3.928   0.724
 1411HOH      O 4419   2.277   0.283   2.224
 1411HOH     H1 4420   2.322   0.331   2.154
 1411HOH     H2 4421   2.284   0.339   2.300
 1412HOH      O 4422   3.265   2.640   3.067
 1412HOH     H1 4423   3.246   2.675   3.154
 1412HOH     H2 4424   3.338   2.580   3.081
 1413HOH      O 4425   1.443   2.762   3.176
 1413HOH     H1 4426   1.423   2.671   3.200
 1413HOH     H2 4427   1.467   2.757   3.083
 1414HOH      O 4428   2.144   3.573   1.951
 1414HOH     H1 4429   2.163   3.530   2.035
 1414HOH     H2 4430   2.221   3.555   1.897
 1415HOH      O 4431   1.397   0.221   2.902
 1415HOH     H1 4432   1.444   0.138   2.901
 1415HOH     H2 4433   1.442   0.275   2.967
 1416HOH      O 4434   3.327   1.393   0.141
 1416HOH     H1 4435   3.401   1.340   0.110
 1416HOH     H2 4436   3.304   1.448   0.066
 1417HOH      O 4437   0.574   1.429   0.941
 1417HOH     H1 4438   0.499   1.381   0.975
 1417HOH     H2 4439   0.539   1.514   0.916
 1418HOH      O 4440   2.782   3.854   0.940
 1418HOH     H1 4441   2.803   3.844   0.847
 1418HOH     H2 4442   2.808   3.770   0.979
 1419HOH      O 4443   1.114   0.617   3.043
 1419HOH     H1 4444   1.073   0.565   2.973
 1419HOH     H2 4445   1.046   0.679   3.069
 1420HOH      O 4446   2.581   3.596   3.224
 1420HOH     H1 4447   2.590   3.677   3.174
 1420HOH     H2 4448   2.669   3.579   3.259
 1421HOH      O 4449   0.003   3.197   1.744
 1421HOH     H1 4450   0.097   3.203   1.726
 1421HOH     H2 4451  -0.012   3.103   1.757
 1422HOH      O 4452   3.661   2.926   0.702
 1422HOH     H1 4453   3.615   2.919   0.786
 1422HOH     H2 4454   3.722   2.851   0.702
 1423HOH      O 4455   2.977   1.554   3.677
 1423HOH     H1 4456   2.910   1.616   3.648
 1423HOH     H2 4457   2.940   1.515   3.757
 1424HOH      O 4458   2.444   1.768   0.276
 1424HOH     H1 4459   2.533   1.735   0.267
 1424HOH     H2 4460   2.436   1.793   0.368
 1425HOH      O 4461   0.500   3.697   3.078
 1425HOH     H1 4462   0.583   3.739   3.101
 1425HOH     H2 4463   0.508   3.608   3.113
 1426HOH      O 4464   3.884   3.733   2.260
 1426HOH     H1 4465   3.924   3.765   2.341
 1426HOH     H2 4466   3.818   3.670   2.289
 1427HOH      O 4467   2.185   1.869   0.777
 1427HOH     H1 4468   2.255   1.908   0.726
 1427HOH     H2 4469   2.106   1.884   0.725
 1428HOH      O 4470   3.698   1.866   0.605
 1428HOH     H1 4471   3.618   1.882   0.656
 1428HOH     H2 4472   3.686   1.777   0.571
 1429HOH      O 4473   3.633   1.240   3.191
 1429HOH     H1 4474   3.725   1.223   3.169
 1429HOH     H2 4475   3.613   1.323   3.148
 1430HOH      O 4476   3.478   3.464   1.877
 1430HOH     H1 4477   3.442   3.382   1.910
 1430HOH     H2 4478   3.549   3.485   1.937
 1431HOH      O 4479   1.796   0.901   3.747
 1431HOH     H1 4480   1.843   0.883   3.666
 1431HOH     H2 4481   1.849   0.859   3.815
 1432HOH      O 4482   1.759   1.239   2.612
 1432HOH     H1 4483   1.745   1.297   2.686
 1432HOH     H2 4484   1.854   1.225   2.609
 1433HOH      O 4485   2.008   3.202   0.988
 1433HOH     H1 4486   2.051   3.252   0.919
 1433HOH     H2 4487   2.065   3.126   1.001
 1434HOH      O 4488   0.341   1.962   0.626
 1434HOH     H1 4489   0.426   1.954   0.668
 1434HOH     H2 4490   0.354   2.025   0.555
 1435HOH      O 4491   3.433   1.590   3.374
 1435HOH     H1 4492   3.358   1.586   3.433
 1435HOH     H2 4493   3.494   1.524   3.409
 1436HOH      O 4494   1.174   1.500   1.789
 1436HOH     H1 4495   1.226   1.449   1.727
 1436HOH     H2 4496   1.216   1.586   1.789
 1437HOH      O 4497   2.085   3.354   0.745
 1437HOH     H1 4498   2.049   3.412   0.678
 1437HOH     H2 4499   2.165   3.318   0.707
 1438HOH      O 4500   2.343   3.640   0.938
 1438HOH     H1 4501   2.249   3.633   0.921
 1438HOH     H2 4502   2.352   3.721   0.988
 1439HOH      O 4503   2.379   3.378   0.927
 1439HOH     H1 4504   2.374   3.472   0.947
 1439HOH     H2 4505   2.341   3.336   1.004
 1440HOH      O 4506   0.430   3.993   3.174
 1440HOH     H1 4507   0.423   3.935   3.098
 1440HOH     H2 4508   0.522   4.019   3.176
 1441HOH      O 4509   1.684   1.014   1.642
 1441HOH     H1 4510   1.640   1.069   1.708
 1441HOH     H2 4511   1.682   1.067   1.562
 1442HOH      O 4512   3.779   0.140   3.721
 1442HOH     H1 4513   3.705   0.080   3.714
 1442HOH     H2 4514   3.844   0.092   3.773
 1443HOH      O 4515   3.665   2.265   3.193
 1443HOH     H1 4516   3.629   2.304   3.273
 1443HOH     H2 4517   3.621   2.310   3.122
 1444HOH      O 4518   2.634   3.426   0.558
 1444HOH     H1 4519   2.606   3.356   0.498
 1444HOH     H2 4520   2.658   3.381   0.638
 1445HOH      O 4521   0.369   1.012   1.792
 1445HOH     H1 4522   0.335   1.101   1.783
 1445HOH     H2 4523   0.319   0.961   1.729
 1446HOH      O 4524   1.216   1.684   3.104
 1446HOH     H1 4525   1.149   1.752   3.104
 1446HOH     H2 4526   1.191   1.626   3.176
 1447HOH      O 4527   0.577   3.794   2.525
 1447HOH     H1 4528   0.557   3.759   2.612
 1447HOH     H2 4529   0.663   3.836   2.536
 1448HOH      O 4530   3.414   0.562   2.511
 1448HOH     H1 4531   3.440   0.653   2.503
 1448HOH     H2 4532   3.496   0.515   2.524
 1449HOH      O 4533   0.800   1.090   0.421
 1449HOH     H1 4534   0.810   1.145   0.498
 1449HOH     H2 4535   0.791   1.001   0.456
 1450HOH      O 4536   3.537   3.562   3.989
 1450HOH     H1 4537   3.610   3.552   3.927
 1450HOH     H2 4538   3.565   3.513   4.066
 1451HOH      O 4539   0.073   2.988   2.557
 1451HOH     H1 4540   0.045   3.041   2.482
 1451HOH     H2 4541   0.121   2.915   2.518
 1452HOH      O 4542   3.130   2.811   3.316
 1452HOH     H1 4543   3.063   2.803   3.383
 1452HOH     H2 4544   3.204   2.760   3.349
 1453HOH      O 4545   2.007   1.317   2.914
 1453HOH     H1 4546   2.040   1.287   2.829
 1453HOH     H2 4547   2.049   1.402   2.928
 1454HOH      O 4548   0.309   2.800   2.523
 1454HOH     H1 4549   0.283   2.767   2.437
 1454HOH     H2 4550   0.404   2.802   2.521
 1455HOH      O 4551   2.335   2.911   0.714
 1455HOH     H1 4552   2.324   2.836   0.773
 1455HOH     H2 4553   2.430   2.926   0.712
 1456HOH      O 4554   3.018   0.243   3.719
 1456HOH     H1 4555   3.103   0.281   3.694
 1456HOH     H2 4556   3.038   0.152   3.739
 1457HOH      O 4557   0.330   1.260   0.704
 1457HOH     H1 4558   0.360   1.321   0.772
 1457HOH     H2 4559   0.236   1.252   0.720
 1458HOH      O 4560   0.983   2.370   3.468
 1458HOH     H1 4561   0.977   2.328   3.382
 1458HOH     H2 4562   1.042   2.314   3.518
 1459HOH      O 4563   1.536   3.716   0.073
 1459HOH     H1 4564   1.536   3.797   0.022
 1459HOH     H2 4565   1.583   3.737   0.153
 1460HOH      O 4566   3.027   0.085   0.482
 1460HOH     H1 4567   3.034   0.151   0.414
 1460HOH     H2 4568   3.113   0.086   0.525
 1461HOH      O 4569   3.672   2.198   0.728
 1461HOH     H1 4570   3.603   2.168   0.670
 1461HOH     H2 4571   3.689   2.288   0.701
 1462HOH      O 4572   0.966   0.972   1.949
 1462HOH     H1 4573   1.021   0.897   1.969
 1462HOH     H2 4574   0.996   1.040   2.009
 1463HOH      O 4575   2.494   0.695   2.426
 1463HOH     H1 4576   2.442   0.657   2.497
 1463HOH     H2 4577   2.575   0.723   2.468
 1464HOH      O 4578   0.135   1.403   3.042
 1464HOH     H1 4579   0.042   1.379   3.046
 1464HOH     H2 4580   0.138   1.477   2.982
 1465HOH      O 4581   0.710   0.438   2.271
 1465HOH     H1 4582   0.684   0.499   2.340
 1465HOH     H2 4583   0.701   0.487   2.190
 1466HOH      O 4584   3.711   2.539   2.303
 1466HOH     H1 4585   3.794   2.520   2.347
 1466HOH     H2 4586   3.703   2.634   2.308
 1467HOH      O 4587   2.787   2.285   0.743
 1467HOH     H1 4588   2.822   2.206   0.703
 1467HOH     H2 4589   2.828   2.289   0.829
 1468HOH      O 4590   3.166   1.900   2.196
 1468HOH     H1 4591   3.091   1.841   2.195
 1468HOH     H2 4592   3.178   1.923   2.288
 1469HOH      O 4593   1.970   3.394   2.456
 1469HOH     H1 4594   2.055   3.421   2.491
 1469HOH     H2 4595   1.988   3.312   2.410
 1470HOH      O 4596   0.659   3.116   0.483
 1470HOH     H1 4597   0.590   3.103   0.548
 1470HOH     H2 4598   0.725   3.169   0.528
 1471HOH      O 4599   0.978   1.972   2.696
 1471HOH     H1 4600   1.038   1.943   2.628
 1471HOH     H2 4601   1.020   2.050   2.734
 1472HOH      O 4602   2.781   2.940   2.172
 1472HOH     H1 4603   2.837   3.004   2.128
 1472HOH     H2 4604   2.774   2.868   2.110
 1473HOH      O 4605   2.313   2.415   3.495
 1473HOH     H1 4606   2.272   2.415   3.582
 1473HOH     H2 4607   2.250   2.371   3.439
 1474HOH      O 4608   0.425   3.091   0.156
 1474HOH     H1 4609   0.373   3.171   0.164
 1474HOH     H2 4610   0.360   3.022   0.140
 1475HOH      O 4611   1.428   1.464   0.097
 1475HOH     H1 4612   1.465   1.456   0.009
 1475HOH     H2 4613   1.334   1.451   0.085
 1476HOH      O 4614   3.108   0.998   0.678
 1476HOH     H1 4615   3.166   0.926   0.703
 1476HOH     H2 4616   3.057   1.018   0.757
 1477HOH      O 4617   3.949   3.856   3.108
 1477HOH     H1 4618   3.933   3.848   3.202
 1477HOH     H2 4619   4.043   3.843   3.099
 1478HOH      O 4620   2.572   3.842   1.598
 1478HOH     H1 4621   2.585   3.824   1.505
 1478HOH     H2 4622   2.511   3.775   1.628
 1479HOH      O 4623   1.378   3.864   1.039
 1479HOH     H1 4624   1.457   3.915   1.020
 1479HOH     H2 4625   1.403   3.773   1.019
 1480HOH      O 4626   3.307   2.297   3.197
 1480HOH     H1 4627   3.361   2.348   3.258
 1480HOH     H2 4628   3.217   2.315   3.225
 1481HOH      O 4629   1.897   3.747   1.165
 1481HOH     H1 4630   1.970   3.700   1.206
 1481HOH     H2 4631   1.928   3.837   1.157
 1482HOH      O 4632   1.564   3.898   3.626
 1482HOH     H1 4633   1.654   3.874   3.601
 1482HOH     H2 4634   1.571   3.991   3.650
 1483HOH      O 4635   0.303   0.412   1.467
 1483HOH     H1 4636   0.272   0.429   1.377
 1483HOH     H2 4637   0.243   0.463   1.522
 1484HOH      O 4638   0.315   3.044   2.975
 1484HOH     H1 4639   0.254   3.038   3.049
 1484HOH     H2 4640   0.258   3.061   2.899
 1485HOH      O 4641   3.501   0.868   2.752
 1485HOH     H1 4642   3.536   0.941   2.701
 1485HOH     H2 4643   3.559   0.795   2.732
 1486HOH      O 4644   3.180   3.871   1.583
 1486HOH     H1 4645   3.238   3.815   1.634
 1486HOH     H2 4646   3.117   3.810   1.544
 1487HOH      O 4647   0.063   1.916   2.116
 1487HOH     H1 4648   0.068   1.830   2.159
 1487HOH     H2 4649   0.004   1.967   2.171
 1488HOH      O 4650   1.855   3.984   2.143
 1488HOH     H1 4651   1.905   3.934   2.079
 1488HOH     H2 4652   1.919   4.039   2.187
 1489HOH      O 4653   1.405   0.871   1.040
 1489HOH     H1 4654   1.384   0.814   0.967
 1489HOH     H2 4655   1.358   0.833   1.115
 1490HOH      O 4656   1.905   1.066   2.274
 1490HOH     H1 4657   1.934   1.146   2.318
 1490HOH     H2 4658   1.832   1.094   2.218
 1491HOH      O 4659   1.019   2.827   1.908
 1491HOH     H1 4660   1.005   2.870   1.824
 1491HOH     H2 4661   1.021   2.734   1.888
 1492HOH      O 4662   2.136   3.120   1.953
 1492HOH     H1 4663   2.204   3.117   1.886
 1492HOH     H2 4664   2.184   3.135   2.035
 1493HOH      O 4665   3.139   1.705   3.034
 1493HOH     H1 4666   3.117   1.788   3.075
 1493HOH     H2 4667   3.125   1.720   2.940
 1494HOH      O 4668   2.596   1.990   0.548
 1494HOH     H1 4669   2.634   1.998   0.635
 1494HOH     H2 4670   2.540   1.913   0.553
 1495HOH      O 4671   3.394   3.225   2.024
 1495HOH     H1 4672   3.338   3.148   2.024
 1495HOH     H2 4673   3.483   3.190   2.020
 1496HOH      O 4674   2.082   1.301   3.942
 1496HOH     H1 4675   2.169   1.335   3.921
 1496HOH     H2 4676   2.055   1.350   4.020
 1497HOH      O 4677   0.795   0.409   2.790
 1497HOH     H1 4678   0.877   0.367   2.816
 1497HOH     H2 4679   0.776   0.373   2.703
 1498HOH      O 4680   3.824   3.893   1.366
 1498HOH     H1 4681   3.871   3.905   1.448
 1498HOH     H2 4682   3.847   3.804   1.339
 1499HOH      O 4683   3.360   3.669   1.699
 1499HOH     H1 4684   3.349   3.602   1.632
 1499HOH     H2 4685   3.376   3.619   1.780
 1500HOH      O 4686   0.979   0.019   1.403
 1500HOH     H1 4687   1.028  -0.028   1.470
 1500HOH     H2 4688   0.921   0.077   1.452
 1501HOH      O 4689   2.483   0.928   0.914
 1501HOH     H1 4690   2.515   0.902   1.001
 1501HOH     H2 4691   2.462   1.021   0.924
 1502HOH      O 4692   3.567   0.931   3.093
 1502HOH     H1 4693   3.473   0.919   3.106
 1502HOH     H2 4694   3.573   0.995   3.022
 1503HOH      O 4695   0.557   3.655   2.765
 1503HOH     H1 4696   0.550   3.660   2.860
 1503HOH     H2 4697   0.469   3.634   2.734
 1504HOH      O 4698   1.026   2.786   3.922
 1504HOH     H1 4699   1.037   2.796   3.828
 1504HOH     H2 4700   1.039   2.692   3.938
 1505HOH      O 4701   1.382   2.063   1.792
 1505HOH     H1 4702   1.348   1.977   1.770
 1505HOH     H2 4703   1.313   2.104   1.845
 1506HOH      O 4704   1.216   2.299   1.330
 1506HOH     H1 4705   1.230   2.393   1.341
 1506HOH     H2 4706   1.130   2.283   1.370
 1507HOH      O 4707   0.199   3.487   2.145
 1507HOH     H1 4708   0.203   3.540   2.065
 1507HOH     H2 4709   0.274   3.429   2.139
 1508HOH      O 4710   3.046   2.693   2.063
 1508HOH     H1 4711   3.117   2.631   2.046
 1508HOH     H2 4712   3.089   2.778   2.069
 1509HOH      O 4713   3.565   0.312   3.701
 1509HOH     H1 4714   3.556   0.325   3.607
 1509HOH     H2 4715   3.650   0.270   3.712
 1510HOH      O 4716   3.240   0.675   3.147
 1510HOH     H1 4717   3.279   0.737   3.085
 1510HOH     H2 4718   3.307   0.663   3.214
 1511HOH      O 4719   0.745   3.349   3.407
 1511HOH     H1 4720   0.841   3.356   3.416
 1511HOH     H2 4721   0.717   3.306   3.488
 1512HOH      O 4722   3.994   2.398   2.899
 1512HOH     H1 4723   3.936   2.435   2.967
 1512HOH     H2 4724   4.077   2.444   2.911
 1513HOH      O 4725   2.012   0.523   3.664
 1513HOH     H1 4726   2.019   0.457   3.595
 1513HOH     H2 4727   2.080   0.588   3.642
 1514HOH      O 4728   3.592   2.820   3.218
 1514HOH     H1 4729   3.581   2.859   3.131
 1514HOH     H2 4730   3.683   2.790   3.219
 1515HOH      O 4731   3.890   1.005   2.387
 1515HOH     H1 4732   3.880   0.931   2.327
 1515HOH     H2 4733   3.921   1.077   2.332
 1516HOH      O 4734   0.739   1.126   2.339
 1516HOH     H1 4735   0.753   1.091   2.251
 1516HOH     H2 4736   0.662   1.181   2.330
 1517HOH      O 4737   1.019   0.962   2.955
 1517HOH     H1 4738   0.980   0.877   2.975
 1517HOH     H2 4739   0.946   1.024   2.956
 1518HOH      O 4740   3.523   3.887   2.952
 1518HOH     H1 4741   3.572   3.854   2.876
 1518HOH     H2 4742   3.584   3.947   2.996
 1519HOH      O 4743   3.698   2.827   2.216
 1519HOH     H1 4744   3.762   2.880   2.262
 1519HOH     H2 4745   3.721   2.837   2.123
 1520HOH      O 4746   2.050   3.878   3.033
 1520HOH     H1 4747   2.137   3.914   3.050
 1520HOH     H2 4748   2.059   3.784   3.048
 1521HOH      O 4749   2.965   2.022   0.338
 1521HOH     H1 4750   2.907   1.984   0.272
 1521HOH     H2 4751   3.021   1.949   0.365
 1522HOH      O 4752   3.568   2.174   1.394
 1522HOH     H1 4753   3.485   2.134   1.420
 1522HOH     H2 4754   3.544   2.261   1.361
 1523HOH      O 4755   3.765   2.860   2.878
 1523HOH     H1 4756   3.674   2.831   2.887
 1523HOH     H2 4757   3.767   2.946   2.920
 1524HOH      O 4758   1.256   3.615   1.339
 1524HOH     H1 4759   1.164   3.640   1.329
 1524HOH     H2 4760   1.304   3.681   1.288
 1525HOH      O 4761   2.626   0.045   3.322
 1525HOH     H1 4762   2.652   0.077   3.409
 1525HOH     H2 4763   2.704   0.004   3.287
 1526HOH      O 4764   3.678   3.486   2.075
 1526HOH     H1 4765   3.761   3.456   2.039
 1526HOH     H2 4766   3.647   3.412   2.128
 1527HOH      O 4767   0.617   3.734   1.485
 1527HOH     H1 4768   0.655   3.794   1.420
 1527HOH     H2 4769   0.615   3.649   1.441
 1528HOH      O 4770   3.252   0.258   1.938
 1528HOH     H1 4771   3.227   0.207   1.861
 1528HOH     H2 4772   3.341   0.229   1.958
 1529HOH      O 4773   3.213   0.005   3.717
 1529HOH     H1 4774   3.274   0.026   3.646
 1529HOH     H2 4775   3.254   0.041   3.795
 1530HOH      O 4776   3.281   2.804   1.475
 1530HOH     H1 4777   3.259   2.892   1.505
 1530HOH     H2 4778   3.235   2.745   1.534
 1531HOH      O 4779   0.636   2.761   0.137
 1531HOH     H1 4780   0.615   2.840   0.187
 1531HOH     H2 4781   0.551   2.723   0.115
 1532HOH      O 4782   2.413   0.480   2.014
 1532HOH     H1 4783   2.475   0.464   1.942
 1532HOH     H2 4784   2.468   0.478   2.093
 1533HOH      O 4785   0.315   1.884   2.354
 1533HOH     H1 4786   0.302   1.885   2.259
 1533HOH     H2 4787   0.378   1.813   2.369
 1534HOH      O 4788   2.240   0.270   0.075
 1534HOH     H1 4789   2.284   0.344   0.116
 1534HOH     H2 4790   2.146   0.289   0.085
 1535HOH      O 4791   0.080   3.831   0.789
 1535HOH     H1 4792   0.141   3.803   0.722
 1535HOH     H2 4793   0.030   3.902   0.748
 1536HOH      O 4794   1.441   1.813   0.839
 1536HOH     H1 4795   1.377   1.790   0.907
 1536HOH     H2 4796   1.521   1.833   0.887
 1537HOH      O 4797   2.560   3.874   3.980
 1537HOH     H1 4798   2.584   3.922   4.058
 1537HOH     H2 4799   2.560   3.939   3.910
 1538HOH      O 4800   3.485   0.718   0.345
 1538HOH     H1 4801   3.512   0.770   0.421
 1538HOH     H2 4802   3.399   0.685   0.368
 1539HOH      O 4803   0.546   2.104   1.529
 1539HOH     H1 4804   0.602   2.032   1.501
 1539HOH     H2 4805   0.604   2.180   1.531
 1540HOH      O 4806   3.689   3.226   1.947
 1540HOH     H1 4807   3.750   3.292   1.916
 1540HOH     H2 4808   3.696   3.155   1.884
 1541HOH      O 4809   0.842   1.758   0.743
 1541HOH     H1 4810   0.909   1.796   0.800
 1541HOH     H2 4811   0.790   1.833   0.713
 1542HOH      O 4812   2.980   0.980   2.194
 1542HOH     H1 4813   3.027   0.974   2.111
 1542HOH     H2 4814   2.915   1.048   2.180
 1543HOH      O 4815   0.316   3.145   3.275
 1543HOH     H1 4816   0.402   3.184   3.260
 1543HOH     H2 4817   0.275   3.202   3.340
 1544HOH      O 4818   1.798   0.721   0.308
 1544HOH     H1 4819   1.810   0.626   0.301
 1544HOH     H2 4820   1.781   0.735   0.401
 1545HOH      O 4821   2.582   2.994   0.727
 1545HOH     H1 4822   2.583   3.084   0.762
 1545HOH     H2 4823   2.654   2.950   0.772
 1546HOH      O 4824   2.528   1.259   0.479
 1546HOH     H1 4825   2.583   1.314   0.535
 1546HOH     H2 4826   2.591   1.206   0.429
 1547HOH      O 4827   4.016   2.981   1.472
 1547HOH     H1 4828   4.003   2.913   1.406
 1547HOH     H2 4829   4.104   3.015   1.455
 1548HOH      O 4830   0.379   3.682   0.859
 1548HOH     H1 4831   0.304   3.623   0.859
 1548HOH     H2 4832   0.448   3.633   0.905
 1549HOH      O 4833   0.581   1.828   1.952
 1549HOH     H1 4834   0.599   1.886   1.878
 1549HOH     H2 4835   0.666   1.814   1.993
 1550HOH      O 4836   2.407   1.554   1.008
 1550HOH     H1 4837   2.372   1.643   1.006
 1550HOH     H2 4838   2.499   1.564   0.985
 1551HOH      O 4839   3.984   0.655   2.763
 1551HOH     H1 4840   3.989   0.744   2.728
 1551HOH     H2 4841   4.056   0.609   2.721
 1552HOH      O 4842   3.126   1.081   1.512
 1552HOH     H1 4843   3.204   1.032   1.537
 1552HOH     H2 4844   3.094   1.038   1.433
 1553HOH      O 4845   3.387   1.421   0.615
 1553HOH     H1 4846   3.345   1.477   0.679
 1553HOH     H2 4847   3.426   1.481   0.552
 1554HOH      O 4848   0.298   3.981   1.867
 1554HOH     H1 4849   0.333   3.919   1.803
 1554HOH     H2 4850   0.246   3.927   1.927
 1555HOH      O 4851   3.319   0.576   3.977
 1555HOH     H1 4852   3.344   0.651   4.029
 1555HOH     H2 4853   3.402   0.533   3.956
 1556HOH      O 4854   3.112   0.405   0.539
 1556HOH     H1 4855   3.022   0.402   0.571
 1556HOH     H2 4856   3.108   0.364   0.452
 1557HOH      O 4857   2.345   0.508   3.781
 1557HOH     H1 4858   2.341   0.496   3.686
 1557HOH     H2 4859   2.405   0.441   3.811
 1558HOH      O 4860   3.256   2.866   0.980
 1558HOH     H1 4861   3.206   2.786   0.997
 1558HOH     H2 4862   3.251   2.915   1.062
 1559HOH      O 4863   0.186   2.935   3.843
 1559HOH     H1 4864   0.132   2.889   3.907
 1559HOH     H2 4865   0.219   3.012   3.891
 1560HOH      O 4866   3.718   0.081   0.603
 1560HOH     H1 4867   3.717   0.175   0.585
 1560HOH     H2 4868   3.706   0.074   0.697
 1561HOH      O 4869   3.010   1.205   3.885
 1561HOH     H1 4870   2.926   1.251   3.880
 1561HOH     H2 4871   3.050   1.218   3.799
 1562HOH      O 4872   1.979   0.838   3.563
 1562HOH     H1 4873   2.073   0.828   3.552
 1562HOH     H2 4874   1.941   0.795   3.486
 1563HOH      O 4875   1.778   0.089   3.451
 1563HOH     H1 4876   1.692   0.125   3.429
 1563HOH     H2 4877   1.836   0.165   3.452
 1564HOH      O 4878   1.335   2.280   0.288
 1564HOH     H1 4879   1.315   2.249   0.200
 1564HOH     H2 4880   1.347   2.374   0.279
 1565HOH      O 4881   2.836   1.208   2.654
 1565HOH     H1 4882   2.916   1.216   2.706
 1565HOH     H2 4883   2.863   1.231   2.565
 1566HOH      O 4884   2.013   2.386   0.907
 1566HOH     H1 4885   1.996   2.347   0.993
 1566HOH     H2 4886   2.025   2.310   0.849
 1567HOH      O 4887   0.493   0.571   2.733
 1567HOH     H1 4888   0.532   0.484   2.727
 1567HOH     H2 4889   0.508   0.598   2.824
 1568HOH      O 4890   2.918   3.861   3.291
 1568HOH     H1 4891   2.984   3.796   3.268
 1568HOH     H2 4892   2.892   3.839   3.380
 1569HOH      O 4893   0.984   3.786   0.519
 1569HOH     H1 4894   0.897   3.759   0.492
 1569HOH     H2 4895   1.040   3.711   0.500
 1570HOH      O 4896   1.937   0.228   1.987
 1570HOH     H1 4897   1.912   0.319   2.002
 1570HOH     H2 4898   1.981   0.202   2.068
 1571HOH      O 4899   2.154   2.773   0.440
 1571HOH     H1 4900   2.123   2.696   0.488
 1571HOH     H2 4901   2.169   2.839   0.507
 1572HOH      O 4902   0.152   0.642   0.657
 1572HOH     H1 4903   0.230   0.613   0.611
 1572HOH     H2 4904   0.092   0.671   0.588
 1573HOH      O 4905   0.368   0.086   1.488
 1573HOH     H1 4906   0.401   0.174   1.468
 1573HOH     H2 4907   0.376   0.038   1.406
 1574HOH      O 4908   3.196   2.200   0.735
 1574HOH     H1 4909   3.198   2.290   0.767
 1574HOH     H2 4910   3.151   2.151   0.805
 1575HOH      O 4911   1.098   2.671   0.296
 1575HOH     H1 4912   1.105   2.577   0.277
 1575HOH     H2 4913   1.022   2.700   0.244
 1576HOH      O 4914   3.573   0.962   2.017
 1576HOH     H1 4915   3.480   0.943   2.022
 1576HOH     H2 4916   3.615   0.892   2.066
 1577HOH      O 4917   3.557   3.697   3.489
 1577HOH     H1 4918   3.563   3.623   3.429
 1577HOH     H2 4919   3.563   3.774   3.432
 1578HOH      O 4920   3.572   1.852   3.964
 1578HOH     H1 4921   3.509   1.847   3.892
 1578HOH     H2 4922   3.615   1.937   3.953
 1579HOH      O 4923   4.016   3.507   0.599
 1579HOH     H1 4924   3.958   3.566   0.646
 1579HOH     H2 4925   4.051   3.560   0.527
 1580HOH      O 4926   1.337   2.521   3.040
 1580HOH     H1 4927   1.246   2.515   3.070
 1580HOH     H2 4928   1.330   2.539   2.946
 1581HOH      O 4929   3.972   0.088   3.922
 1581HOH     H1 4930   4.058   0.047   3.924
 1581HOH     H2 4931   3.986   0.177   3.955
 1582HOH      O 4932   2.258   2.213   3.948
 1582HOH     H1 4933   2.217   2.150   4.007
 1582HOH     H2 4934   2.259   2.169   3.863
 1583HOH      O 4935   1.929   3.116   3.236
 1583HOH     H1 4936   1.886   3.039   3.198
 1583HOH     H2 4937   2.022   3.096   3.232
 1584HOH      O 4938   3.758   2.006   1.449
 1584HOH     H1 4939   3.771   2.034   1.540
 1584HOH     H2 4940   3.699   2.071   1.412
 1585HOH      O 4941   2.654   0.033   0.142
 1585HOH     H1 4942   2.567   0.069   0.160
 1585HOH     H2 4943   2.712   0.110   0.141
 1586HOH      O 4944   2.806   1.076   4.005
 1586HOH     H1 4945   2.888   1.083   3.956
 1586HOH     H2 4946   2.801   0.985   4.032
 1587HOH      O 4947   1.611   3.034   2.069
 1587HOH     H1 4948   1.615   3.025   2.165
 1587HOH     H2 4949   1.697   3.004   2.039
 1588HOH      O 4950   3.756   1.871   3.638
 1588HOH     H1 4951   3.827   1.839   3.582
 1588HOH     H2 4952   3.676   1.843   3.593
 1589HOH      O 4953   2.805   1.407   0.241
 1589HOH     H1 4954   2.808   1.409   0.337
 1589HOH     H2 4955   2.795   1.315   0.220
 1590HOH      O 4956   1.315   0.771   2.462
 1590HOH     H1 4957   1.408   0.773   2.481
 1590HOH     H2 4958   1.282   0.698   2.515
 1591HOH      O 4959   0.015   0.553   2.265
 1591HOH     H1 4960   0.073   0.546   2.189
 1591HOH     H2 4961  -0.036   0.632   2.249
 1592HOH      O 4962   1.741   1.930   1.252
 1592HOH     H1 4963   1.699   1.903   1.333
 1592HOH     H2 4964   1.830   1.895   1.258
 1593HOH      O 4965   3.506   1.704   1.223
 1593HOH     H1 4966   3.592   1.676   1.252
 1593HOH     H2 4967   3.520   1.792   1.187
 1594HOH      O 4968   2.543   2.781   2.707
 1594HOH     H1 4969   2.563   2.702   2.758
 1594HOH     H2 4970   2.624   2.831   2.707
 1595HOH      O 4971   2.594   3.770   3.644
 1595HOH     H1 4972   2.574   3.683   3.680
 1595HOH     H2 4973   2.531   3.829   3.686
 1596HOH      O 4974   3.593   3.139   2.579
 1596HOH     H1 4975   3.667   3.144   2.639
 1596HOH     H2 4976   3.623   3.080   2.510
 1597HOH      O 4977   3.185   3.482   3.400
 1597HOH     H1 4978   3.178   3.454   3.492
 1597HOH     H2 4979   3.096   3.474   3.366
 1598HOH      O 4980   0.171   1.638   2.881
 1598HOH     H1 4981   0.204   1.681   2.802
 1598HOH     H2 4982   0.077   1.659   2.881
 1599HOH      O 4983   3.958   2.490   0.107
 1599HOH     H1 4984   3.891   2.425   0.089
 1599HOH     H2 4985   3.962   2.493   0.203
 1600HOH      O 4986   2.066   1.929   3.138
 1600HOH     H1 4987   2.068   1.949   3.232
 1600HOH     H2 4988   1.995   1.984   3.104
 1601HOH      O 4989   0.317   2.497   3.295
 1601HOH     H1 4990   0.347   2.443   3.222
 1601HOH     H2 4991   0.331   2.587   3.266
 1602HOH      O 4992   2.031   0.634   1.919
 1602HOH     H1 4993   1.968   0.576   1.961
 1602HOH     H2 4994   2.006   0.722   1.949
 1603HOH      O 4995   1.584   3.985   1.581
 1603HOH     H1 4996   1.580   3.898   1.541
 1603HOH     H2 4997   1.521   3.981   1.653
 1604HOH      O 4998   1.581   3.940   2.126
 1604HOH     H1 4999   1.596   3.890   2.046
 1604HOH     H2 5000   1.669   3.960   2.158
 1605HOH      O 5001   2.979   2.058   3.885
 1605HOH     H1 5002   2.994   1.964   3.898
 1605HOH     H2 5003   2.912   2.081   3.949
 1606HOH      O 5004   1.863   0.564   2.988
 1606HOH     H1 5005   1.912   0.524   2.916
 1606HOH     H2 5006   1.778   0.586   2.950
 1607HOH      O 5007   3.603   1.345   1.338
 1607HOH     H1 5008   3.614   1.385   1.424
 1607HOH     H2 5009   3.658   1.398   1.280
 1608HOH      O 5010   3.939   3.906   1.610
 1608HOH     H1 5011   4.025   3.929   1.646
 1608HOH     H2 5012   3.904   3.840   1.670
 1609HOH      O 5013   3.229   1.889   3.516
 1609HOH     H1 5014   3.235   1.943   3.438
 1609HOH     H2 5015   3.275   1.939   3.584
 1610HOH      O 5016   0.461   0.324   3.397
 1610HOH     H1 5017   0.418   0.239   3.399
 1610HOH     H2 5018   0.434   0.362   3.314
 1611HOH      O 5019   0.471   0.844   4.014
 1611HOH     H1 5020   0.517   0.923   3.985
 1611HOH     H2 5021   0.506   0.828   4.102
 1612HOH      O 5022   3.321   3.396   3.181
 1612HOH     H1 5023   3.277   3.411   3.265
 1612HOH     H2 5024   3.252   3.364   3.123
 1613HOH      O 5025   2.023   3.247   3.534
 1613HOH     H1 5026   2.065   3.204   3.460
 1613HOH     H2 5027   2.062   3.206   3.611
 1614HOH      O 5028   3.138   3.450   1.146
 1614HOH     H1 5029   3.186   3.492   1.218
 1614HOH     H2 5030   3.206   3.419   1.087
 1615HOH      O 5031   3.074   0.133   3.141
 1615HOH     H1 5032   3.084   0.051   3.093
 1615HOH     H2 5033   3.162   0.172   3.141
 1616HOH      O 5034   1.940   1.171   1.740
 1616HOH     H1 5035   2.007   1.159   1.807
 1616HOH     H2 5036   1.866   1.211   1.786
 1617HOH      O 5037   0.637   0.868   0.199
 1617HOH     H1 5038   0.670   0.789   0.240
 1617HOH     H2 5039   0.714   0.922   0.183
 1618HOH      O 5040   0.011   1.854   1.624
 1618HOH     H1 5041   0.080   1.811   1.573
 1618HOH     H2 5042   0.025   1.947   1.609
 1619HOH      O 5043   0.888   1.644   0.111
 1619HOH     H1 5044   0.887   1.566   0.166
 1619HOH     H2 5045   0.895   1.717   0.172
 1620HOH      O 5046   0.156   1.411   1.485
 1620HOH     H1 5047   0.179   1.328   1.444
 1620HOH     H2 5048   0.073   1.436   1.443
 1621HOH      O 5049   1.579   0.193   3.728
 1621HOH     H1 5050   1.664   0.152   3.742
 1621HOH     H2 5051   1.599   0.284   3.709
 1622HOH      O 5052   0.027   3.114   2.925
 1622HOH     H1 5053   0.080   3.171   2.981
 1622HOH     H2 5054   0.061   3.128   2.837
 1623HOH      O 5055   1.364   0.771   3.790
 1623HOH     H1 5056   1.445   0.722   3.774
 1623HOH     H2 5057   1.327   0.731   3.869
 1624HOH      O 5058   1.616   0.693   3.719
 1624HOH     H1 5059   1.686   0.631   3.696
 1624HOH     H2 5060   1.658   0.778   3.718
 1625HOH      O 5061   3.407   0.796   0.112
 1625HOH     H1 5062   3.485   0.803   0.057
 1625HOH     H2 5063   3.441   0.789   0.201
 1626HOH      O 5064   2.936   0.902   1.785
 1626HOH     H1 5065   2.953   0.858   1.701
 1626HOH     H2 5066   2.846   0.878   1.807
 1627HOH      O 5067   1.079   0.710   0.158
 1627HOH     H1 5068   0.999   0.761   0.150
 1627HOH     H2 5069   1.090   0.697   0.252
 1628HOH      O 5070   0.887   2.104   2.007
 1628HOH     H1 5071   0.956   2.131   2.068
 1628HOH     H2 5072   0.908   2.013   1.986
 1629HOH      O 5073   1.819   2.310   0.140
 1629HOH     H1 5074   1.840   2.374   0.208
 1629HOH     H2 5075   1.870   2.338   0.064
 1630HOH      O 5076   3.855   2.794   0.528
 1630HOH     H1 5077   3.801   2.825   0.456
 1630HOH     H2 5078   3.883   2.706   0.500
 1631HOH      O 5079   3.792   3.349   3.843
 1631HOH     H1 5080   3.717   3.289   3.842
 1631HOH     H2 5081   3.866   3.294   3.870
 1632HOH      O 5082   3.923   1.227   2.803
 1632HOH     H1 5083   3.999   1.171   2.821
 1632HOH     H2 5084   3.960   1.305   2.762
 1633HOH      O 5085   3.211   2.444   0.881
 1633HOH     H1 5086   3.284   2.386   0.902
 1633HOH     H2 5087   3.178   2.473   0.966
 1634HOH      O 5088   2.484   0.866   3.598
 1634HOH     H1 5089   2.531   0.786   3.619
 1634HOH     H2 5090   2.552   0.929   3.573
 1635HOH      O 5091   1.570   0.736   2.539
 1635HOH     H1 5092   1.635   0.721   2.470
 1635HOH     H2 5093   1.606   0.808   2.590
 1636HOH      O 5094   1.811   0.292   0.240
 1636HOH     H1 5095   1.811   0.230   0.313
 1636HOH     H2 5096   1.725   0.335   0.245
 1637HOH      O 5097   0.872   0.047   1.693
 1637HOH     H1 5098   0.786   0.012   1.714
 1637HOH     H2 5099   0.923  -0.028   1.664
 1638HOH      O 5100   0.382   1.291   3.712
 1638HOH     H1 5101   0.413   1.230   3.780
 1638HOH     H2 5102   0.348   1.234   3.643
 1639HOH      O 5103   0.637   2.928   3.201
 1639HOH     H1 5104   0.627   2.869   3.126
 1639HOH     H2 5105   0.655   3.014   3.162
 1640HOH      O 5106   0.163   2.188   3.996
 1640HOH     H1 5107   0.200   2.198   3.908
 1640HOH     H2 5108   0.112   2.108   3.991
 1641HOH      O 5109   2.584   1.116   0.142
 1641HOH     H1 5110   2.618   1.042   0.192
 1641HOH     H2 5111   2.654   1.138   0.081
 1642HOH      O 5112   2.019   1.411   0.969
 1642HOH     H1 5113   1.925   1.430   0.969
 1642HOH     H2 5114   2.055   1.464   1.040
 1643HOH      O 5115   1.837   3.393   1.083
 1643HOH     H1 5116   1.899   3.321   1.097
 1643HOH     H2 5117   1.761   3.369   1.137
 1644HOH      O 5118   0.037   0.700   1.072
 1644HOH     H1 5119   0.042   0.656   0.987
 1644HOH     H2 5120  -0.055   0.718   1.085
 1645HOH      O 5121   3.913   1.635   2.099
 1645HOH     H1 5122   3.836   1.579   2.105
 1645HOH     H2 5123   3.964   1.616   2.177
 1646HOH      O 5124   1.590   3.947   0.840
 1646HOH     H1 5125   1.612   3.860   0.806
 1646HOH     H2 5126   1.671   3.976   0.883
 1647HOH      O 5127   2.162   3.974   2.724
 1647HOH     H1 5128   2.141   3.964   2.816
 1647HOH     H2 5129   2.096   3.921   2.678
 1648HOH      O 5130   0.724   0.279   1.060
 1648HOH     H1 5131   0.708   0.247   0.971
 1648HOH     H2 5132   0.721   0.200   1.115
 1649HOH      O 5133   3.627   3.882   2.482
 1649HOH     H1 5134   3.556   3.928   2.436
 1649HOH     H2 5135   3.643   3.804   2.429
 1650HOH      O 5136   1.242   3.197   1.860
 1650HOH     H1 5137   1.241   3.114   1.812
 1650HOH     H2 5138   1.335   3.211   1.881
 1651HOH      O 5139   0.201   2.520   2.906
 1651HOH     H1 5140   0.212   2.608   2.871
 1651HOH     H2 5141   0.290   2.491   2.925
 1652HOH      O 5142   2.354   1.300   3.822
 1652HOH     H1 5143   2.352   1.266   3.912
 1652HOH     H2 5144   2.444   1.283   3.793
 1653HOH      O 5145   3.933   0.102   1.957
 1653HOH     H1 5146   4.016   0.083   2.001
 1653HOH     H2 5147   3.918   0.195   1.972
 1654HOH      O 5148   2.005   3.214   1.355
 1654HOH     H1 5149   1.952   3.136   1.343
 1654HOH     H2 5150   2.054   3.199   1.436
 1655HOH      O 5151   3.588   1.875   2.006
 1655HOH     H1 5152   3.614   1.896   2.096
 1655HOH     H2 5153   3.670   1.849   1.963
 1656HOH      O 5154   0.415   3.329   1.977
 1656HOH     H1 5155   0.506   3.356   1.987
 1656HOH     H2 5156   0.410   3.294   1.888
 1657HOH      O 5157   0.019   2.845   2.889
 1657HOH     H1 5158  -0.075   2.856   2.873
 1657HOH     H2 5159   0.046   2.928   2.928
 1658HOH      O 5160   0.926   2.000   3.817
 1658HOH     H1 5161   0.855   2.063   3.807
 1658HOH     H2 5162   0.965   2.020   3.902
 1659HOH      O 5163   0.558   0.731   2.960
 1659HOH     H1 5164   0.616   0.764   2.892
 1659HOH     H2 5165   0.533   0.809   3.010
 1660HOH      O 5166   3.800   0.166   2.394
 1660HOH     H1 5167   3.859   0.203   2.460
 1660HOH     H2 5168   3.857   0.137   2.323
 1661HOH      O 5169   1.158   0.606   1.449
 1661HOH     H1 5170   1.143   0.515   1.472
 1661HOH     H2 5171   1.136   0.612   1.356
 1662HOH      O 5172   3.897   1.502   0.356
 1662HOH     H1 5173   3.883   1.524   0.448
 1662HOH     H2 5174   3.918   1.409   0.356
 1663HOH      O 5175   0.612   0.008   2.805
 1663HOH     H1 5176   0.658  -0.037   2.735
 1663HOH     H2 5177   0.674   0.010   2.878
 1664HOH      O 5178   0.567   0.073   0.443
 1664HOH     H1 5179   0.576   0.007   0.374
 1664HOH     H2 5180   0.655   0.110   0.453
 1665HOH      O 5181   2.846   3.395   3.100
 1665HOH     H1 5182   2.803   3.312   3.118
 1665HOH     H2 5183   2.818   3.417   3.011
 1666HOH      O 5184   0.777   2.163   1.038
 1666HOH     H1 5185   0.869   2.189   1.040
 1666HOH     H2 5186   0.730   2.236   1.078
 1667HOH      O 5187   1.248   3.916   1.521
 1667HOH     H1 5188   1.288   3.940   1.438
 1667HOH     H2 5189   1.313   3.858   1.563
 1668HOH      O 5190   2.180   0.999   1.919
 1668HOH     H1 5191   2.212   0.909   1.915
 1668HOH     H2 5192   2.187   1.024   2.011
 1669HOH      O 5193   1.486   1.119   1.844
 1669HOH     H1 5194   1.458   1.198   1.890
 1669HOH     H2 5195   1.573   1.099   1.880
 1670HOH      O 5196   2.519   0.706   0.006
 1670HOH     H1 5197   2.581   0.643  -0.030
 1670HOH     H2 5198   2.469   0.736  -0.070
 1671HOH      O 5199   1.855   1.877   3.944
 1671HOH     H1 5200   1.852   1.973   3.939
 1671HOH     H2 5201   1.827   1.848   3.857
 1672HOH      O 5202   3.229   2.330   1.473
 1672HOH     H1 5203   3.186   2.248   1.498
 1672HOH     H2 5204   3.254   2.370   1.557
 1673HOH      O 5205   0.541   2.893   2.175
 1673HOH     H1 5206   0.533   2.969   2.232
 1673HOH     H2 5207   0.635   2.884   2.160
 1674HOH      O 5208   2.270   0.622   1.492
 1674HOH     H1 5209   2.265   0.530   1.464
 1674HOH     H2 5210   2.180   0.653   1.490
 1675HOH      O 5211   3.097   3.889   0.329
 1675HOH     H1 5212   3.055   3.944   0.396
 1675HOH     H2 5213   3.118   3.950   0.258
 1676HOH      O 5214   3.292   2.147   1.800
 1676HOH     H1 5215   3.237   2.093   1.744
 1676HOH     H2 5216   3.319   2.088   1.870
 1677HOH      O 5217   1.013   0.392   2.626
 1677HOH     H1 5218   1.010   0.486   2.608
 1677HOH     H2 5219   1.089   0.381   2.683
 1678HOH      O 5220   0.336   0.138   2.541
 1678HOH     H1 5221   0.392   0.164   2.468
 1678HOH     H2 5222   0.368   0.189   2.615
 1679HOH      O 5223   3.277   0.903   1.688
 1679HOH     H1 5224   3.270   0.809   1.673
 1679HOH     H2 5225   3.356   0.929   1.641
 1680HOH      O 5226   1.512   1.764   2.554
 1680HOH     H1 5227   1.573   1.829   2.519
 1680HOH     H2 5228   1.550   1.680   2.528
 1681HOH      O 5229   3.456   0.819   2.437
 1681HOH     H1 5230   3.534   0.871   2.458
 1681HOH     H2 5231   3.417   0.863   2.362
 1682HOH      O 5232   1.453   1.384   0.932
 1682HOH     H1 5233   1.416   1.449   0.992
 1682HOH     H2 5234   1.387   1.314   0.929
 1683HOH      O 5235   3.537   2.348   0.237
 1683HOH     H1 5236   3.532   2.253   0.246
 1683HOH     H2 5237   3.611   2.373   0.291
 1684HOH      O 5238   1.403   1.748   4.009
 1684HOH     H1 5239   1.314   1.713   4.018
 1684HOH     H2 5240   1.453   1.703   4.078
 1685HOH      O 5241   2.644   0.043   1.015
 1685HOH     H1 5242   2.685  -0.042   1.003
 1685HOH     H2 5243   2.564   0.038   0.962
 1686HOH      O 5244   0.046   2.125   1.635
 1686HOH     H1 5245   0.033   2.201   1.691
 1686HOH     H2 5246   0.141   2.117   1.627
 1687HOH      O 5247   2.455   3.707   0.678
 1687HOH     H1 5248   2.383   3.741   0.730
 1687HOH     H2 5249   2.526   3.694   0.740
 1688HOH      O 5250   1.105   3.519   2.534
 1688HOH     H1 5251   1.138   3.467   2.461
 1688HOH     H2 5252   1.062   3.455   2.591
 1689HOH      O 5253   0.947   1.208   2.559
 1689HOH     H1 5254   0.975   1.132   2.610
 1689HOH     H2 5255   0.892   1.171   2.490
 1690HOH      O 5256   3.282   0.924   1.980
 1690HOH     H1 5257   3.273   0.862   1.907
 1690HOH     H2 5258   3.306   1.006   1.938
 1691HOH      O 5259   3.701   0.670   2.715
 1691HOH     H1 5260   3.790   0.694   2.741
 1691HOH     H2 5261   3.714   0.606   2.644
 1692HOH      O 5262   1.366   0.703   0.483
 1692HOH     H1 5263   1.388   0.744   0.399
 1692HOH     H2 5264   1.359   0.610   0.463
 1693HOH      O 5265   0.776   2.487   4.019
 1693HOH     H1 5266   0.694   2.484   4.069
 1693HOH     H2 5267   0.752   2.531   3.937
 1694HOH      O 5268   0.777   2.606   1.131
 1694HOH     H1 5269   0.762   2.513   1.146
 1694HOH     H2 5270   0.868   2.612   1.102
 1695HOH      O 5271   0.792   1.380   1.113
 1695HOH     H1 5272   0.760   1.429   1.189
 1695HOH     H2 5273   0.724   1.391   1.047
 1696HOH      O 5274   1.364   1.468   1.431
 1696HOH     H1 5275   1.343   1.415   1.508
 1696HOH     H2 5276   1.459   1.479   1.434
 1697HOH      O 5277   1.220   1.336   3.215
 1697HOH     H1 5278   1.146   1.396   3.203
 1697HOH     H2 5279   1.194   1.279   3.288
 1698HOH      O 5280   0.757   0.296   2.529
 1698HOH     H1 5281   0.842   0.335   2.508
 1698HOH     H2 5282   0.708   0.299   2.447
 1699HOH      O 5283   1.343   3.266   2.157
 1699HOH     H1 5284   1.396   3.255   2.078
 1699HOH     H2 5285   1.254   3.246   2.129
 1700HOH      O 5286   3.923   2.046   2.298
 1700HOH     H1 5287   3.856   2.105   2.263
 1700HOH     H2 5288   3.902   2.038   2.391
 1701HOH      O 5289   3.405   3.971   0.045
 1701HOH     H1 5290   3.483   4.026   0.040
 1701HOH     H2 5291   3.418   3.906  -0.023
 1702HOH      O 5292   1.730   1.419   0.981
 1702HOH     H1 5293   1.640   1.392   0.964
 1702HOH     H2 5294   1.730   1.513   0.962
 1703HOH      O 5295   1.132   2.111   0.728
 1703HOH     H1 5296   1.195   2.083   0.662
 1703HOH     H2 5297   1.049   2.118   0.681
 1704HOH      O 5298   3.279   2.094   0.375
 1704HOH     H1 5299   3.230   2.018   0.407
 1704HOH     H2 5300   3.317   2.065   0.292
 1705HOH      O 5301   3.537   0.206   2.426
 1705HOH     H1 5302   3.477   0.158   2.369
 1705HOH     H2 5303   3.623   0.170   2.405
 1706HOH      O 5304   0.714   3.714   0.449
 1706HOH     H1 5305   0.704   3.622   0.425
 1706HOH     H2 5306   0.640   3.758   0.408
 1707HOH      O 5307   0.629   0.285   3.049
 1707HOH     H1 5308   0.679   0.277   2.967
 1707HOH     H2 5309   0.637   0.378   3.072
 1708HOH      O 5310   3.506   0.891   0.606
 1708HOH     H1 5311   3.472   0.981   0.609
 1708HOH     H2 5312   3.556   0.882   0.688
 1709HOH      O 5313   3.091   0.582   3.442
 1709HOH     H1 5314   3.097   0.669   3.480
 1709HOH     H2 5315   3.042   0.594   3.360
 1710HOH      O 5316   1.984   0.786   3.040
 1710HOH     H1 5317   1.953   0.697   3.022
 1710HOH     H2 5318   1.992   0.791   3.135
 1711HOH      O 5319   0.590   2.461   3.176
 1711HOH     H1 5320   0.624   2.377   3.209
 1711HOH     H2 5321   0.647   2.527   3.215
 1712HOH      O 5322   1.639   1.907   0.991
 1712HOH     H1 5323   1.625   1.990   0.947
 1712HOH     H2 5324   1.658   1.930   1.082
 1713HOH      O 5325   1.534   1.041   0.720
 1713HOH     H1 5326   1.626   1.039   0.695
 1713HOH     H2 5327   1.520   0.957   0.764
 1714HOH      O 5328   0.082   0.479   3.336
 1714HOH     H1 5329   0.060   0.571   3.324
 1714HOH     H2 5330   0.091   0.469   3.430
 1715HOH      O 5331   0.516   1.687   2.407
 1715HOH     H1 5332   0.525   1.623   2.336
 1715HOH     H2 5333   0.606   1.706   2.433
 1716HOH      O 5334   0.709   3.743   0.744
 1716HOH     H1 5335   0.655   3.820   0.726
 1716HOH     H2 5336   0.754   3.725   0.661
 1717HOH      O 5337   1.287   0.873   3.540
 1717HOH     H1 5338   1.286   0.833   3.627
 1717HOH     H2 5339   1.343   0.950   3.549
 1718HOH      O 5340   1.796   1.677   3.061
 1718HOH     H1 5341   1.811   1.772   3.061
 1718HOH     H2 5342   1.752   1.659   2.978
 1719HOH      O 5343   3.656   1.007   2.540
 1719HOH     H1 5344   3.726   0.993   2.476
 1719HOH     H2 5345   3.699   1.049   2.614
 1720HOH      O 5346   0.519   2.949   3.625
 1720HOH     H1 5347   0.438   2.999   3.611
 1720HOH     H2 5348   0.528   2.943   3.720
 1721HOH      O 5349   1.616   1.584   1.408
 1721HOH     H1 5350   1.677   1.532   1.355
 1721HOH     H2 5351   1.672   1.639   1.462
 1722HOH      O 5352   1.421   2.252   2.941
 1722HOH     H1 5353   1.418   2.169   2.989
 1722HOH     H2 5354   1.422   2.319   3.009
 1723HOH      O 5355   1.908   0.681   1.146
 1723HOH     H1 5356   1.967   0.748   1.111
 1723HOH     H2 5357   1.869   0.721   1.224
 1724HOH      O 5358   1.372   3.417   1.172
 1724HOH     H1 5359   1.342   3.484   1.234
 1724HOH     H2 5360   1.458   3.390   1.206
 1725HOH      O 5361   3.527   0.304   3.392
 1725HOH     H1 5362   3.568   0.276   3.310
 1725HOH     H2 5363   3.440   0.334   3.366
 1726HOH      O 5364   2.271   3.072   3.732
 1726HOH     H1 5365   2.226   2.993   3.763
 1726HOH     H2 5366   2.329   3.041   3.663
 1727HOH      O 5367   3.571   0.300   1.786
 1727HOH     H1 5368   3.548   0.211   1.758
 1727HOH     H2 5369   3.655   0.318   1.742
 1728HOH      O 5370   2.658   1.006   2.738
 1728HOH     H1 5371   2.730   1.067   2.724
 1728HOH     H2 5372   2.580   1.053   2.707
 1729HOH      O 5373   1.824   3.311   1.783
 1729HOH     H1 5374   1.910   3.288   1.746
 1729HOH     H2 5375   1.815   3.254   1.859
 1730HOH      O 5376   0.012   1.097   1.553
 1730HOH     H1 5377   0.095   1.138   1.531
 1730HOH     H2 5378  -0.020   1.063   1.469
 1731HOH      O 5379   1.364   1.152   1.114
 1731HOH     H1 5380   1.450   1.114   1.098
 1731HOH     H2 5381   1.320   1.150   1.029
 1732HOH      O 5382   1.267   2.279   0.896
 1732HOH     H1 5383   1.297   2.347   0.836
 1732HOH     H2 5384   1.211   2.222   0.843
 1733HOH      O 5385   2.524   3.577   2.360
 1733HOH     H1 5386   2.569   3.609   2.282
 1733HOH     H2 5387   2.525   3.482   2.351
 1734HOH      O 5388   0.821   3.606   1.160
 1734HOH     H1 5389   0.801   3.563   1.243
 1734HOH     H2 5390   0.892   3.666   1.180
 1735HOH      O 5391   2.899   3.750   2.817
 1735HOH     H1 5392   2.856   3.805   2.751
 1735HOH     H2 5393   2.933   3.676   2.768
 1736HOH      O 5394   1.609   0.731   0.085
 1736HOH     H1 5395   1.667   0.682   0.144
 1736HOH     H2 5396   1.569   0.664   0.029
 1737HOH      O 5397   1.564   2.722   2.613
 1737HOH     H1 5398   1.523   2.801   2.578
 1737HOH     H2 5399   1.588   2.671   2.535
 1738HOH      O 5400   0.973   0.350   2.043
 1738HOH     H1 5401   0.995   0.383   2.130
 1738HOH     H2 5402   1.055   0.351   1.994
 1739HOH      O 5403   1.650   2.256   3.441
 1739HOH     H1 5404   1.597   2.262   3.519
 1739HOH     H2 5405   1.676   2.346   3.422
 1740HOH      O 5406   1.889   2.081   0.866
 1740HOH     H1 5407   1.808   2.127   0.847
 1740HOH     H2 5408   1.867   2.025   0.941
 1741HOH      O 5409   2.799   2.021   3.229
 1741HOH     H1 5410   2.758   2.026   3.143
 1741HOH     H2 5411   2.737   1.971   3.282
 1742HOH      O 5412   0.271   3.155   2.158
 1742HOH     H1 5413   0.214   3.116   2.091
 1742HOH     H2 5414   0.348   3.185   2.109
 1743HOH      O 5415   2.488   0.399   0.466
 1743HOH     H1 5416   2.479   0.304   0.461
 1743HOH     H2 5417   2.418   0.427   0.524
 1744HOH      O 5418   3.566   2.057   2.517
 1744HOH     H1 5419   3.475   2.078   2.535
 1744HOH     H2 5420   3.615   2.132   2.551
 1745HOH      O 5421   0.265   2.236   3.470
 1745HOH     H1 5422   0.301   2.172   3.408
 1745HOH     H2 5423   0.272   2.320   3.424
 1746HOH      O 5424   2.603   1.894   3.371
 1746HOH     H1 5425   2.530   1.919   3.314
 1746HOH     H2 5426   2.581   1.806   3.401
 1747HOH      O 5427   2.601   3.286   2.616
 1747HOH     H1 5428   2.583   3.265   2.525
 1747HOH     H2 5429   2.570   3.210   2.665
 1748HOH      O 5430   3.541   1.368   1.845
 1748HOH     H1 5431   3.490   1.436   1.890
 1748HOH     H2 5432   3.596   1.416   1.784
 1749HOH      O 5433   0.669   1.284   3.107
 1749HOH     H1 5434   0.718   1.248   3.033
 1749HOH     H2 5435   0.583   1.307   3.071
 1750HOH      O 5436   3.654   0.583   1.902
 1750HOH     H1 5437   3.718   0.523   1.865
 1750HOH     H2 5438   3.580   0.528   1.926
 1751HOH      O 5439   0.179   0.558   1.267
 1751HOH     H1 5440   0.116   0.585   1.200
 1751HOH     H2 5441   0.209   0.640   1.306
 1752HOH      O 5442   0.753   2.551   1.889
 1752HOH     H1 5443   0.842   2.516   1.877
 1752HOH     H2 5444   0.765   2.629   1.943
 1753HOH      O 5445   0.274   0.214   1.865
 1753HOH     H1 5446   0.269   0.119   1.879
 1753HOH     H2 5447   0.365   0.229   1.840
 1754HOH      O 5448   0.140   0.908   2.357
 1754HOH     H1 5449   0.067   0.849   2.335
 1754HOH     H2 5450   0.108   0.995   2.334
 1755HOH      O 5451   1.149   1.456   0.344
 1755HOH     H1 5452   1.159   1.403   0.423
 1755HOH     H2 5453   1.162   1.546   0.374
 1756HOH      O 5454   1.274   1.754   1.032
 1756HOH     H1 5455   1.208   1.685   1.028
 1756HOH     H2 5456   1.320   1.739   1.114
 1757HOH      O 5457   1.179   3.017   2.071
 1757HOH     H1 5458   1.119   2.973   2.012
 1757HOH     H2 5459   1.265   3.009   2.029
 1758HOH      O 5460   3.845   0.459   0.928
 1758HOH     H1 5461   3.936   0.489   0.921
 1758HOH     H2 5462   3.798   0.536   0.961
 1759HOH      O 5463   1.489   2.996   0.208
 1759HOH     H1 5464   1.409   2.959   0.245
 1759HOH     H2 5465   1.543   3.017   0.285
 1760HOH      O 5466   1.170   1.906   2.040
 1760HOH     H1 5467   1.085   1.867   2.021
 1760HOH     H2 5468   1.152   1.971   2.108
 1761HOH      O 5469   0.039   3.263   3.767
 1761HOH     H1 5470   0.026   3.175   3.733
 1761HOH     H2 5471  -0.009   3.320   3.707
 1762HOH      O 5472   2.188   3.313   3.873
 1762HOH     H1 5473   2.120   3.298   3.939
 1762HOH     H2 5474   2.210   3.226   3.841
 1763HOH      O 5475   0.705   0.070   3.548
 1763HOH     H1 5476   0.766  -0.002   3.558
 1763HOH     H2 5477   0.635   0.051   3.611
 1764HOH      O 5478   1.147   1.597   3.656
 1764HOH     H1 5479   1.160   1.672   3.597
 1764HOH     H2 5480   1.062   1.613   3.696
 1765HOH      O 5481   2.650   0.715   2.642
 1765HOH     H1 5482   2.563   0.718   2.681
 1765HOH     H2 5483   2.687   0.631   2.670
 1766HOH      O 5484   0.200   3.603   1.558
 1766HOH     H1 5485   0.276   3.660   1.566
 1766HOH     H2 5486   0.216   3.552   1.478
 1767HOH      O 5487   2.984   1.383   3.021
 1767HOH     H1 5488   2.964   1.438   2.946
 1767HOH     H2 5489   2.910   1.323   3.027
 1768HOH      O 5490   2.754   2.161   0.375
 1768HOH     H1 5491   2.697   2.105   0.428
 1768HOH     H2 5492   2.839   2.116   0.378
 1769HOH      O 5493   1.945   3.821   3.969
 1769HOH     H1 5494   1.893   3.744   3.990
 1769HOH     H2 5495   2.002   3.833   4.045
 1770HOH      O 5496   3.628   0.426   2.584
 1770HOH     H1 5497   3.599   0.345   2.542
 1770HOH     H2 5498   3.695   0.397   2.647
 1771HOH      O 5499   3.791   3.710   1.785
 1771HOH     H1 5500   3.870   3.667   1.817
 1771HOH     H2 5501   3.772   3.777   1.850
 1772HOH      O 5502   1.293   3.745   0.378
 1772HOH     H1 5503   1.358   3.675   0.375
 1772HOH     H2 5504   1.210   3.700   0.390
 1773HOH      O 5505   1.263   2.858   1.026
 1773HOH     H1 5506   1.346   2.825   0.991
 1773HOH     H2 5507   1.257   2.947   0.991
 1774HOH      O 5508   2.409   0.408   3.061
 1774HOH     H1 5509   2.498   0.409   3.096
 1774HOH     H2 5510   2.395   0.317   3.035
 1775HOH      O 5511   3.466   2.767   1.962
 1775HOH     H1 5512   3.536   2.708   1.991
 1775HOH     H2 5513   3.498   2.855   1.985
 1776HOH      O 5514   1.447   0.979   2.165
 1776HOH     H1 5515   1.483   1.002   2.251
 1776HOH     H2 5516   1.354   0.997   2.172
 1777HOH      O 5517   2.163   0.263   0.609
 1777HOH     H1 5518   2.122   0.324   0.548
 1777HOH     H2 5519   2.226   0.215   0.555
 1778HOH      O 5520   0.060   1.328   1.028
 1778HOH     H1 5521   0.032   1.253   0.975
 1778HOH     H2 5522   0.035   1.404   0.976
 1779HOH      O 5523   0.613   1.036   1.585
 1779HOH     H1 5524   0.536   1.032   1.642
 1779HOH     H2 5525   0.686   1.014   1.642
 1780HOH      O 5526   2.210   1.007   0.186
 1780HOH     H1 5527   2.130   0.959   0.166
 1780HOH     H2 5528   2.259   0.948   0.244
 1781HOH      O 5529   0.454   1.169   0.152
 1781HOH     H1 5530   0.531   1.111   0.155
 1781HOH     H2 5531   0.450   1.207   0.240
 1782HOH      O 5532   3.673   2.939   1.187
 1782HOH     H1 5533   3.666   3.002   1.259
 1782HOH     H2 5534   3.668   2.853   1.230
 1783HOH      O 5535   1.337   0.826   3.154
 1783HOH     H1 5536   1.387   0.819   3.235
 1783HOH     H2 5537   1.300   0.914   3.156
 1784HOH      O 5538   3.553   2.057   0.234
 1784HOH     H1 5539   3.590   2.071   0.321
 1784HOH     H2 5540   3.574   1.966   0.213
 1785HOH      O 5541   1.113   2.792   3.646
 1785HOH     H1 5542   1.187   2.757   3.596
 1785HOH     H2 5543   1.139   2.882   3.667
 1786HOH      O 5544   2.579   2.349   0.881
 1786HOH     H1 5545   2.638   2.331   0.808
 1786HOH     H2 5546   2.605   2.286   0.949
 1787HOH      O 5547   3.503   0.581   2.922
 1787HOH     H1 5548   3.478   0.493   2.896
 1787HOH     H2 5549   3.574   0.604   2.862
 1788HOH      O 5550   0.459   0.413   2.063
 1788HOH     H1 5551   0.425   0.447   1.981
 1788HOH     H2 5552   0.554   0.406   2.049
 1789HOH      O 5553   3.933   0.335   3.160
 1789HOH     H1 5554   4.009   0.377   3.202
 1789HOH     H2 5555   3.902   0.400   3.097
 1790HOH      O 5556   3.882   2.397   1.229
 1790HOH     H1 5557   3.960   2.349   1.256
 1790HOH     H2 5558   3.809   2.348   1.269
 1791HOH      O 5559   1.505   2.995   2.761
 1791HOH     H1 5560   1.520   3.019   2.670
 1791HOH     H2 5561   1.554   3.060   2.811
 1792HOH      O 5562   2.222   3.138   1.501
 1792HOH     H1 5563   2.296   3.118   1.559
 1792HOH     H2 5564   2.261   3.152   1.415
 1793HOH      O 5565   3.963   3.053   3.334
 1793HOH     H1 5566   3.942   3.131   3.283
 1793HOH     H2 5567   3.954   3.080   3.425
 1794HOH      O 5568   1.538   1.000   1.362
 1794HOH     H1 5569   1.576   0.999   1.274
 1794HOH     H2 5570   1.548   1.091   1.391
 1795HOH      O 5571   0.744   0.856   2.801
 1795HOH     H1 5572   0.750   0.942   2.842
 1795HOH     H2 5573   0.733   0.874   2.708
 1796HOH      O 5574   3.516   0.457   1.420
 1796HOH     H1 5575   3.566   0.514   1.479
 1796HOH     H2 5576   3.446   0.421   1.474
 1797HOH      O 5577   3.005   3.600   3.196
 1797HOH     H1 5578   2.967   3.527   3.148
 1797HOH     H2 5579   3.087   3.618   3.151
 1798HOH      O 5580   3.522   3.025   1.451
 1798HOH     H1 5581   3.501   3.069   1.534
 1798HOH     H2 5582   3.618   3.029   1.446
 1799HOH      O 5583   1.544   3.965   2.504
 1799HOH     H1 5584   1.627   3.949   2.458
 1799HOH     H2 5585   1.569   3.969   2.596
 1800HOH      O 5586   3.384   2.354   1.251
 1800HOH     H1 5587   3.331   2.324   1.325
 1800HOH     H2 5588   3.423   2.436   1.282
 1801HOH      O 5589   2.008   3.495   3.735
 1801HOH     H1 5590   2.080   3.439   3.765
 1801HOH     H2 5591   1.948   3.435   3.690
 1802HOH      O 5592   1.781   2.073   1.612
 1802HOH     H1 5593   1.727   2.146   1.580
 1802HOH     H2 5594   1.861   2.115   1.643
 1803HOH      O 5595   3.453   1.807   2.409
 1803HOH     H1 5596   3.466   1.862   2.486
 1803HOH     H2 5597   3.507   1.847   2.341
 1804HOH      O 5598   1.420   3.744   2.894
 1804HOH     H1 5599   1.351   3.736   2.829
 1804HOH     H2 5600   1.402   3.827   2.939
 1805HOH      O 5601   1.679   1.319   2.146
 1805HOH     H1 5602   1.622   1.377   2.096
 1805HOH     H2 5603   1.630   1.299   2.225
 1806HOH      O 5604   3.466   2.851   2.931
 1806HOH     H1 5605   3.450   2.837   2.838
 1806HOH     H2 5606   3.397   2.802   2.976
 1807HOH      O 5607   0.035   0.004   3.658
 1807HOH     H1 5608   0.084   0.017   3.738
 1807HOH     H2 5609  -0.038  -0.051   3.683
 1808HOH      O 5610   0.266   3.517   2.967
 1808HOH     H1 5611   0.292   3.513   2.876
 1808HOH     H2 5612   0.171   3.534   2.964
 1809HOH      O 5613   0.563   3.861   0.247
 1809HOH     H1 5614   0.508   3.900   0.179
 1809HOH     H2 5615   0.634   3.818   0.199
 1810HOH      O 5616   2.807   1.444   2.108
 1810HOH     H1 5617   2.714   1.437   2.129
 1810HOH     H2 5618   2.835   1.526   2.150
 1811HOH      O 5619   0.680   2.196   2.932
 1811HOH     H1 5620   0.716   2.117   2.892
 1811HOH     H2 5621   0.698   2.266   2.869
 1812HOH      O 5622   3.143   0.646   1.477
 1812HOH     H1 5623   3.214   0.665   1.538
 1812HOH     H2 5624   3.109   0.561   1.506
 1813HOH      O 5625   2.417   3.101   1.213
 1813HOH     H1 5626   2.428   3.016   1.255
 1813HOH     H2 5627   2.501   3.118   1.171
 1814HOH      O 5628   3.733   1.259   3.551
 1814HOH     H1 5629   3.820   1.299   3.544
 1814HOH     H2 5630   3.716   1.258   3.646
 1815HOH      O 5631   0.123   3.465   2.396
 1815HOH     H1 5632   0.139   3.550   2.437
 1815HOH     H2 5633   0.138   3.480   2.302
 1816HOH      O 5634   3.302   2.172   2.623
 1816HOH     H1 5635   3.293   2.176   2.718
 1816HOH     H2 5636   3.275   2.259   2.593
 1817HOH      O 5637   3.479   2.424   3.351
 1817HOH     H1 5638   3.487   2.512   3.313
 1817HOH     H2 5639   3.467   2.440   3.445
 1818HOH      O 5640   3.780   0.673   1.105
 1818HOH     H1 5641   3.696   0.718   1.104
 1818HOH     H2 5642   3.779   0.622   1.186
 1819HOH      O 5643   1.781   3.340   3.693
 1819HOH     H1 5644   1.794   3.247   3.711
 1819HOH     H2 5645   1.686   3.352   3.695
 1820HOH      O 5646   0.989   2.397   0.960
 1820HOH     H1 5647   1.073   2.372   0.920
 1820HOH     H2 5648   0.993   2.492   0.966
 1821HOH      O 5649   0.577   3.343   1.295
 1821HOH     H1 5650   0.498   3.381   1.333
 1821HOH     H2 5651   0.649   3.393   1.335
 1822HOH      O 5652   3.292   1.716   0.134
 1822HOH     H1 5653   3.285   1.693   0.041
 1822HOH     H2 5654   3.204   1.701   0.168
 1823HOH      O 5655   0.105   2.629   1.129
 1823HOH     H1 5656   0.182   2.588   1.090
 1823HOH     H2 5657   0.043   2.636   1.057
 1824HOH      O 5658   0.002   3.619   0.142
 1824HOH     H1 5659  -0.002   3.662   0.227
 1824HOH     H2 5660  -0.068   3.659   0.090
 1825HOH      O 5661   0.425   2.066   2.573
 1825HOH     H1 5662   0.368   2.048   2.498
 1825HOH     H2 5663   0.380   2.134   2.622
 1826HOH      O 5664   3.067   0.281   0.290
 1826HOH     H1 5665   3.139   0.297   0.227
 1826HOH     H2 5666   2.993   0.257   0.235
 1827HOH      O 5667   2.445   3.888   0.475
 1827HOH     H1 5668   2.420   3.829   0.546
 1827HOH     H2 5669   2.521   3.848   0.435
 1828HOH      O 5670   2.164   2.162   1.193
 1828HOH     H1 5671   2.094   2.228   1.191
 1828HOH     H2 5672   2.119   2.079   1.206
 1829HOH      O 5673   0.074   0.026   2.223
 1829HOH     H1 5674   0.169   0.019   2.214
 1829HOH     H2 5675   0.061   0.062   2.311
 1830HOH      O 5676   0.142   2.940   1.216
 1830HOH     H1 5677   0.075   2.871   1.224
 1830HOH     H2 5678   0.221   2.893   1.191
 1831HOH      O 5679   1.009   1.150   2.150
 1831HOH     H1 5680   0.951   1.224   2.169
 1831HOH     H2 5681   1.055   1.133   2.232
 1832HOH      O 5682   0.417   2.493   0.464
 1832HOH     H1 5683   0.501   2.534   0.440
 1832HOH     H2 5684   0.430   2.400   0.443
 1833HOH      O 5685   0.146   1.077   2.797
 1833HOH     H1 5686   0.197   1.002   2.828
 1833HOH     H2 5687   0.200   1.116   2.729
 1834HOH      O 5688   0.689   2.176   0.760
 1834HOH     H1 5689   0.661   2.267   0.766
 1834HOH     H2 5690   0.758   2.168   0.825
 1835HOH      O 5691   2.910   0.153   3.479
 1835HOH     H1 5692   2.970   0.183   3.547
 1835HOH     H2 5693   2.951   0.073   3.444
 1836HOH      O 5694   2.906   3.575   2.184
 1836HOH     H1 5695   2.983   3.547   2.134
 1836HOH     H2 5696   2.848   3.499   2.182
 1837HOH      O 5697   0.667   1.659   3.976
 1837HOH     H1 5698   0.746   1.651   4.028
 1837HOH     H2 5699   0.604   1.701   4.034
 1838HOH      O 5700   3.259   3.560   0.326
 1838HOH     H1 5701   3.328   3.626   0.334
 1838HOH     H2 5702   3.251   3.523   0.414
 1839HOH      O 5703   3.068   1.079   3.387
 1839HOH     H1 5704   3.068   1.175   3.389
 1839HOH     H2 5705   3.044   1.058   3.297
 1840HOH      O 5706   1.620   1.441   2.898
 1840HOH     H1 5707   1.564   1.376   2.855
 1840HOH     H2 5708   1.587   1.446   2.987
 1841HOH      O 5709   3.290   0.185   0.609
 1841HOH     H1 5710   3.323   0.204   0.696
 1841HOH     H2 5711   3.242   0.264   0.584
 1842HOH      O 5712   2.093   3.206   0.504
 1842HOH     H1 5713   2.182   3.189   0.534
 1842HOH     H2 5714   2.038   3.151   0.560
 1843HOH      O 5715   0.806   3.047   1.587
 1843HOH     H1 5716   0.755   3.066   1.666
 1843HOH     H2 5717   0.741   3.032   1.519
 1844HOH      O 5718   1.147   0.869   2.213
 1844HOH     H1 5719   1.060   0.883   2.251
 1844HOH     H2 5720   1.202   0.846   2.288
 1845HOH      O 5721   2.293   3.805   0.033
 1845HOH     H1 5722   2.271   3.714   0.013
 1845HOH     H2 5723   2.381   3.817  -0.003
 1846HOH      O 5724   2.445   0.079   0.830
 1846HOH     H1 5725   2.387   0.036   0.766
 1846HOH     H2 5726   2.427   0.172   0.819
 1847HOH      O 5727   2.640   2.794   2.977
 1847HOH     H1 5728   2.664   2.829   3.063
 1847HOH     H2 5729   2.554   2.833   2.959
 1848HOH      O 5730   1.748   2.122   4.003
 1848HOH     H1 5731   1.770   2.191   4.065
 1848HOH     H2 5732   1.711   2.052   4.057
 1849HOH      O 5733   2.423   2.170   0.257
 1849HOH     H1 5734   2.347   2.225   0.274
 1849HOH     H2 5735   2.497   2.230   0.264
 1850HOH      O 5736   0.973   0.967   3.749
 1850HOH     H1 5737   1.040   0.999   3.808
 1850HOH     H2 5738   1.005   0.881   3.720
 1851HOH      O 5739   3.936   3.894   3.393
 1851HOH     H1 5740   3.900   3.981   3.377
 1851HOH     H2 5741   3.985   3.902   3.474
 1852HOH      O 5742   1.063   0.369   3.971
 1852HOH     H1 5743   0.985   0.355   3.917
 1852HOH     H2 5744   1.079   0.285   4.014
 1853HOH      O 5745   3.798   2.858   1.946
 1853HOH     H1 5746   3.887   2.867   1.912
 1853HOH     H2 5747   3.742   2.890   1.875
 1854HOH      O 5748   2.323   1.773   0.056
 1854HOH     H1 5749   2.353   1.684   0.034
 1854HOH     H2 5750   2.365   1.793   0.139
 1855HOH      O 5751   2.909   3.548   1.055
 1855HOH     H1 5752   2.951   3.575   0.973
 1855HOH     H2 5753   2.981   3.512   1.108
 1856HOH      O 5754   1.789   0.487   3.857
 1856HOH     H1 5755   1.827   0.571   3.884
 1856HOH     H2 5756   1.841   0.460   3.781
 1857HOH      O 5757   0.530   1.435   2.291
 1857HOH     H1 5758   0.560   1.371   2.227
 1857HOH     H2 5759   0.610   1.463   2.336
 1858HOH      O 5760   0.562   1.270   2.823
 1858HOH     H1 5761   0.614   1.302   2.749
 1858HOH     H2 5762   0.478   1.315   2.815
 1859HOH      O 5763   1.999   0.836   0.614
 1859HOH     H1 5764   1.962   0.791   0.690
 1859HOH     H2 5765   2.084   0.869   0.643
 1860HOH      O 5766   2.858   3.150   3.735
 1860HOH     H1 5767   2.821   3.200   3.663
 1860HOH     H2 5768   2.926   3.207   3.772
 1861HOH      O 5769   3.773   0.435   2.218
 1861HOH     H1 5770   3.793   0.379   2.292
 1861HOH     H2 5771   3.745   0.518   2.256
 1862HOH      O 5772   2.696   3.084   2.966
 1862HOH     H1 5773   2.704   2.989   2.954
 1862HOH     H2 5774   2.730   3.100   3.054
 1863HOH      O 5775   3.377   3.128   2.999
 1863HOH     H1 5776   3.300   3.102   3.050
 1863HOH     H2 5777   3.427   3.047   2.989
 1864HOH      O 5778   1.291   3.564   0.070
 1864HOH     H1 5779   1.364   3.625   0.080
 1864HOH     H2 5780   1.309   3.519  -0.013
 1865HOH      O 5781   1.028   3.263   2.982
 1865HOH     H1 5782   0.973   3.297   2.911
 1865HOH     H2 5783   1.075   3.190   2.942
 1866HOH      O 5784   0.623   0.915   2.534
 1866HOH     H1 5785   0.642   0.999   2.493
 1866HOH     H2 5786   0.554   0.876   2.480
 1867HOH      O 5787   0.572   0.747   1.944
 1867HOH     H1 5788   0.606   0.658   1.937
 1867HOH     H2 5789   0.525   0.761   1.862
 1868HOH      O 5790   0.661   0.439   1.637
 1868HOH     H1 5791   0.590   0.461   1.577
 1868HOH     H2 5792   0.689   0.523   1.674
 1869HOH      O 5793   0.624   2.821   1.019
 1869HOH     H1 5794   0.658   2.806   0.931
 1869HOH     H2 5795   0.669   2.755   1.073
 1870HOH      O 5796   0.643   2.439   0.791
 1870HOH     H1 5797   0.685   2.477   0.713
 1870HOH     H2 5798   0.696   2.471   0.864
 1871HOH      O 5799   1.286   3.097   3.455
 1871HOH     H1 5800   1.377   3.069   3.443
 1871HOH     H2 5801   1.252   3.104   3.366
 1872HOH      O 5802   3.313   1.974   0.052
 1872HOH     H1 5803   3.293   1.970  -0.041
 1872HOH     H2 5804   3.332   1.883   0.077
 1873HOH      O 5805   1.761   3.720   0.701
 1873HOH     H1 5806   1.854   3.731   0.684
 1873HOH     H2 5807   1.754   3.634   0.743
 1874HOH      O 5808   3.989   1.133   1.824
 1874HOH     H1 5809   3.911   1.080   1.841
 1874HOH     H2 5810   4.013   1.111   1.734
 1875HOH      O 5811   1.255   3.312   0.201
 1875HOH     H1 5812   1.339   3.324   0.245
 1875HOH     H2 5813   1.246   3.388   0.144
 1876HOH      O 5814   2.940   2.735   3.531
 1876HOH     H1 5815   2.960   2.654   3.577
 1876HOH     H2 5816   2.846   2.748   3.546
 1877HOH      O 5817   0.502   1.762   1.340
 1877HOH     H1 5818   0.581   1.815   1.337
 1877HOH     H2 5819   0.445   1.808   1.401
 1878HOH      O 5820   2.133   3.597   1.213
 1878HOH     H1 5821   2.124   3.536   1.140
 1878HOH     H2 5822   2.225   3.591   1.238
 1879HOH      O 5823   1.915   3.938   0.237
 1879HOH     H1 5824   1.870   3.860   0.267
 1879HOH     H2 5825   2.003   3.932   0.275
 1880HOH      O 5826   3.938   1.939   0.442
 1880HOH     H1 5827   3.857   1.952   0.491
 1880HOH     H2 5828   4.001   1.909   0.507
 1881HOH      O 5829   3.744   3.251   3.515
 1881HOH     H1 5830   3.675   3.239   3.449
 1881HOH     H2 5831   3.705   3.220   3.597
 1882HOH      O 5832   2.995   3.053   0.296
 1882HOH     H1 5833   3.057   3.096   0.354
 1882HOH     H2 5834   2.937   3.004   0.354
 1883HOH      O 5835   0.174   3.173   1.022
 1883HOH     H1 5836   0.199   3.114   1.094
 1883HOH     H2 5837   0.094   3.214   1.052
 1884HOH      O 5838   1.958   2.341   1.200
 1884HOH     H1 5839   1.878   2.289   1.203
 1884HOH     H2 5840   1.937   2.422   1.246
 1885HOH      O 5841   0.700   1.891   3.146
 1885HOH     H1 5842   0.705   1.914   3.053
 1885HOH     H2 5843   0.669   1.800   3.146
 1886HOH      O 5844   3.074   3.956   1.186
 1886HOH     H1 5845   3.053   4.018   1.116
 1886HOH     H2 5846   3.120   4.008   1.252
 1887HOH      O 5847   2.233   3.424   2.179
 1887HOH     H1 5848   2.239   3.329   2.178
 1887HOH     H2 5849   2.317   3.453   2.213
 1888HOH      O 5850   0.155   3.705   2.515
 1888HOH     H1 5851   0.216   3.771   2.549
 1888HOH     H2 5852   0.072   3.751   2.505
 1889HOH      O 5853   3.970   3.301   2.167
 1889HOH     H1 5854   4.062   3.320   2.181
 1889HOH     H2 5855   3.957   3.316   2.073
 1890HOH      O 5856   3.492   1.014   1.538
 1890HOH     H1 5857   3.554   1.083   1.561
 1890HOH     H2 5858   3.438   1.053   1.470
 1891HOH      O 5859   0.183   1.930   1.300
 1891HOH     H1 5860   0.234   1.868   1.351
 1891HOH     H2 5861   0.169   1.885   1.216
 1892HOH      O 5862   1.807   3.725   1.703
 1892HOH     H1 5863   1.891   3.681   1.699
 1892HOH     H2 5864   1.743   3.655   1.710
 1893HOH      O 5865   2.854   1.444   0.511
 1893HOH     H1 5866   2.934   1.396   0.534
 1893HOH     H2 5867   2.801   1.441   0.590
 1894HOH      O 5868   0.278   2.635   3.862
 1894HOH     H1 5869   0.294   2.680   3.945
 1894HOH     H2 5870   0.363   2.601   3.836
 1895HOH      O 5871   1.781   3.016   1.700
 1895HOH     H1 5872   1.872   3.026   1.672
 1895HOH     H2 5873   1.738   3.097   1.673
 1896HOH      O 5874   2.247   3.897   0.758
 1896HOH     H1 5875   2.185   3.842   0.710
 1896HOH     H2 5876   2.196   3.931   0.832
 1897HOH      O 5877   0.088   0.251   0.348
 1897HOH     H1 5878   0.121   0.163   0.334
 1897HOH     H2 5879  -0.006   0.241   0.356
 1898HOH      O 5880   3.197   1.733   1.960
 1898HOH     H1 5881   3.115   1.705   1.920
 1898HOH     H2 5882   3.175   1.813   2.007
 1899HOH      O 5883   3.279   2.983   1.910
 1899HOH     H1 5884   3.241   2.948   1.990
 1899HOH     H2 5885   3.283   2.909   1.849
 1900HOH      O 5886   3.862   3.619   1.317
 1900HOH     H1 5887   3.858   3.579   1.230
 1900HOH     H2 5888   3.890   3.548   1.374
 1901HOH      O 5889   0.964   0.411   0.196
 1901HOH     H1 5890   0.991   0.382   0.109
 1901HOH     H2 5891   0.870   0.425   0.188
 1902HOH      O 5892   2.786   2.160   0.023
 1902HOH     H1 5893   2.709   2.106   0.000
 1902HOH     H2 5894   2.750   2.233   0.073
 1903HOH      O 5895   3.932   1.787   3.411
 1903HOH     H1 5896   4.006   1.759   3.356
 1903HOH     H2 5897   3.973   1.831   3.486
 1904HOH      O 5898   2.899   3.129   2.015
 1904HOH     H1 5899   2.838   3.195   2.047
 1904HOH     H2 5900   2.969   3.178   1.973
 1905HOH      O 5901   2.524   1.438   2.182
 1905HOH     H1 5902   2.518   1.530   2.154
 1905HOH     H2 5903   2.475   1.434   2.264
 1906HOH      O 5904   0.181   0.903   0.699
 1906HOH     H1 5905   0.223   0.916   0.784
 1906HOH     H2 5906   0.176   0.808   0.689
 1907HOH      O 5907   3.827   1.010   3.610
 1907HOH     H1 5908   3.762   1.077   3.590
 1907HOH     H2 5909   3.907   1.039   3.565
 1908HOH      O 5910   1.803   1.566   3.776
 1908HOH     H1 5911   1.813   1.654   3.738
 1908HOH     H2 5912   1.870   1.513   3.733
 1909HOH      O 5913   2.025   1.199   1.285
 1909HOH     H1 5914   2.073   1.167   1.362
 1909HOH     H2 5915   1.956   1.254   1.321
 1910HOH      O 5916   3.195   1.429   1.158
 1910HOH     H1 5917   3.155   1.343   1.167
 1910HOH     H2 5918   3.155   1.481   1.228
 1911HOH      O 5919   3.143   0.643   2.424
 1911HOH     H1 5920   3.144   0.594   2.342
 1911HOH     H2 5921   3.211   0.602   2.477
 1912HOH      O 5922   3.910   3.780   2.813
 1912HOH     H1 5923   3.920   3.781   2.718
 1912HOH     H2 5924   3.818   3.802   2.827
 1913HOH      O 5925   1.991   1.618   1.336
 1913HOH     H1 5926   2.074   1.585   1.301
 1913HOH     H2 5927   1.987   1.583   1.425
 1914HOH      O 5928   0.581   3.623   2.282
 1914HOH     H1 5929   0.589   3.664   2.368
 1914HOH     H2 5930   0.548   3.693   2.225
 1915HOH      O 5931   2.923   2.081   0.646
 1915HOH     H1 5932   2.999   2.106   0.595
 1915HOH     H2 5933   2.922   1.986   0.644
 1916HOH      O 5934   1.755   2.591   1.103
 1916HOH     H1 5935   1.798   2.572   1.186
 1916HOH     H2 5936   1.669   2.551   1.111
 1917HOH      O 5937   1.033   3.764   1.242
 1917HOH     H1 5938   0.999   3.843   1.284
 1917HOH     H2 5939   1.045   3.789   1.150
 1918HOH      O 5940   0.076   0.052   2.556
 1918HOH     H1 5941   0.066   0.041   2.650
 1918HOH     H2 5942   0.161   0.094   2.545
 1919HOH      O 5943   0.303   0.346   0.602
 1919HOH     H1 5944   0.232   0.343   0.538
 1919HOH     H2 5945   0.340   0.258   0.600
 1920HOH      O 5946   3.196   1.979   2.456
 1920HOH     H1 5947   3.240   2.061   2.477
 1920HOH     H2 5948   3.104   1.996   2.473
 1921HOH      O 5949   2.972   3.859   3.757
 1921HOH     H1 5950   2.934   3.891   3.840
 1921HOH     H2 5951   3.045   3.919   3.740
 1922HOH      O 5952   2.336   1.633   2.406
 1922HOH     H1 5953   2.407   1.682   2.365
 1922HOH     H2 5954   2.261   1.692   2.404
 1923HOH      O 5955   2.073   1.228   0.675
 1923HOH     H1 5956   2.074   1.166   0.748
 1923HOH     H2 5957   2.147   1.202   0.620
 1924HOH      O 5958   0.223   2.681   0.446
 1924HOH     H1 5959   0.289   2.612   0.440
 1924HOH     H2 5960   0.183   2.668   0.532
 1925HOH      O 5961   0.830   2.654   2.848
 1925HOH     H1 5962   0.748   2.687   2.885
 1925HOH     H2 5963   0.830   2.685   2.758
 1926HOH      O 5964   3.689   0.692   3.111
 1926HOH     H1 5965   3.609   0.648   3.082
 1926HOH     H2 5966   3.679   0.782   3.081
 1927HOH      O 5967   0.299   1.816   1.543
 1927HOH     H1 5968   0.286   1.895   1.595
 1927HOH     H2 5969   0.356   1.761   1.596
 1928HOH      O 5970   0.124   2.285   3.156
 1928HOH     H1 5971   0.114   2.365   3.208
 1928HOH     H2 5972   0.053   2.228   3.184
 1929HOH      O 5973   1.417   2.302   2.664
 1929HOH     H1 5974   1.511   2.284   2.660
 1929HOH     H2 5975   1.392   2.279   2.754
 1930HOH      O 5976   2.037   1.492   1.577
 1930HOH     H1 5977   2.103   1.550   1.615
 1930HOH     H2 5978   2.073   1.404   1.589
 1931HOH      O 5979   2.356   0.070   3.283
 1931HOH     H1 5980   2.450   0.058   3.295
 1931HOH     H2 5981   2.316   0.009   3.345
 1932HOH      O 5982   0.700   0.977   2.034
 1932HOH     H1 5983   0.657   0.898   2.001
 1932HOH     H2 5984   0.792   0.965   2.012
 1933HOH      O 5985   1.792   0.089   0.036
 1933HOH     H1 5986   1.838   0.026   0.090
 1933HOH     H2 5987   1.795   0.171   0.085
 1934HOH      O 5988   3.509   0.329   0.208
 1934HOH     H1 5989   3.518   0.347   0.302
 1934HOH     H2 5990   3.536   0.411   0.166
 1935HOH      O 5991   3.407   2.371   1.690
 1935HOH     H1 5992   3.396   2.305   1.758
 1935HOH     H2 5993   3.502   2.379   1.679
 1936HOH      O 5994   1.278   1.691   2.212
 1936HOH     H1 5995   1.215   1.636   2.166
 1936HOH     H2 5996   1.294   1.763   2.152
 1937HOH      O 5997   3.441   2.811   2.660
 1937HOH     H1 5998   3.356   2.802   2.619
 1937HOH     H2 5999   3.502   2.769   2.599
 1938HOH      O 6000   3.458   1.638   1.524
 1938HOH     H1 6001   3.415   1.595   1.598
 1938HOH     H2 6002   3.388   1.653   1.461
 1939HOH      O 6003   4.024   0.322   2.422
 1939HOH     H1 6004   4.038   0.401   2.370
 1939HOH     H2 6005   4.070   0.339   2.505
 1940HOH      O 6006   0.044   2.763   4.021
 1940HOH     H1 6007   0.016   2.677   4.052
 1940HOH     H2 6008  -0.024   2.791   3.961
 1941HOH      O 6009   1.393   0.580   3.044
 1941HOH     H1 6010   1.393   0.669   3.078
 1941HOH     H2 6011   1.307   0.569   3.003
 1942HOH      O 6012   2.259   0.906   0.711
 1942HOH     H1 6013   2.299   0.939   0.792
 1942HOH     H2 6014   2.314   0.941   0.641
 1943HOH      O 6015   1.470   0.486   2.155
 1943HOH     H1 6016   1.513   0.401   2.142
 1943HOH     H2 6017   1.483   0.505   2.248
 1944HOH      O 6018   0.780   1.735   2.655
 1944HOH     H1 6019   0.868   1.747   2.690
 1944HOH     H2 6020   0.728   1.704   2.729
 1945HOH      O 6021   2.931   0.511   2.002
 1945HOH     H1 6022   2.857   0.460   1.970
 1945HOH     H2 6023   2.898   0.553   2.082
 1946HOH      O 6024   3.951   3.877   2.506
 1946HOH     H1 6025   3.864   3.908   2.535
 1946HOH     H2 6026   4.011   3.946   2.534
 1947HOH      O 6027   2.548   0.960   0.544
 1947HOH     H1 6028   2.630   1.003   0.519
 1947HOH     H2 6029   2.571   0.907   0.620
 1948HOH      O 6030   3.019   3.962   2.932
 1948HOH     H1 6031   2.979   3.893   2.880
 1948HOH     H2 6032   3.102   3.981   2.887
 1949HOH      O 6033   1.508   1.561   2.227
 1949HOH     H1 6034   1.433   1.620   2.233
 1949HOH     H2 6035   1.554   1.588   2.148
 1950HOH      O 6036   2.952   3.077   0.748
 1950HOH     H1 6037   2.965   3.060   0.842
 1950HOH     H2 6038   2.936   3.171   0.743
 1951HOH      O 6039   1.515   2.086   1.523
 1951HOH     H1 6040   1.440   2.116   1.573
 1951HOH     H2 6041   1.556   2.166   1.491
 1952HOH      O 6042   3.661   0.214   3.153
 1952HOH     H1 6043   3.681   0.167   3.072
 1952HOH     H2 6044   3.739   0.267   3.170
 1953HOH      O 6045   2.433   1.782   3.807
 1953HOH     H1 6046   2.366   1.758   3.742
 1953HOH     H2 6047   2.393   1.763   3.891
 1954HOH      O 6048   3.624   0.826   1.395
 1954HOH     H1 6049   3.630   0.766   1.470
 1954HOH     H2 6050   3.565   0.895   1.424
 1955HOH      O 6051   0.299   0.743   3.635
 1955HOH     H1 6052   0.311   0.778   3.547
 1955HOH     H2 6053   0.363   0.673   3.642
 1956HOH      O 6054   3.595   0.352   0.913
 1956HOH     H1 6055   3.560   0.405   0.985
 1956HOH     H2 6056   3.688   0.374   0.911
 1957HOH      O 6057   2.016   3.598   2.254
 1957HOH     H1 6058   2.095   3.553   2.222
 1957HOH     H2 6059   1.972   3.533   2.308
 1958HOH      O 6060   3.386   2.696   3.357
 1958HOH     H1 6061   3.373   2.737   3.443
 1958HOH     H2 6062   3.470   2.732   3.327
 1959HOH      O 6063   2.628   0.838   0.220
 1959HOH     H1 6064   2.576   0.812   0.296
 1959HOH     H2 6065   2.593   0.787   0.148
 1960HOH      O 6066   3.621   1.994   2.257
 1960HOH     H1 6067   3.633   2.015   2.350
 1960HOH     H2 6068   3.569   2.067   2.223
 1961HOH      O 6069   1.074   2.639   2.955
 1961HOH     H1 6070   1.130   2.654   2.879
 1961HOH     H2 6071   0.986   2.629   2.918
 1962HOH      O 6072   2.133   3.920   1.001
 1962HOH     H1 6073   2.092   3.977   1.065
 1962HOH     H2 6074   2.203   3.876   1.049
 1963HOH      O 6075   1.449   2.226   3.694
 1963HOH     H1 6076   1.519   2.166   3.719
 1963HOH     H2 6077   1.444   2.288   3.767
 1964HOH      O 6078   0.870   0.762   3.094
 1964HOH     H1 6079   0.787   0.715   3.085
 1964HOH     H2 6080   0.847   0.843   3.140
 1965HOH      O 6081   1.157   2.181   2.794
 1965HOH     H1 6082   1.156   2.185   2.889
 1965HOH     H2 6083   1.091   2.244   2.766
 1966HOH      O 6084   3.437   1.946   1.087
 1966HOH     H1 6085   3.509   1.998   1.050
 1966HOH     H2 6086   3.366   2.008   1.099
 1967HOH      O 6087   3.079   3.632   0.874
 1967HOH     H1 6088   3.081   3.727   0.887
 1967HOH     H2 6089   3.170   3.608   0.858
 1968HOH      O 6090   3.379   0.708   0.812
 1968HOH     H1 6091   3.322   0.694   0.736
 1968HOH     H2 6092   3.336   0.776   0.862
 1969HOH      O 6093   1.832   0.100   3.783
 1969HOH     H1 6094   1.908   0.159   3.787
 1969HOH     H2 6095   1.819   0.071   3.873
 1970HOH      O 6096   3.274   3.908   2.566
 1970HOH     H1 6097   3.245   3.902   2.475
 1970HOH     H2 6098   3.300   3.818   2.588
 1971HOH      O 6099   1.843   3.023   2.711
 1971HOH     H1 6100   1.823   2.954   2.775
 1971HOH     H2 6101   1.850   2.976   2.627
 1972HOH      O 6102   2.582   3.753   1.309
 1972HOH     H1 6103   2.666   3.780   1.271
 1972HOH     H2 6104   2.578   3.659   1.292
 1973HOH      O 6105   2.194   2.602   3.830
 1973HOH     H1 6106   2.241   2.583   3.911
 1973HOH     H2 6107   2.220   2.692   3.809
 1974HOH      O 6108   2.151   3.008   0.154
 1974HOH     H1 6109   2.117   2.977   0.237
 1974HOH     H2 6110   2.077   3.003   0.094
 1975HOH      O 6111   2.270   2.819   2.606
 1975HOH     H1 6112   2.229   2.769   2.536
 1975HOH     H2 6113   2.349   2.770   2.627
 1976HOH      O 6114   3.249   0.073   1.346
 1976HOH     H1 6115   3.219   0.100   1.433
 1976HOH     H2 6116   3.300  -0.006   1.361
 1977HOH      O 6117   1.944   0.877   0.150
 1977HOH     H1 6118   1.896   0.939   0.095
 1977HOH     H2 6119   1.879   0.845   0.213
 1978HOH      O 6120   3.568   2.891   3.817
 1978HOH     H1 6121   3.600   2.811   3.775
 1978HOH     H2 6122   3.491   2.862   3.867
 1979HOH      O 6123   1.974   0.242   1.458
 1979HOH     H1 6124   1.972   0.231   1.554
 1979HOH     H2 6125   1.884   0.224   1.430
 1980HOH      O 6126   3.543   0.284   2.060
 1980HOH     H1 6127   3.575   0.262   1.972
 1980HOH     H2 6128   3.622   0.304   2.110
 1981HOH      O 6129   1.293   0.099   3.282
 1981HOH     H1 6130   1.249   0.181   3.261
 1981HOH     H2 6131   1.224   0.043   3.319
 1982HOH      O 6132   1.145   3.513   3.043
 1982HOH     H1 6133   1.083   3.445   3.018
 1982HOH     H2 6134   1.226   3.489   2.997
 1983HOH      O 6135   3.385   3.679   2.336
 1983HOH     H1 6136   3.306   3.718   2.298
 1983HOH     H2 6137   3.358   3.652   2.424
 1984HOH      O 6138   1.145   1.959   2.492
 1984HOH     H1 6139   1.218   2.020   2.480
 1984HOH     H2 6140   1.185   1.872   2.482
 1985HOH      O 6141   3.992   3.030   3.621
 1985HOH     H1 6142   3.900   3.003   3.627
 1985HOH     H2 6143   4.037   2.953   3.589
 1986HOH      O 6144   2.359   0.175   3.595
 1986HOH     H1 6145   2.296   0.119   3.550
 1986HOH     H2 6146   2.363   0.254   3.541
 1987HOH      O 6147   2.348   2.331   1.300
 1987HOH     H1 6148   2.423   2.342   1.242
 1987HOH     H2 6149   2.288   2.275   1.250
 1988HOH      O 6150   1.056   3.106   1.526
 1988HOH     H1 6151   1.125   3.061   1.575
 1988HOH     H2 6152   0.975   3.082   1.572
 1989HOH      O 6153   1.383   1.916   3.363
 1989HOH     H1 6154   1.453   1.906   3.429
 1989HOH     H2 6155   1.427   1.958   3.289
 1990HOH      O 6156   1.587   3.776   1.381
 1990HOH     H1 6157   1.530   3.846   1.350
 1990HOH     H2 6158   1.619   3.734   1.301
 1991HOH      O 6159   2.205   0.735   3.870
 1991HOH     H1 6160   2.194   0.709   3.961
 1991HOH     H2 6161   2.253   0.663   3.830
 1992HOH      O 6162   3.218   2.870   2.156
 1992HOH     H1 6163   3.264   2.800   2.202
 1992HOH     H2 6164   3.204   2.937   2.223
 1993HOH      O 6165   3.033   0.412   1.623
 1993HOH     H1 6166   2.990   0.358   1.689
 1993HOH     H2 6167   3.126   0.407   1.644
 1994HOH      O 6168   2.699   0.038   3.596
 1994HOH     H1 6169   2.722  -0.045   3.556
 1994HOH     H2 6170   2.776   0.094   3.580
 1995HOH      O 6171   0.998   1.228   3.949
 1995HOH     H1 6172   1.037   1.141   3.958
 1995HOH     H2 6173   1.040   1.280   4.018
 1996HOH      O 6174   3.722   0.713   3.367
 1996HOH     H1 6175   3.707   0.677   3.279
 1996HOH     H2 6176   3.758   0.800   3.351
 1997HOH      O 6177   3.173   1.325   2.538
 1997HOH     H1 6178   3.241   1.271   2.498
 1997HOH     H2 6179   3.148   1.278   2.617
 1998HOH      O 6180   1.569   0.364   3.049
 1998HOH     H1 6181   1.644   0.402   3.093
 1998HOH     H2 6182   1.500   0.430   3.058
 1999HOH      O 6183   3.833   2.489   3.097
 1999HOH     H1 6184   3.912   2.528   3.133
 1999HOH     H2 6185   3.822   2.407   3.146
 2000HOH      O 6186   2.122   1.021   2.664
 2000HOH     H1 6187   2.120   0.934   2.625
 2000HOH     H2 6188   2.127   1.005   2.758
 2001HOH      O 6189   1.226   2.696   2.411
 2001HOH     H1 6190   1.314   2.687   2.374
 2001HOH     H2 6191   1.169   2.701   2.334
 2002HOH      O 6192   1.179   0.632   3.339
 2002HOH     H1 6193   1.207   0.721   3.364
 2002HOH     H2 6194   1.159   0.639   3.246
 2003HOH      O 6195   1.585   3.587   2.361
 2003HOH     H1 6196   1.630   3.569   2.444
 2003HOH     H2 6197   1.644   3.646   2.314
 2004HOH      O 6198   0.355   1.084   3.438
 2004HOH     H1 6199   0.406   1.156   3.403
 2004HOH     H2 6200   0.418   1.013   3.451
 2005HOH      O 6201   2.986   1.740   3.432
 2005HOH     H1 6202   2.909   1.755   3.487
 2005HOH     H2 6203   3.057   1.786   3.476
 2006HOH      O 6204   0.736   3.923   1.292
 2006HOH     H1 6205   0.750   3.914   1.198
 2006HOH     H2 6206   0.751   4.016   1.309
 2007HOH      O 6207   0.700   0.486   1.948
 2007HOH     H1 6208   0.757   0.410   1.961
 2007HOH     H2 6209   0.741   0.534   1.876
 2008HOH      O 6210   3.998   2.000   3.937
 2008HOH     H1 6211   3.946   1.936   3.888
 2008HOH     H2 6212   3.938   2.073   3.952
 2009HOH      O 6213   1.939   2.385   3.609
 2009HOH     H1 6214   1.989   2.465   3.590
 2009HOH     H2 6215   1.849   2.416   3.625
 2010HOH      O 6216   3.837   3.824   1.020
 2010HOH     H1 6217   3.909   3.844   1.079
 2010HOH     H2 6218   3.774   3.895   1.033
 2011HOH      O 6219   1.534   0.971   3.911
 2011HOH     H1 6220   1.607   0.955   3.852
 2011HOH     H2 6221   1.459   0.928   3.870
 2012HOH      O 6222   1.557   1.959   0.466
 2012HOH     H1 6223   1.475   1.976   0.511
 2012HOH     H2 6224   1.588   1.876   0.504
 2013HOH      O 6225   3.529   3.198   3.335
 2013HOH     H1 6226   3.527   3.260   3.262
 2013HOH     H2 6227   3.438   3.195   3.366
 2014HOH      O 6228   2.763   3.667   0.619
 2014HOH     H1 6229   2.721   3.589   0.583
 2014HOH     H2 6230   2.731   3.739   0.564
 2015HOH      O 6231   3.459   3.004   0.206
 2015HOH     H1 6232   3.432   3.094   0.191
 2015HOH     H2 6233   3.469   2.998   0.301
 2016HOH      O 6234   0.694   2.332   1.566
 2016HOH     H1 6235   0.744   2.307   1.644
 2016HOH     H2 6236   0.610   2.364   1.601
 2017HOH      O 6237   3.074   2.413   3.293
 2017HOH     H1 6238   3.033   2.340   3.338
 2017HOH     H2 6239   3.001   2.469   3.266
 2018HOH      O 6240   0.668   1.398   3.626
 2018HOH     H1 6241   0.609   1.413   3.700
 2018HOH     H2 6242   0.624   1.331   3.574
 2019HOH      O 6243   2.785   1.106   0.433
 2019HOH     H1 6244   2.851   1.171   0.455
 2019HOH     H2 6245   2.821   1.060   0.357
 2020HOH      O 6246   3.022   0.551   3.035
 2020HOH     H1 6247   3.073   0.626   3.065
 2020HOH     H2 6248   3.082   0.476   3.042
 2021HOH      O 6249   0.362   3.922   0.992
 2021HOH     H1 6250   0.393   3.847   0.942
 2021HOH     H2 6251   0.322   3.979   0.927
 2022HOH      O 6252   0.569   3.107   2.956
 2022HOH     H1 6253   0.481   3.069   2.967
 2022HOH     H2 6254   0.567   3.187   3.008
 2023HOH      O 6255   1.917   2.954   2.437
 2023HOH     H1 6256   1.873   2.922   2.358
 2023HOH     H2 6257   1.933   2.875   2.489
 2024HOH      O 6258   3.367   1.000   2.262
 2024HOH     H1 6259   3.330   1.035   2.181
 2024HOH     H2 6260   3.381   1.077   2.317
 2025HOH      O 6261   2.181   0.679   0.105
 2025HOH     H1 6262   2.108   0.683   0.166
 2025HOH     H2 6263   2.236   0.607   0.136
 2026HOH      O 6264   1.761   1.475   1.645
 2026HOH     H1 6265   1.718   1.549   1.689
 2026HOH     H2 6266   1.854   1.498   1.647
 2027HOH      O 6267   1.033   3.324   0.337
 2027HOH     H1 6268   1.122   3.331   0.301
 2027HOH     H2 6269   0.989   3.262   0.278
 2028HOH      O 6270   3.155   3.864   2.295
 2028HOH     H1 6271   3.080   3.805   2.290
 2028HOH     H2 6272   3.140   3.927   2.224
 2029HOH      O 6273   1.076   2.752   1.227
 2029HOH     H1 6274   1.142   2.814   1.197
 2029HOH     H2 6275   1.002   2.806   1.254
 2030HOH      O 6276   0.805   0.275   0.761
 2030HOH     H1 6277   0.802   0.263   0.666
 2030HOH     H2 6278   0.788   0.368   0.774
 2031HOH      O 6279   1.538   1.803   3.796
 2031HOH     H1 6280   1.512   1.734   3.735
 2031HOH     H2 6281   1.484   1.789   3.873
 2032HOH      O 6282   2.919   0.501   2.554
 2032HOH     H1 6283   3.013   0.503   2.535
 2032HOH     H2 6284   2.913   0.529   2.646
 2033HOH      O 6285   3.672   1.506   2.127
 2033HOH     H1 6286   3.679   1.414   2.100
 2033HOH     H2 6287   3.591   1.537   2.087
 2034HOH      O 6288   2.619   1.102   1.705
 2034HOH     H1 6289   2.619   1.127   1.797
 2034HOH     H2 6290   2.704   1.059   1.692
 2035HOH      O 6291   3.479   3.453   1.202
 2035HOH     H1 6292   3.533   3.507   1.145
 2035HOH     H2 6293   3.409   3.421   1.146
 2036HOH      O 6294   1.423   3.104   1.609
 2036HOH     H1 6295   1.356   3.119   1.543
 2036HOH     H2 6296   1.381   3.048   1.674
 2037HOH      O 6297   3.573   3.850   1.645
 2037HOH     H1 6298   3.651   3.799   1.665
 2037HOH     H2 6299   3.501   3.786   1.647
 2038HOH      O 6300   1.735   2.200   1.204
 2038HOH     H1 6301   1.750   2.112   1.237
 2038HOH     H2 6302   1.640   2.212   1.210
 2039HOH      O 6303   1.604   0.009   2.776
 2039HOH     H1 6304   1.659   0.086   2.764
 2039HOH     H2 6305   1.662  -0.055   2.818
 2040HOH      O 6306   1.931   1.753   3.629
 2040HOH     H1 6307   2.007   1.811   3.640
 2040HOH     H2 6308   1.901   1.770   3.540
 2041HOH      O 6309   1.379   3.392   1.572
 2041HOH     H1 6310   1.419   3.318   1.618
 2041HOH     H2 6311   1.453   3.444   1.543
 2042HOH      O 6312   1.273   2.478   1.801
 2042HOH     H1 6313   1.292   2.472   1.707
 2042HOH     H2 6314   1.356   2.455   1.844
 2043HOH      O 6315   0.009   3.679   3.629
 2043HOH     H1 6316  -0.006   3.585   3.624
 2043HOH     H2 6317   0.060   3.700   3.551
 2044HOH      O 6318   3.161   3.557   2.822
 2044HOH     H1 6319   3.186   3.607   2.899
 2044HOH     H2 6320   3.153   3.467   2.853
 2045HOH      O 6321   3.026   0.109   0.944
 2045HOH     H1 6322   2.953   0.130   0.887
 2045HOH     H2 6323   3.059   0.026   0.911
 2046HOH      O 6324   3.926   2.530   0.977
 2046HOH     H1 6325   3.909   2.505   1.068
 2046HOH     H2 6326   3.924   2.448   0.928
 2047HOH      O 6327   0.796   0.659   1.749
 2047HOH     H1 6328   0.885   0.655   1.782
 2047HOH     H2 6329   0.805   0.692   1.659
 2048HOH      O 6330   1.139   2.088   1.148
 2048HOH     H1 6331   1.162   2.160   1.207
 2048HOH     H2 6332   1.138   2.127   1.061
 2049HOH      O 6333   2.250   1.300   1.587
 2049HOH     H1 6334   2.309   1.334   1.519
 2049HOH     H2 6335   2.234   1.209   1.561
 2050HOH      O 6336   3.787   1.581   3.293
 2050HOH     H1 6337   3.820   1.662   3.334
 2050HOH     H2 6338   3.718   1.611   3.234
 2051HOH      O 6339   2.780   1.744   3.612
 2051HOH     H1 6340   2.759   1.815   3.672
 2051HOH     H2 6341   2.695   1.711   3.582
 2052HOH      O 6342   2.243   2.824   3.538
 2052HOH     H1 6343   2.304   2.818   3.611
 2052HOH     H2 6344   2.287   2.781   3.465
 2053HOH      O 6345   1.936   2.894   0.885
 2053HOH     H1 6346   1.912   2.901   0.977
 2053HOH     H2 6347   1.922   2.801   0.864
 2054HOH      O 6348   2.929   3.420   1.474
 2054HOH     H1 6349   2.866   3.429   1.545
 2054HOH     H2 6350   2.906   3.337   1.432
 2055HOH      O 6351   2.649   1.544   3.250
 2055HOH     H1 6352   2.713   1.600   3.207
 2055HOH     H2 6353   2.678   1.455   3.230
 2056HOH      O 6354   3.577   3.957   3.682
 2056HOH     H1 6355   3.498   3.998   3.646
 2056HOH     H2 6356   3.545   3.900   3.752
 2057HOH      O 6357   3.346   3.554   0.746
 2057HOH     H1 6358   3.345   3.495   0.671
 2057HOH     H2 6359   3.378   3.637   0.711
 2058HOH      O 6360   0.796   2.040   0.084
 2058HOH     H1 6361   0.856   1.969   0.061
 2058HOH     H2 6362   0.854   2.114   0.106
 2059HOH      O 6363   3.998   0.610   3.974
 2059HOH     H1 6364   3.943   0.680   3.937
 2059HOH     H2 6365   4.037   0.650   4.052
 2060HOH      O 6366   2.782   3.905   0.333
 2060HOH     H1 6367   2.751   3.944   0.251
 2060HOH     H2 6368   2.854   3.848   0.307
 2061HOH      O 6369   0.341   1.267   1.015
 2061HOH     H1 6370   0.249   1.287   1.029
 2061HOH     H2 6371   0.377   1.256   1.103
 2062HOH      O 6372   2.336   3.218   0.676
 2062HOH     H1 6373   2.381   3.144   0.717
 2062HOH     H2 6374   2.386   3.295   0.703
 2063HOH      O 6375   0.167   3.286   3.075
 2063HOH     H1 6376   0.203   3.369   3.045
 2063HOH     H2 6377   0.235   3.249   3.131
 2064HOH      O 6378   1.260   1.759   0.336
 2064HOH     H1 6379   1.328   1.711   0.289
 2064HOH     H2 6380   1.272   1.734   0.428
 2065HOH      O 6381   1.550   2.651   0.488
 2065HOH     H1 6382   1.490   2.585   0.523
 2065HOH     H2 6383   1.511   2.735   0.513
 2066HOH      O 6384   3.151   0.008   3.404
 2066HOH     H1 6385   3.133   0.022   3.311
 2066HOH     H2 6386   3.158  -0.087   3.412
 2067HOH      O 6387   1.043   1.538   3.269
 2067HOH     H1 6388   0.982   1.549   3.196
 2067HOH     H2 6389   0.988   1.549   3.347
 2068HOH      O 6390   0.727   0.768   1.142
 2068HOH     H1 6391   0.820   0.755   1.128
 2068HOH     H2 6392   0.686   0.689   1.105
 2069HOH      O 6393   3.158   0.031   2.133
 2069HOH     H1 6394   3.110   0.111   2.156
 2069HOH     H2 6395   3.133   0.014   2.042
 2070HOH      O 6396   3.998   1.261   0.458
 2070HOH     H1 6397   4.027   1.286   0.545
 2070HOH     H2 6398   3.931   1.194   0.472
 2071HOH      O 6399   2.397   2.421   4.019
 2071HOH     H1 6400   2.395   2.422   4.115
 2071HOH     H2 6401   2.347   2.343   3.995
 2072HOH      O 6402   3.917   2.953   3.907
 2072HOH     H1 6403   3.823   2.949   3.889
 2072HOH     H2 6404   3.956   2.982   3.825
 2073HOH      O 6405   3.858   3.703   0.709
 2073HOH     H1 6406   3.906   3.759   0.771
 2073HOH     H2 6407   3.767   3.733   0.715
 2074HOH      O 6408   3.714   1.650   2.357
 2074HOH     H1 6409   3.670   1.616   2.279
 2074HOH     H2 6410   3.784   1.705   2.323
 2075HOH      O 6411   0.803   0.130   0.224
 2075HOH     H1 6412   0.817   0.091   0.138
 2075HOH     H2 6413   0.869   0.089   0.280
 2076HOH      O 6414   1.079   3.840   1.002
 2076HOH     H1 6415   1.061   3.840   0.908
 2076HOH     H2 6416   1.174   3.851   1.008
 2077HOH      O 6417   0.771   2.429   2.272
 2077HOH     H1 6418   0.867   2.433   2.270
 2077HOH     H2 6419   0.750   2.355   2.214
 2078HOH      O 6420   3.884   2.774   3.239
 2078HOH     H1 6421   3.909   2.863   3.263
 2078HOH     H2 6422   3.949   2.748   3.174
 2079HOH      O 6423   2.291   3.408   2.483
 2079HOH     H1 6424   2.303   3.352   2.406
 2079HOH     H2 6425   2.269   3.347   2.553
 2080HOH      O 6426   3.543   1.829   3.465
 2080HOH     H1 6427   3.501   1.755   3.422
 2080HOH     H2 6428   3.570   1.887   3.394
 2081HOH      O 6429   0.383   0.234   2.274
 2081HOH     H1 6430   0.297   0.274   2.292
 2081HOH     H2 6431   0.415   0.280   2.197
 2082HOH      O 6432   3.518   2.960   0.923
 2082HOH     H1 6433   3.580   2.938   0.992
 2082HOH     H2 6434   3.435   2.920   0.951
 2083HOH      O 6435   0.594   0.193   1.791
 2083HOH     H1 6436   0.629   0.186   1.880
 2083HOH     H2 6437   0.600   0.286   1.771
 2084HOH      O 6438   3.192   0.771   3.645
 2084HOH     H1 6439   3.213   0.801   3.734
 2084HOH     H2 6440   3.262   0.807   3.591
 2085HOH      O 6441   3.328   1.721   0.421
 2085HOH     H1 6442   3.315   1.662   0.347
 2085HOH     H2 6443   3.423   1.724   0.432
 2086HOH      O 6444   2.358   0.991   1.674
 2086HOH     H1 6445   2.440   1.024   1.711
 2086HOH     H2 6446   2.353   0.901   1.704
 2087HOH      O 6447   2.912   3.763   1.765
 2087HOH     H1 6448   2.939   3.684   1.810
 2087HOH     H2 6449   2.922   3.743   1.672
 2088HOH      O 6450   1.805   2.059   0.368
 2088HOH     H1 6451   1.789   2.140   0.320
 2088HOH     H2 6452   1.720   2.037   0.407
 2089HOH      O 6453   2.645   0.810   0.736
 2089HOH     H1 6454   2.595   0.854   0.805
 2089HOH     H2 6455   2.630   0.716   0.751
 2090HOH      O 6456   3.791   2.148   4.018
 2090HOH     H1 6457   3.761   2.235   3.992
 2090HOH     H2 6458   3.786   2.149   4.114
 2091HOH      O 6459   1.793   2.360   0.496
 2091HOH     H1 6460   1.806   2.440   0.445
 2091HOH     H2 6461   1.879   2.319   0.499
 2092HOH      O 6462   3.770   1.499   1.199
 2092HOH     H1 6463   3.830   1.524   1.269
 2092HOH     H2 6464   3.804   1.544   1.122
 2093HOH      O 6465   1.697   0.746   1.555
 2093HOH     H1 6466   1.710   0.840   1.571
 2093HOH     H2 6467   1.649   0.715   1.631
 2094HOH      O 6468   1.935   3.189   0.277
 2094HOH     H1 6469   1.978   3.210   0.360
 2094HOH     H2 6470   1.896   3.103   0.291
 2095HOH      O 6471   1.743   3.130   0.863
 2095HOH     H1 6472   1.701   3.198   0.915
 2095HOH     H2 6473   1.828   3.117   0.904
 2096HOH      O 6474   2.270   0.570   2.895
 2096HOH     H1 6475   2.305   0.656   2.919
 2096HOH     H2 6476   2.320   0.508   2.949
 2097HOH      O 6477   2.386   1.945   3.217
 2097HOH     H1 6478   2.442   1.920   3.143
 2097HOH     H2 6479   2.346   2.028   3.190
 2098HOH      O 6480   1.779   0.684   2.380
 2098HOH     H1 6481   1.825   0.720   2.305
 2098HOH     H2 6482   1.847   0.669   2.446
 2099HOH      O 6483   1.102   3.952   1.859
 2099HOH     H1 6484   1.064   3.936   1.773
 2099HOH     H2 6485   1.126   3.866   1.892
 2100HOH      O 6486   0.632   2.897   3.901
 2100HOH     H1 6487   0.643   2.861   3.989
 2100HOH     H2 6488   0.716   2.938   3.881
 2101HOH      O 6489   0.811   2.548   3.639
 2101HOH     H1 6490   0.899   2.581   3.624
 2101HOH     H2 6491   0.805   2.469   3.585
 2102HOH      O 6492   2.215   2.665   0.174
 2102HOH     H1 6493   2.278   2.596   0.193
 2102HOH     H2 6494   2.197   2.705   0.259
 2103HOH      O 6495   1.998   2.663   3.539
 2103HOH     H1 6496   1.937   2.691   3.470
 2103HOH     H2 6497   2.078   2.713   3.522
 2104HOH      O 6498   2.467   3.160   3.212
 2104HOH     H1 6499   2.402   3.090   3.203
 2104HOH     H2 6500   2.417   3.241   3.202
 2105HOH      O 6501   0.359   2.733   3.149
 2105HOH     H1 6502   0.293   2.797   3.121
 2105HOH     H2 6503   0.442   2.772   3.123
 2106HOH      O 6504   0.924   3.932   0.057
 2106HOH     H1 6505   0.926   3.841   0.029
 2106HOH     H2 6506   0.862   3.975  -0.002
 2107HOH      O 6507   3.704   3.386   2.494
 2107HOH     H1 6508   3.662   3.310   2.535
 2107HOH     H2 6509   3.785   3.351   2.456
 2108HOH      O 6510   2.203   2.342   0.319
 2108HOH     H1 6511   2.138   2.385   0.375
 2108HOH     H2 6512   2.151   2.294   0.255
 2109HOH      O 6513   1.499   2.753   2.901
 2109HOH     H1 6514   1.484   2.840   2.864
 2109HOH     H2 6515   1.494   2.694   2.826
 2110HOH      O 6516   3.641   2.101   1.007
 2110HOH     H1 6517   3.723   2.082   1.054
 2110HOH     H2 6518   3.666   2.097   0.914
 2111HOH      O 6519   0.729   2.734   1.451
 2111HOH     H1 6520   0.660   2.683   1.494
 2111HOH     H2 6521   0.681   2.796   1.395
   4.02727   4.02727   4.02727   0.00000   0.00000   0.00000   0.00000   0.00000   0.00000
