Generated with MDTraj, t= 22459.0
 6521
    1MOL     O1    1   2.527   1.444   1.327
    1MOL     O2    2   2.327   1.497   1.344
    1MOL     N1    3   2.412   1.428   1.289
    1MOL     C1    4   2.378   1.323   1.192
    1MOL     C2    5   2.245   1.294   1.168
    1MOL     C3    6   2.477   1.241   1.140
    1MOL     C4    7   2.216   1.187   1.085
    1MOL     C5    8   2.446   1.126   1.068
    1MOL     C6    9   2.315   1.113   1.023
    1MOL     C7   10   2.073   1.166   1.048
    1MOL     O3   11   2.045   1.088   0.960
    1MOL     O4   12   1.987   1.226   1.109
    1MOL     H1   13   2.166   1.360   1.204
    1MOL     H2   14   2.582   1.262   1.155
    1MOL     H3   15   2.526   1.063   1.031
    1MOL     H4   16   2.288   1.040   0.947
    2OCB     C1   17   0.823   1.611   0.271
    2OCB     C2   18   0.851   1.338   0.232
    2OCB     C3   19   0.717   1.525   0.294
    2OCB     C4   20   0.948   1.560   0.240
    2OCB     C5   21   0.959   1.424   0.216
    2OCB     C6   22   0.726   1.390   0.263
    2OCB     O1   23   0.880   1.204   0.221
    2OCB     C7   24   0.610   1.295   0.283
    2OCB     C8   25   0.889   1.149   0.354
    2OCB     O2   26   0.769   1.079   0.394
    2OCB     C9   27   0.685   1.149   0.476
    2OCB    C10   28   0.611   1.256   0.429
    2OCB    C11   29   0.544   1.335   0.522
    2OCB    C12   30   0.683   1.117   0.611
    2OCB    C13   31   0.548   1.309   0.659
    2OCB    C14   32   0.627   1.204   0.704
    2OCB     O3   33   0.652   1.177   0.836
    2OCB    C15   34   0.467   1.394   0.754
    2OCB    C16   35   0.550   1.507   0.813
    2OCB    C17   36   0.627   1.489   0.927
    2OCB    C18   37   0.731   1.276   0.905
    2OCB     O4   38   0.654   1.367   0.985
    2OCB     O5   39   1.066   1.630   0.239
    2OCB    C19   40   0.804   1.761   0.284
    2OCB    C20   41   0.834   1.800   0.427
    2OCB     O6   42   1.073   1.811   0.396
    2OCB    C21   43   0.961   1.832   0.473
    2OCB    C22   44   0.698   1.593   0.985
    2OCB    C23   45   0.703   1.718   0.923
    2OCB    C24   46   0.978   1.888   0.599
    2OCB    C25   47   0.871   1.906   0.685
    2OCB     O7   48   0.773   1.822   0.979
    2OCB     O8   49   0.899   1.931   0.817
    2OCB    C26   50   0.901   1.826   0.914
    2OCB    C27   51   0.727   1.817   0.514
    2OCB    C28   52   0.745   1.866   0.642
    2OCB    C29   53   0.547   1.636   0.763
    2OCB    C30   54   0.632   1.875   0.742
    2OCB    C31   55   0.626   1.740   0.810
    2OCB    C32   56   1.112   1.676   0.368
    2OCB    C33   57   0.326   1.434   0.709
    2OCB    C34   58   0.246   1.314   0.655
    2OCB    C35   59   0.097   1.313   0.674
    2OCB     O9   60   0.049   1.261   0.773
    2OCB    C36   61   0.477   1.344   0.225
    2OCB    C37   62   0.360   1.247   0.243
    2OCB    C38   63   0.360   1.123   0.156
    2OCB    O10   64   0.299   1.126   0.051
    2OCB    C39   65   0.679   1.824   0.222
    2OCB    C40   66   0.688   1.868   0.075
    2OCB    C41   67   0.737   1.755  -0.011
    2OCB    O11   68   0.664   1.662  -0.039
    2OCB    C42   69   0.498   1.919   0.681
    2OCB    C43   70   0.378   1.932   0.776
    2OCB    C44   71   0.255   1.994   0.714
    2OCB    O12   72   0.261   2.062   0.614
    2OCB    C45   73   1.019   1.072   0.357
    2OCB    C46   74   1.268   0.937   0.390
    2OCB    C47   75   1.041   0.983   0.461
    2OCB    C48   76   1.126   1.099   0.273
    2OCB    C49   77   1.243   1.027   0.287
    2OCB    C50   78   1.164   0.921   0.480
    2OCB    C51   79   1.263   1.667   0.368
    2OCB    C52   80   1.537   1.621   0.407
    2OCB    C53   81   1.329   1.713   0.481
    2OCB    C54   82   1.336   1.591   0.278
    2OCB    C55   83   1.471   1.568   0.297
    2OCB    C56   84   1.466   1.697   0.499
    2OCB    C57   85   1.007   1.849   1.020
    2OCB    C58   86   1.226   1.854   1.200
    2OCB    C59   87   0.993   1.802   1.150
    2OCB    C60   88   1.132   1.896   0.980
    2OCB    C61   89   1.238   1.897   1.069
    2OCB    C62   90   1.101   1.806   1.237
    2OCB    C63   91   0.836   1.214   0.994
    2OCB    C64   92   1.034   1.097   1.155
    2OCB    C65   93   0.885   1.284   1.103
    2OCB    C66   94   0.890   1.090   0.964
    2OCB    C67   95   0.981   1.027   1.048
    2OCB    C68   96   0.984   1.224   1.180
    2OCB    O13   97   1.548   1.482   0.223
    2OCB    O14   98   1.364   1.931   1.025
    2OCB    O15   99   1.085   1.763   1.366
    2OCB    O16  100   1.349   1.043   0.200
    2OCB    O17  101   1.175   0.830   0.582
    2OCB    O18  102   1.038   1.293   1.286
    2OCB    O19  103   1.014   0.894   1.032
    2OCB    C69  104   1.399   1.940   0.893
    2OCB    C70  105   1.458   1.973   0.628
    2OCB    C71  106   1.438   1.828   0.820
    2OCB    C72  107   1.379   2.062   0.829
    2OCB    C73  108   1.402   2.081   0.694
    2OCB    C74  109   1.473   1.849   0.688
    2OCB    O20  110   1.527   1.749   0.611
    2OCB    C75  111   1.395   1.161   0.148
    2OCB    C76  112   1.494   1.385   0.017
    2OCB    C77  113   1.404   1.166   0.010
    2OCB    C78  114   1.437   1.269   0.224
    2OCB    C79  115   1.490   1.377   0.156
    2OCB    C80  116   1.447   1.279  -0.059
    2OCB    C81  117   1.024   1.641   1.385
    2OCB    C82  118   0.867   1.420   1.400
    2OCB    C83  119   0.893   1.653   1.428
    2OCB    C84  120   1.074   1.521   1.336
    2OCB    C85  121   0.993   1.409   1.344
    2OCB    C86  122   0.812   1.541   1.443
    2OCB    C87  123   0.674   1.547   1.498
    2OCB    O21  124   0.615   1.448   1.535
    2OCB    C88  125   0.827   0.540   0.768
    2OCB    O22  126   0.816   0.472   0.668
    2OCB    C89  127   1.459   1.285  -0.207
    2OCB    O23  128   1.500   1.387  -0.260
    2OCB    O24  129   0.029   1.348   0.580
    2OCB    O25  130   0.148   1.954   0.753
    2OCB    O26  131   0.851   1.766  -0.053
    2OCB    C90  132   1.409   2.216   0.632
    2OCB    O27  133   1.479   2.231   0.534
    2OCB    O28  134   0.776   0.494   0.868
    2OCB    O29  135   0.621   1.655   1.511
    2OCB    O30  136   1.368   2.311   0.695
    2OCB    O31  137   1.420   1.198  -0.281
    2OCB    O32  138   0.432   1.031   0.190
    2OCB    C91  139   1.088   0.803   0.685
    2OCB    C92  140   0.931   0.724   0.895
    2OCB    C93  141   1.097   0.871   0.805
    2OCB    C94  142   0.997   0.699   0.667
    2OCB    C95  143   0.916   0.659   0.773
    2OCB    C96  144   1.022   0.826   0.913
    2OCB    C97  145   1.186   0.991   0.831
    2OCB    C98  146   1.445   1.252   0.374
    2OCB    C99  147   1.445   1.697   0.895
    2OCB      C  148   1.214   1.516   1.278
    2OCB     H1  149   0.620   1.565   0.324
    2OCB     H2  150   1.054   1.375   0.197
    2OCB     H3  151   0.628   1.206   0.222
    2OCB     H4  152   0.908   1.232   0.424
    2OCB     H5  153   0.486   1.422   0.495
    2OCB     H6  154   0.742   1.032   0.643
    2OCB     H7  155   0.443   1.335   0.842
    2OCB     H8  156   0.792   1.330   0.831
    2OCB     H9  157   0.884   1.802   0.221
    2OCB    H10  158   0.761   1.575   1.072
    2OCB    H11  159   1.075   1.932   0.618
    2OCB    H12  160   0.915   1.729   0.864
    2OCB    H13  161   0.627   1.789   0.482
    2OCB    H14  162   0.485   1.651   0.676
    2OCB    H15  163   0.653   1.944   0.825
    2OCB    H16  164   1.074   1.609   0.447
    2OCB    H17  165   0.272   1.473   0.795
    2OCB    H18  166   0.333   1.510   0.631
    2OCB    H19  167   0.263   1.296   0.548
    2OCB    H20  168   0.292   1.222   0.691
    2OCB    H21  169   0.494   1.360   0.118
    2OCB    H22  170   0.452   1.444   0.262
    2OCB    H23  171   0.344   1.227   0.349
    2OCB    H24  172   0.270   1.307   0.227
    2OCB    H25  173   0.588   1.764   0.230
    2OCB    H26  174   0.664   1.912   0.285
    2OCB    H27  175   0.591   1.897   0.036
    2OCB    H28  176   0.743   1.961   0.065
    2OCB    H29  177   0.516   2.014   0.631
    2OCB    H30  178   0.473   1.847   0.602
    2OCB    H31  179   0.358   1.835   0.821
    2OCB    H32  180   0.417   1.999   0.853
    2OCB    H33  181   1.358   0.877   0.390
    2OCB    H34  182   0.961   0.962   0.532
    2OCB    H35  183   1.120   1.170   0.190
    2OCB    H36  184   1.643   1.601   0.418
    2OCB    H37  185   1.272   1.751   0.565
    2OCB    H38  186   1.292   1.544   0.190
    2OCB    H39  187   1.305   1.843   1.274
    2OCB    H40  188   0.900   1.772   1.196
    2OCB    H41  189   1.148   1.924   0.876
    2OCB    H42  190   1.102   1.047   1.224
    2OCB    H43  191   0.856   1.387   1.122
    2OCB    H44  192   0.846   1.028   0.885
    2OCB    H45  193   1.483   1.986   0.523
    2OCB    H46  194   1.343   2.150   0.882
    2OCB    H47  195   1.533   1.480  -0.019
    2OCB    H48  196   1.370   1.085  -0.054
    2OCB    H49  197   0.812   1.327   1.413
    2OCB    H50  198   0.852   1.751   1.450
    2OCB    H51  199   0.867   0.700   0.980
    2OCB    H52  200   0.992   0.649   0.571
    2OCB    H53  201   1.124   1.078   0.807
    2OCB    H54  202   1.214   0.993   0.937
    2OCB    H55  203   1.275   0.995   0.768
    2OCB    H56  204   1.545   1.287   0.401
    2OCB    H57  205   1.371   1.316   0.423
    2OCB    H58  206   1.449   1.149   0.408
    2OCB    H59  207   1.383   1.619   0.851
    2OCB    H60  208   1.548   1.665   0.882
    2OCB    H61  209   1.428   1.706   1.003
    2OCB    H62  210   1.274   1.596   1.321
    2OCB    H63  211   1.263   1.422   1.304
    2OCB    H64  212   1.213   1.516   1.169
    3Na+    Na+  213   2.277   1.127   3.578
    4Na+    Na+  214   1.457   0.002   3.279
    5Na+    Na+  215   1.512   1.394   3.348
    6Na+    Na+  216   1.546   3.368   2.698
    7Na+    Na+  217   0.994   3.118   1.958
    8Na+    Na+  218   3.872   0.717   1.797
    9Na+    Na+  219   2.391   2.028   3.398
   10Na+    Na+  220   0.056   3.357   2.152
   11Na+    Na+  221   0.842   0.350   1.978
   12HOH      O  222   3.401   3.588   3.561
   12HOH     H1  223   3.489   3.559   3.585
   12HOH     H2  224   3.367   3.517   3.507
   13HOH      O  225   1.806   0.008   0.521
   13HOH     H1  226   1.721  -0.001   0.479
   13HOH     H2  227   1.869  -0.013   0.452
   14HOH      O  228   3.677   2.979   2.880
   14HOH     H1  229   3.614   2.981   2.952
   14HOH     H2  230   3.712   2.890   2.880
   15HOH      O  231   3.249   3.443   0.596
   15HOH     H1  232   3.252   3.349   0.577
   15HOH     H2  233   3.176   3.476   0.543
   16HOH      O  234   3.597   2.031   3.472
   16HOH     H1  235   3.524   2.084   3.438
   16HOH     H2  236   3.569   1.940   3.457
   17HOH      O  237   0.090   0.381   2.718
   17HOH     H1  238   0.044   0.346   2.641
   17HOH     H2  239   0.182   0.385   2.692
   18HOH      O  240   0.098   0.632   2.428
   18HOH     H1  241   0.191   0.644   2.408
   18HOH     H2  242   0.078   0.544   2.398
   19HOH      O  243   3.662   2.181   1.104
   19HOH     H1  244   3.707   2.264   1.122
   19HOH     H2  245   3.586   2.183   1.162
   20HOH      O  246   3.703   3.385   2.331
   20HOH     H1  247   3.767   3.371   2.262
   20HOH     H2  248   3.714   3.310   2.390
   21HOH      O  249   3.160   0.022   3.950
   21HOH     H1  250   3.121   0.001   3.866
   21HOH     H2  251   3.087   0.053   4.003
   22HOH      O  252   2.228   1.173   2.328
   22HOH     H1  253   2.140   1.137   2.318
   22HOH     H2  254   2.284   1.115   2.278
   23HOH      O  255   1.858   1.221   0.600
   23HOH     H1  256   1.893   1.292   0.547
   23HOH     H2  257   1.793   1.178   0.544
   24HOH      O  258   3.992   0.430   0.970
   24HOH     H1  259   3.957   0.487   0.901
   24HOH     H2  260   3.950   0.346   0.956
   25HOH      O  261   0.817   2.784   3.245
   25HOH     H1  262   0.793   2.856   3.304
   25HOH     H2  263   0.827   2.826   3.159
   26HOH      O  264   2.696   0.938   2.534
   26HOH     H1  265   2.719   0.852   2.570
   26HOH     H2  266   2.740   0.941   2.449
   27HOH      O  267   3.967   0.152   2.098
   27HOH     H1  268   3.875   0.132   2.117
   27HOH     H2  269   3.992   0.088   2.031
   28HOH      O  270   1.936   3.800   3.103
   28HOH     H1  271   1.901   3.885   3.078
   28HOH     H2  272   1.939   3.750   3.021
   29HOH      O  273   3.086   1.996   2.144
   29HOH     H1  274   3.155   2.062   2.148
   29HOH     H2  275   3.112   1.938   2.072
   30HOH      O  276   0.764   3.945   0.005
   30HOH     H1  277   0.768   3.866  -0.049
   30HOH     H2  278   0.693   3.997  -0.032
   31HOH      O  279   1.708   2.880   1.149
   31HOH     H1  280   1.698   2.807   1.088
   31HOH     H2  281   1.691   2.842   1.235
   32HOH      O  282   0.212   4.011   0.391
   32HOH     H1  283   0.161   4.091   0.401
   32HOH     H2  284   0.302   4.041   0.380
   33HOH      O  285   2.310   3.929   0.634
   33HOH     H1  286   2.301   4.010   0.584
   33HOH     H2  287   2.270   3.862   0.579
   34HOH      O  288   1.533   1.041   0.614
   34HOH     H1  289   1.519   1.127   0.654
   34HOH     H2  290   1.462   0.987   0.648
   35HOH      O  291   1.365   2.384   0.950
   35HOH     H1  292   1.368   2.355   0.859
   35HOH     H2  293   1.294   2.332   0.989
   36HOH      O  294   3.220   2.462   0.801
   36HOH     H1  295   3.233   2.452   0.706
   36HOH     H2  296   3.302   2.433   0.840
   37HOH      O  297   3.514   0.314   1.200
   37HOH     H1  298   3.527   0.281   1.111
   37HOH     H2  299   3.560   0.253   1.256
   38HOH      O  300   0.490   2.370   3.509
   38HOH     H1  301   0.561   2.306   3.504
   38HOH     H2  302   0.416   2.328   3.467
   39HOH      O  303   0.069   3.357   1.421
   39HOH     H1  304   0.094   3.401   1.340
   39HOH     H2  305  -0.021   3.386   1.437
   40HOH      O  306   0.916   3.197   0.738
   40HOH     H1  307   0.968   3.216   0.816
   40HOH     H2  308   0.980   3.190   0.668
   41HOH      O  309   2.670   3.987   1.910
   41HOH     H1  310   2.748   4.038   1.928
   41HOH     H2  311   2.653   4.002   1.817
   42HOH      O  312   2.231   2.509   0.465
   42HOH     H1  313   2.226   2.415   0.452
   42HOH     H2  314   2.241   2.520   0.559
   43HOH      O  315   1.641   2.817   0.570
   43HOH     H1  316   1.710   2.828   0.635
   43HOH     H2  317   1.655   2.730   0.533
   44HOH      O  318   1.069   3.095   2.209
   44HOH     H1  319   1.003   3.108   2.277
   44HOH     H2  320   1.090   3.002   2.212
   45HOH      O  321   4.020   1.541   0.114
   45HOH     H1  322   4.044   1.547   0.206
   45HOH     H2  323   4.076   1.472   0.078
   46HOH      O  324   1.761   1.678   0.097
   46HOH     H1  325   1.668   1.654   0.103
   46HOH     H2  326   1.760   1.765   0.057
   47HOH      O  327   0.045   0.564   0.046
   47HOH     H1  328   0.126   0.574  -0.003
   47HOH     H2  329   0.012   0.653   0.057
   48HOH      O  330   0.332   1.618   2.999
   48HOH     H1  331   0.405   1.675   3.024
   48HOH     H2  332   0.368   1.561   2.931
   49HOH      O  333   3.745   2.131   2.406
   49HOH     H1  334   3.814   2.103   2.345
   49HOH     H2  335   3.721   2.051   2.454
   50HOH      O  336   2.433   1.763   3.983
   50HOH     H1  337   2.460   1.699   4.048
   50HOH     H2  338   2.338   1.769   3.993
   51HOH      O  339   2.264   1.727   1.141
   51HOH     H1  340   2.245   1.646   1.092
   51HOH     H2  341   2.250   1.703   1.233
   52HOH      O  342   3.290   3.099   1.752
   52HOH     H1  343   3.252   3.072   1.836
   52HOH     H2  344   3.220   3.149   1.709
   53HOH      O  345   0.150   2.556   1.412
   53HOH     H1  346   0.112   2.636   1.447
   53HOH     H2  347   0.223   2.585   1.357
   54HOH      O  348   2.705   1.922   2.285
   54HOH     H1  349   2.783   1.911   2.338
   54HOH     H2  350   2.634   1.936   2.348
   55HOH      O  351   3.261   1.810   1.112
   55HOH     H1  352   3.354   1.796   1.097
   55HOH     H2  353   3.217   1.754   1.048
   56HOH      O  354   2.885   1.155   2.555
   56HOH     H1  355   2.814   1.213   2.529
   56HOH     H2  356   2.842   1.074   2.581
   57HOH      O  357   1.472   2.891   3.524
   57HOH     H1  358   1.537   2.821   3.530
   57HOH     H2  359   1.396   2.858   3.572
   58HOH      O  360   3.671   0.366   3.625
   58HOH     H1  361   3.609   0.424   3.581
   58HOH     H2  362   3.639   0.278   3.608
   59HOH      O  363   0.423   0.114   0.329
   59HOH     H1  364   0.498   0.097   0.385
   59HOH     H2  365   0.397   0.204   0.350
   60HOH      O  366   2.399   0.937   1.992
   60HOH     H1  367   2.479   0.949   2.043
   60HOH     H2  368   2.421   0.865   1.932
   61HOH      O  369   2.493   1.192   3.533
   61HOH     H1  370   2.526   1.107   3.504
   61HOH     H2  371   2.551   1.256   3.492
   62HOH      O  372   2.410   0.513   2.745
   62HOH     H1  373   2.447   0.444   2.800
   62HOH     H2  374   2.422   0.481   2.656
   63HOH      O  375   0.137   1.354   4.004
   63HOH     H1  376   0.211   1.300   4.032
   63HOH     H2  377   0.080   1.293   3.957
   64HOH      O  378   0.088   1.463   1.829
   64HOH     H1  379   0.054   1.467   1.919
   64HOH     H2  380   0.129   1.376   1.823
   65HOH      O  381   0.170   2.293   0.953
   65HOH     H1  382   0.112   2.361   0.987
   65HOH     H2  383   0.258   2.323   0.976
   66HOH      O  384   1.508   3.660   0.679
   66HOH     H1  385   1.603   3.665   0.678
   66HOH     H2  386   1.482   3.687   0.591
   67HOH      O  387   1.946   2.758   1.575
   67HOH     H1  388   1.948   2.830   1.639
   67HOH     H2  389   2.038   2.734   1.563
   68HOH      O  390   0.315   2.355   1.511
   68HOH     H1  391   0.255   2.428   1.496
   68HOH     H2  392   0.297   2.294   1.440
   69HOH      O  393   3.855   3.350   2.092
   69HOH     H1  394   3.834   3.417   2.027
   69HOH     H2  395   3.781   3.289   2.087
   70HOH      O  396   0.944   0.695   1.223
   70HOH     H1  397   0.981   0.746   1.150
   70HOH     H2  398   0.881   0.754   1.264
   71HOH      O  399   3.525   2.898   0.370
   71HOH     H1  400   3.530   2.941   0.455
   71HOH     H2  401   3.615   2.899   0.337
   72HOH      O  402   0.499   1.512   3.549
   72HOH     H1  403   0.504   1.447   3.618
   72HOH     H2  404   0.527   1.594   3.590
   73HOH      O  405   3.086   3.146   2.598
   73HOH     H1  406   3.144   3.211   2.557
   73HOH     H2  407   3.086   3.072   2.537
   74HOH      O  408   2.003   2.619   3.115
   74HOH     H1  409   2.091   2.650   3.137
   74HOH     H2  410   2.005   2.526   3.133
   75HOH      O  411   3.140   3.693   3.251
   75HOH     H1  412   3.177   3.617   3.204
   75HOH     H2  413   3.069   3.723   3.195
   76HOH      O  414   3.392   2.843   3.257
   76HOH     H1  415   3.377   2.787   3.333
   76HOH     H2  416   3.402   2.931   3.293
   77HOH      O  417   0.903   2.738   0.076
   77HOH     H1  418   0.920   2.736  -0.018
   77HOH     H2  419   0.849   2.661   0.093
   78HOH      O  420   0.561   3.253   1.142
   78HOH     H1  421   0.582   3.333   1.190
   78HOH     H2  422   0.573   3.276   1.050
   79HOH      O  423   1.578   2.943   1.487
   79HOH     H1  424   1.663   2.950   1.444
   79HOH     H2  425   1.520   2.907   1.420
   80HOH      O  426   1.742   2.994   2.917
   80HOH     H1  427   1.780   2.970   2.833
   80HOH     H2  428   1.708   2.911   2.952
   81HOH      O  429   3.160   2.268   3.751
   81HOH     H1  430   3.245   2.232   3.726
   81HOH     H2  431   3.108   2.265   3.670
   82HOH      O  432   3.698   1.940   0.709
   82HOH     H1  433   3.718   1.866   0.766
   82HOH     H2  434   3.775   1.996   0.714
   83HOH      O  435   0.440   2.577   0.858
   83HOH     H1  436   0.426   2.507   0.923
   83HOH     H2  437   0.534   2.580   0.846
   84HOH      O  438   3.740   2.388   0.151
   84HOH     H1  439   3.761   2.309   0.201
   84HOH     H2  440   3.783   2.458   0.199
   85HOH      O  441   2.971   3.753   2.167
   85HOH     H1  442   3.053   3.733   2.121
   85HOH     H2  443   2.903   3.718   2.109
   86HOH      O  444   1.028   0.406   0.962
   86HOH     H1  445   1.087   0.398   0.888
   86HOH     H2  446   0.942   0.420   0.923
   87HOH      O  447   2.033   0.123   0.624
   87HOH     H1  448   2.015   0.145   0.715
   87HOH     H2  449   1.964   0.062   0.599
   88HOH      O  450   2.774   0.218   0.966
   88HOH     H1  451   2.692   0.229   0.917
   88HOH     H2  452   2.839   0.268   0.916
   89HOH      O  453   1.285   1.059   3.414
   89HOH     H1  454   1.303   0.993   3.481
   89HOH     H2  455   1.247   1.009   3.341
   90HOH      O  456   2.794   0.345   2.095
   90HOH     H1  457   2.758   0.353   2.184
   90HOH     H2  458   2.847   0.424   2.083
   91HOH      O  459   3.932   2.273   0.586
   91HOH     H1  460   3.917   2.292   0.493
   91HOH     H2  461   4.020   2.305   0.603
   92HOH      O  462   1.581   3.887   3.625
   92HOH     H1  463   1.625   3.807   3.654
   92HOH     H2  464   1.499   3.888   3.674
   93HOH      O  465   3.584   3.877   0.480
   93HOH     H1  466   3.501   3.924   0.486
   93HOH     H2  467   3.565   3.801   0.426
   94HOH      O  468   2.041   0.358   1.932
   94HOH     H1  469   2.089   0.306   1.868
   94HOH     H2  470   2.000   0.293   1.990
   95HOH      O  471   0.089   1.411   1.559
   95HOH     H1  472   0.110   1.444   1.647
   95HOH     H2  473   0.140   1.466   1.500
   96HOH      O  474   2.810   0.971   0.970
   96HOH     H1  475   2.858   1.052   0.989
   96HOH     H2  476   2.858   0.903   1.016
   97HOH      O  477   0.907   3.943   3.757
   97HOH     H1  478   0.972   3.971   3.822
   97HOH     H2  479   0.878   4.024   3.715
   98HOH      O  480   1.436   2.115   1.491
   98HOH     H1  481   1.472   2.067   1.416
   98HOH     H2  482   1.377   2.179   1.451
   99HOH      O  483   2.674   1.133   3.735
   99HOH     H1  484   2.629   1.167   3.657
   99HOH     H2  485   2.725   1.207   3.767
  100HOH      O  486   1.057   2.425   1.899
  100HOH     H1  487   0.983   2.392   1.849
  100HOH     H2  488   1.061   2.369   1.976
  101HOH      O  489   2.253   3.886   0.893
  101HOH     H1  490   2.259   3.888   0.798
  101HOH     H2  491   2.283   3.973   0.921
  102HOH      O  492   1.188   2.271   1.128
  102HOH     H1  493   1.203   2.278   1.222
  102HOH     H2  494   1.093   2.270   1.119
  103HOH      O  495   0.368   0.254   3.094
  103HOH     H1  496   0.310   0.330   3.102
  103HOH     H2  497   0.363   0.212   3.180
  104HOH      O  498   4.008   3.103   0.147
  104HOH     H1  499   4.028   3.047   0.221
  104HOH     H2  500   4.066   3.179   0.157
  105HOH      O  501   2.032   2.241   0.219
  105HOH     H1  502   2.038   2.304   0.148
  105HOH     H2  503   2.112   2.254   0.270
  106HOH      O  504   0.997   2.015   3.977
  106HOH     H1  505   0.953   1.934   4.000
  106HOH     H2  506   1.068   2.023   4.039
  107HOH      O  507   1.920   0.323   3.599
  107HOH     H1  508   1.843   0.288   3.643
  107HOH     H2  509   1.956   0.248   3.551
  108HOH      O  510   1.781   2.530   2.334
  108HOH     H1  511   1.724   2.583   2.390
  108HOH     H2  512   1.867   2.572   2.341
  109HOH      O  513   2.600   0.845   1.570
  109HOH     H1  514   2.576   0.912   1.634
  109HOH     H2  515   2.523   0.788   1.565
  110HOH      O  516   1.965   0.984   3.034
  110HOH     H1  517   1.972   1.045   3.108
  110HOH     H2  518   2.009   1.029   2.962
  111HOH      O  519   3.626   2.396   1.395
  111HOH     H1  520   3.584   2.313   1.374
  111HOH     H2  521   3.690   2.410   1.325
  112HOH      O  522   2.568   1.171   0.265
  112HOH     H1  523   2.617   1.101   0.222
  112HOH     H2  524   2.543   1.134   0.350
  113HOH      O  525   2.643   3.150   0.179
  113HOH     H1  526   2.670   3.113   0.095
  113HOH     H2  527   2.653   3.078   0.241
  114HOH      O  528   2.971   3.650   2.427
  114HOH     H1  529   2.960   3.692   2.342
  114HOH     H2  530   3.030   3.709   2.475
  115HOH      O  531   3.190   0.244   3.649
  115HOH     H1  532   3.206   0.286   3.734
  115HOH     H2  533   3.140   0.165   3.670
  116HOH      O  534   2.941   2.813   2.179
  116HOH     H1  535   2.877   2.746   2.205
  116HOH     H2  536   2.889   2.879   2.134
  117HOH      O  537   3.147   0.507   3.572
  117HOH     H1  538   3.168   0.415   3.585
  117HOH     H2  539   3.222   0.554   3.609
  118HOH      O  540   2.300   3.238   2.683
  118HOH     H1  541   2.317   3.295   2.758
  118HOH     H2  542   2.387   3.223   2.645
  119HOH      O  543   3.507   1.811   1.010
  119HOH     H1  544   3.469   1.851   0.932
  119HOH     H2  545   3.593   1.780   0.982
  120HOH      O  546   3.172   1.124   2.635
  120HOH     H1  547   3.081   1.118   2.605
  120HOH     H2  548   3.219   1.161   2.560
  121HOH      O  549   2.809   0.579   2.394
  121HOH     H1  550   2.888   0.569   2.340
  121HOH     H2  551   2.836   0.639   2.464
  122HOH      O  552   1.426   3.271   1.822
  122HOH     H1  553   1.461   3.350   1.863
  122HOH     H2  554   1.504   3.223   1.793
  123HOH      O  555   1.561   0.521   1.814
  123HOH     H1  556   1.510   0.524   1.733
  123HOH     H2  557   1.498   0.547   1.882
  124HOH      O  558   2.254   3.330   0.442
  124HOH     H1  559   2.285   3.349   0.531
  124HOH     H2  560   2.225   3.239   0.446
  125HOH      O  561   0.626   0.835   1.021
  125HOH     H1  562   0.572   0.758   1.006
  125HOH     H2  563   0.674   0.847   0.940
  126HOH      O  564   1.026   1.551   1.885
  126HOH     H1  565   0.951   1.508   1.845
  126HOH     H2  566   1.099   1.530   1.827
  127HOH      O  567   2.360   0.496   1.831
  127HOH     H1  568   2.359   0.404   1.856
  127HOH     H2  569   2.271   0.527   1.849
  128HOH      O  570   2.935   2.903   0.005
  128HOH     H1  571   2.969   2.883   0.092
  128HOH     H2  572   2.991   2.853  -0.054
  129HOH      O  573   2.417   2.559   1.726
  129HOH     H1  574   2.326   2.536   1.748
  129HOH     H2  575   2.466   2.479   1.743
  130HOH      O  576   3.297   3.845   1.777
  130HOH     H1  577   3.309   3.939   1.784
  130HOH     H2  578   3.249   3.833   1.695
  131HOH      O  579   0.604   2.584   1.186
  131HOH     H1  580   0.648   2.509   1.225
  131HOH     H2  581   0.665   2.617   1.120
  132HOH      O  582   2.418   0.538   0.027
  132HOH     H1  583   2.434   0.577  -0.059
  132HOH     H2  584   2.414   0.612   0.087
  133HOH      O  585   1.341   2.038   3.897
  133HOH     H1  586   1.369   1.948   3.917
  133HOH     H2  587   1.368   2.089   3.973
  134HOH      O  588   1.651   3.465   1.885
  134HOH     H1  589   1.593   3.541   1.872
  134HOH     H2  590   1.705   3.463   1.807
  135HOH      O  591   0.080   2.398   3.656
  135HOH     H1  592   0.018   2.444   3.599
  135HOH     H2  593   0.055   2.306   3.650
  136HOH      O  594   2.002   3.982   0.341
  136HOH     H1  595   2.067   4.042   0.306
  136HOH     H2  596   2.028   3.897   0.306
  137HOH      O  597   2.319   2.939   2.406
  137HOH     H1  598   2.389   2.973   2.462
  137HOH     H2  599   2.244   2.932   2.463
  138HOH      O  600   0.057   1.140   1.861
  138HOH     H1  601   0.042   1.071   1.925
  138HOH     H2  602   0.123   1.104   1.802
  139HOH      O  603   2.890   2.107   0.817
  139HOH     H1  604   2.933   2.187   0.844
  139HOH     H2  605   2.867   2.122   0.725
  140HOH      O  606   1.981   1.900   1.502
  140HOH     H1  607   1.918   1.845   1.455
  140HOH     H2  608   2.060   1.847   1.508
  141HOH      O  609   2.456   0.748   3.828
  141HOH     H1  610   2.369   0.756   3.867
  141HOH     H2  611   2.444   0.685   3.757
  142HOH      O  612   3.368   2.135   3.343
  142HOH     H1  613   3.320   2.052   3.332
  142HOH     H2  614   3.312   2.200   3.301
  143HOH      O  615   0.591   2.630   3.423
  143HOH     H1  616   0.648   2.606   3.349
  143HOH     H2  617   0.535   2.553   3.436
  144HOH      O  618   0.599   2.670   1.462
  144HOH     H1  619   0.550   2.673   1.380
  144HOH     H2  620   0.676   2.726   1.446
  145HOH      O  621   1.382   2.032   3.058
  145HOH     H1  622   1.300   2.080   3.060
  145HOH     H2  623   1.421   2.046   3.144
  146HOH      O  624   1.124   1.426   2.199
  146HOH     H1  625   1.033   1.451   2.187
  146HOH     H2  626   1.161   1.425   2.111
  147HOH      O  627   1.325   2.317   2.866
  147HOH     H1  628   1.288   2.381   2.805
  147HOH     H2  629   1.248   2.276   2.906
  148HOH      O  630   0.974   3.658   2.391
  148HOH     H1  631   0.915   3.583   2.403
  148HOH     H2  632   0.953   3.690   2.303
  149HOH      O  633   2.209   0.124   1.309
  149HOH     H1  634   2.221   0.095   1.399
  149HOH     H2  635   2.117   0.102   1.289
  150HOH      O  636   0.936   3.726   2.117
  150HOH     H1  637   0.925   3.821   2.107
  150HOH     H2  638   0.876   3.689   2.052
  151HOH      O  639   3.853   0.656   0.442
  151HOH     H1  640   3.807   0.667   0.359
  151HOH     H2  641   3.850   0.562   0.459
  152HOH      O  642   2.224   1.400   2.949
  152HOH     H1  643   2.309   1.363   2.924
  152HOH     H2  644   2.189   1.435   2.867
  153HOH      O  645   0.670   0.952   0.158
  153HOH     H1  646   0.584   0.993   0.166
  153HOH     H2  647   0.709   0.963   0.244
  154HOH      O  648   2.771   3.367   0.846
  154HOH     H1  649   2.789   3.378   0.753
  154HOH     H2  650   2.691   3.314   0.849
  155HOH      O  651   0.300   0.143   1.855
  155HOH     H1  652   0.291   0.066   1.912
  155HOH     H2  653   0.348   0.206   1.908
  156HOH      O  654   2.157   0.084   3.695
  156HOH     H1  655   2.107   0.094   3.613
  156HOH     H2  656   2.210   0.163   3.700
  157HOH      O  657   2.451   1.411   0.324
  157HOH     H1  658   2.495   1.327   0.312
  157HOH     H2  659   2.395   1.399   0.401
  158HOH      O  660   1.541   0.072   0.434
  158HOH     H1  661   1.480   0.122   0.488
  158HOH     H2  662   1.520   0.098   0.344
  159HOH      O  663   1.352   3.871   1.446
  159HOH     H1  664   1.377   3.784   1.477
  159HOH     H2  665   1.406   3.883   1.367
  160HOH      O  666   3.295   2.144   2.070
  160HOH     H1  667   3.289   2.221   2.126
  160HOH     H2  668   3.388   2.119   2.074
  161HOH      O  669   3.902   0.020   3.719
  161HOH     H1  670   3.874  -0.010   3.805
  161HOH     H2  671   3.995   0.040   3.730
  162HOH      O  672   2.259   3.705   1.128
  162HOH     H1  673   2.264   3.703   1.032
  162HOH     H2  674   2.351   3.714   1.156
  163HOH      O  675   3.827   0.761   1.426
  163HOH     H1  676   3.773   0.683   1.437
  163HOH     H2  677   3.829   0.775   1.331
  164HOH      O  678   1.663   1.074   2.359
  164HOH     H1  679   1.642   1.138   2.290
  164HOH     H2  680   1.620   0.993   2.330
  165HOH      O  681   1.950   0.522   0.811
  165HOH     H1  682   2.015   0.590   0.793
  165HOH     H2  683   1.872   0.551   0.764
  166HOH      O  684   2.982   3.385   3.641
  166HOH     H1  685   2.936   3.447   3.697
  166HOH     H2  686   2.947   3.401   3.554
  167HOH      O  687   3.881   1.212   1.715
  167HOH     H1  688   3.878   1.306   1.731
  167HOH     H2  689   3.958   1.182   1.762
  168HOH      O  690   3.111   3.048   1.965
  168HOH     H1  691   3.038   3.079   2.020
  168HOH     H2  692   3.068   3.008   1.890
  169HOH      O  693   2.608   3.833   2.659
  169HOH     H1  694   2.569   3.887   2.728
  169HOH     H2  695   2.701   3.831   2.679
  170HOH      O  696   0.692   2.853   0.341
  170HOH     H1  697   0.674   2.793   0.414
  170HOH     H2  698   0.783   2.879   0.353
  171HOH      O  699   2.434   2.708   2.597
  171HOH     H1  700   2.405   2.691   2.687
  171HOH     H2  701   2.442   2.804   2.592
  172HOH      O  702   2.195   1.717   1.452
  172HOH     H1  703   2.285   1.735   1.478
  172HOH     H2  704   2.182   1.624   1.472
  173HOH      O  705   2.168   1.890   3.749
  173HOH     H1  706   2.168   1.810   3.801
  173HOH     H2  707   2.083   1.930   3.766
  174HOH      O  708   1.918   2.000   0.170
  174HOH     H1  709   1.928   2.080   0.221
  174HOH     H2  710   2.004   1.986   0.129
  175HOH      O  711   2.568   0.065   0.437
  175HOH     H1  712   2.523  -0.015   0.410
  175HOH     H2  713   2.500   0.120   0.475
  176HOH      O  714   0.032   1.548   3.719
  176HOH     H1  715   0.117   1.539   3.762
  176HOH     H2  716  -0.021   1.477   3.755
  177HOH      O  717   2.385   0.692   1.583
  177HOH     H1  718   2.337   0.753   1.639
  177HOH     H2  719   2.390   0.612   1.635
  178HOH      O  720   3.872   0.899   1.660
  178HOH     H1  721   3.896   0.990   1.639
  178HOH     H2  722   3.852   0.860   1.574
  179HOH      O  723   2.207   3.794   2.148
  179HOH     H1  724   2.234   3.817   2.060
  179HOH     H2  725   2.138   3.728   2.136
  180HOH      O  726   1.620   2.840   1.912
  180HOH     H1  727   1.576   2.925   1.916
  180HOH     H2  728   1.632   2.815   2.004
  181HOH      O  729   1.867   3.526   0.129
  181HOH     H1  730   1.811   3.455   0.160
  181HOH     H2  731   1.934   3.536   0.197
  182HOH      O  732   3.297   1.244   3.284
  182HOH     H1  733   3.300   1.215   3.193
  182HOH     H2  734   3.371   1.199   3.326
  183HOH      O  735   0.964   1.162   3.410
  183HOH     H1  736   1.021   1.122   3.476
  183HOH     H2  737   1.018   1.228   3.368
  184HOH      O  738   2.801   1.054   3.295
  184HOH     H1  739   2.789   1.142   3.330
  184HOH     H2  740   2.854   1.009   3.360
  185HOH      O  741   3.352   1.816   0.764
  185HOH     H1  742   3.263   1.790   0.786
  185HOH     H2  743   3.356   1.810   0.668
  186HOH      O  744   1.556   0.729   1.055
  186HOH     H1  745   1.598   0.813   1.040
  186HOH     H2  746   1.620   0.664   1.027
  187HOH      O  747   3.640   3.266   3.249
  187HOH     H1  748   3.571   3.323   3.216
  187HOH     H2  749   3.676   3.313   3.324
  188HOH      O  750   1.221   2.896   2.738
  188HOH     H1  751   1.303   2.864   2.699
  188HOH     H2  752   1.247   2.929   2.824
  189HOH      O  753   0.205   3.331   0.696
  189HOH     H1  754   0.134   3.329   0.760
  189HOH     H2  755   0.230   3.239   0.685
  190HOH      O  756   2.465   1.287   2.850
  190HOH     H1  757   2.529   1.355   2.871
  190HOH     H2  758   2.517   1.207   2.844
  191HOH      O  759   2.922   1.196   1.079
  191HOH     H1  760   2.999   1.253   1.078
  191HOH     H2  761   2.861   1.240   1.139
  192HOH      O  762   3.821   2.070   3.626
  192HOH     H1  763   3.816   1.990   3.678
  192HOH     H2  764   3.736   2.077   3.584
  193HOH      O  765   0.797   3.317   0.141
  193HOH     H1  766   0.702   3.311   0.148
  193HOH     H2  767   0.813   3.401   0.099
  194HOH      O  768   0.839   3.909   0.571
  194HOH     H1  769   0.888   3.844   0.622
  194HOH     H2  770   0.777   3.857   0.519
  195HOH      O  771   1.097   2.010   3.358
  195HOH     H1  772   1.006   2.031   3.334
  195HOH     H2  773   1.134   2.094   3.384
  196HOH      O  774   0.341   2.639   1.238
  196HOH     H1  775   0.427   2.619   1.202
  196HOH     H2  776   0.329   2.733   1.221
  197HOH      O  777   0.888   0.176   0.102
  197HOH     H1  778   0.813   0.234   0.090
  197HOH     H2  779   0.864   0.096   0.057
  198HOH      O  780   3.239   1.592   0.948
  198HOH     H1  781   3.245   1.523   0.883
  198HOH     H2  782   3.307   1.655   0.924
  199HOH      O  783   0.045   2.646   0.456
  199HOH     H1  784  -0.002   2.571   0.420
  199HOH     H2  785   0.081   2.614   0.539
  200HOH      O  786   1.351   3.374   3.915
  200HOH     H1  787   1.351   3.456   3.963
  200HOH     H2  788   1.350   3.306   3.983
  201HOH      O  789   1.656   2.673   3.263
  201HOH     H1  790   1.735   2.697   3.312
  201HOH     H2  791   1.685   2.600   3.208
  202HOH      O  792   1.181   3.549   1.872
  202HOH     H1  793   1.205   3.497   1.795
  202HOH     H2  794   1.207   3.638   1.850
  203HOH      O  795   3.802   3.805   1.795
  203HOH     H1  796   3.725   3.845   1.835
  203HOH     H2  797   3.783   3.804   1.701
  204HOH      O  798   3.608   1.004   1.776
  204HOH     H1  799   3.670   0.973   1.710
  204HOH     H2  800   3.541   0.936   1.781
  205HOH      O  801   3.687   3.172   0.477
  205HOH     H1  802   3.636   3.123   0.542
  205HOH     H2  803   3.778   3.151   0.498
  206HOH      O  804   0.321   3.912   2.007
  206HOH     H1  805   0.237   3.937   2.046
  206HOH     H2  806   0.358   3.849   2.069
  207HOH      O  807   3.081   0.190   1.587
  207HOH     H1  808   3.022   0.124   1.551
  207HOH     H2  809   3.034   0.272   1.577
  208HOH      O  810   3.824   0.453   0.157
  208HOH     H1  811   3.860   0.416   0.237
  208HOH     H2  812   3.901   0.471   0.102
  209HOH      O  813   1.266   3.767   0.832
  209HOH     H1  814   1.291   3.818   0.755
  209HOH     H2  815   1.176   3.794   0.850
  210HOH      O  816   1.238   1.797   3.269
  210HOH     H1  817   1.213   1.883   3.302
  210HOH     H2  818   1.308   1.768   3.327
  211HOH      O  819   1.890   3.489   3.847
  211HOH     H1  820   1.889   3.512   3.940
  211HOH     H2  821   1.802   3.456   3.829
  212HOH      O  822   2.778   1.373   0.225
  212HOH     H1  823   2.724   1.295   0.214
  212HOH     H2  824   2.774   1.392   0.319
  213HOH      O  825   1.580   2.182   0.301
  213HOH     H1  826   1.602   2.263   0.255
  213HOH     H2  827   1.537   2.212   0.381
  214HOH      O  828   3.348   3.684   0.677
  214HOH     H1  829   3.443   3.689   0.673
  214HOH     H2  830   3.328   3.592   0.659
  215HOH      O  831   2.369   0.920   3.618
  215HOH     H1  832   2.331   0.832   3.615
  215HOH     H2  833   2.461   0.906   3.596
  216HOH      O  834   3.821   3.923   4.021
  216HOH     H1  835   3.843   3.830   4.030
  216HOH     H2  836   3.896   3.969   4.058
  217HOH      O  837   1.532   0.573   2.198
  217HOH     H1  838   1.501   0.491   2.235
  217HOH     H2  839   1.462   0.599   2.137
  218HOH      O  840   0.128   0.292   0.046
  218HOH     H1  841   0.212   0.292   0.092
  218HOH     H2  842   0.100   0.384   0.048
  219HOH      O  843   0.271   3.007   0.278
  219HOH     H1  844   0.357   2.984   0.244
  219HOH     H2  845   0.288   3.066   0.351
  220HOH      O  846   3.578   2.187   2.147
  220HOH     H1  847   3.599   2.195   2.054
  220HOH     H2  848   3.647   2.131   2.182
  221HOH      O  849   3.449   2.632   1.372
  221HOH     H1  850   3.420   2.619   1.281
  221HOH     H2  851   3.507   2.559   1.389
  222HOH      O  852   0.079   3.932   0.630
  222HOH     H1  853   0.147   3.950   0.565
  222HOH     H2  854   0.044   3.847   0.604
  223HOH      O  855   2.215   1.042   1.401
  223HOH     H1  856   2.217   1.052   1.306
  223HOH     H2  857   2.173   0.958   1.416
  224HOH      O  858   2.616   0.827   0.820
  224HOH     H1  859   2.687   0.874   0.863
  224HOH     H2  860   2.651   0.738   0.808
  225HOH      O  861   1.599   1.178   2.605
  225HOH     H1  862   1.613   1.130   2.524
  225HOH     H2  863   1.505   1.169   2.622
  226HOH      O  864   1.174   0.912   1.689
  226HOH     H1  865   1.104   0.891   1.627
  226HOH     H2  866   1.151   0.999   1.723
  227HOH      O  867   2.392   2.017   3.638
  227HOH     H1  868   2.314   1.976   3.677
  227HOH     H2  869   2.463   1.957   3.659
  228HOH      O  870   1.588   0.620   3.918
  228HOH     H1  871   1.683   0.622   3.908
  228HOH     H2  872   1.573   0.646   4.008
  229HOH      O  873   1.751   3.849   1.130
  229HOH     H1  874   1.826   3.905   1.111
  229HOH     H2  875   1.772   3.766   1.087
  230HOH      O  876   0.254   2.375   0.386
  230HOH     H1  877   0.225   2.463   0.364
  230HOH     H2  878   0.210   2.354   0.468
  231HOH      O  879   0.095   0.450   0.323
  231HOH     H1  880   0.081   0.516   0.391
  231HOH     H2  881   0.091   0.499   0.241
  232HOH      O  882   0.377   0.385   0.015
  232HOH     H1  883   0.418   0.355   0.096
  232HOH     H2  884   0.376   0.480   0.022
  233HOH      O  885   2.433   2.788   1.310
  233HOH     H1  886   2.501   2.796   1.377
  233HOH     H2  887   2.369   2.728   1.348
  234HOH      O  888   2.027   2.510   3.595
  234HOH     H1  889   1.980   2.494   3.677
  234HOH     H2  890   2.063   2.424   3.571
  235HOH      O  891   1.247   2.402   1.669
  235HOH     H1  892   1.194   2.415   1.747
  235HOH     H2  893   1.311   2.335   1.694
  236HOH      O  894   0.618   3.353   3.840
  236HOH     H1  895   0.577   3.267   3.827
  236HOH     H2  896   0.571   3.391   3.913
  237HOH      O  897   0.113   0.277   0.650
  237HOH     H1  898   0.198   0.243   0.620
  237HOH     H2  899   0.136   0.339   0.719
  238HOH      O  900   2.621   0.551   0.780
  238HOH     H1  901   2.593   0.551   0.871
  238HOH     H2  902   2.540   0.542   0.730
  239HOH      O  903   2.525   3.568   2.835
  239HOH     H1  904   2.461   3.608   2.893
  239HOH     H2  905   2.498   3.596   2.747
  240HOH      O  906   0.648   2.435   1.889
  240HOH     H1  907   0.627   2.479   1.806
  240HOH     H2  908   0.630   2.342   1.872
  241HOH      O  909   2.134   0.687   0.286
  241HOH     H1  910   2.129   0.600   0.247
  241HOH     H2  911   2.104   0.746   0.216
  242HOH      O  912   2.850   2.169   1.503
  242HOH     H1  913   2.807   2.236   1.451
  242HOH     H2  914   2.803   2.168   1.586
  243HOH      O  915   3.446   0.232   0.553
  243HOH     H1  916   3.364   0.183   0.553
  243HOH     H2  917   3.435   0.297   0.623
  244HOH      O  918   2.180   2.808   3.620
  244HOH     H1  919   2.166   2.753   3.543
  244HOH     H2  920   2.102   2.793   3.674
  245HOH      O  921   1.272   0.823   3.821
  245HOH     H1  922   1.283   0.731   3.798
  245HOH     H2  923   1.178   0.840   3.809
  246HOH      O  924   2.213   0.192   2.196
  246HOH     H1  925   2.301   0.200   2.230
  246HOH     H2  926   2.161   0.255   2.246
  247HOH      O  927   3.207   3.763   2.034
  247HOH     H1  928   3.252   3.785   1.953
  247HOH     H2  929   3.246   3.820   2.100
  248HOH      O  930   2.442   1.294   2.235
  248HOH     H1  931   2.436   1.389   2.234
  248HOH     H2  932   2.359   1.265   2.273
  249HOH      O  933   3.363   3.865   3.741
  249HOH     H1  934   3.345   3.771   3.746
  249HOH     H2  935   3.430   3.881   3.807
  250HOH      O  936   1.757   0.566   3.032
  250HOH     H1  937   1.747   0.656   3.000
  250HOH     H2  938   1.777   0.515   2.954
  251HOH      O  939   1.995   2.348   2.690
  251HOH     H1  940   2.005   2.270   2.636
  251HOH     H2  941   1.961   2.316   2.773
  252HOH      O  942   0.165   2.215   0.189
  252HOH     H1  943   0.221   2.212   0.112
  252HOH     H2  944   0.204   2.282   0.246
  253HOH      O  945   3.891   0.679   2.544
  253HOH     H1  946   3.975   0.683   2.498
  253HOH     H2  947   3.895   0.598   2.595
  254HOH      O  948   2.010   2.112   3.864
  254HOH     H1  949   1.942   2.126   3.930
  254HOH     H2  950   2.089   2.150   3.902
  255HOH      O  951   2.964   2.622   0.176
  255HOH     H1  952   2.920   2.551   0.129
  255HOH     H2  953   3.057   2.598   0.174
  256HOH      O  954   0.816   2.618   2.023
  256HOH     H1  955   0.887   2.553   2.029
  256HOH     H2  956   0.745   2.572   1.979
  257HOH      O  957   2.761   1.467   0.487
  257HOH     H1  958   2.784   1.460   0.579
  257HOH     H2  959   2.676   1.511   0.486
  258HOH      O  960   0.144   2.306   1.722
  258HOH     H1  961   0.162   2.243   1.791
  258HOH     H2  962   0.196   2.276   1.647
  259HOH      O  963   2.225   3.845   3.141
  259HOH     H1  964   2.135   3.814   3.130
  259HOH     H2  965   2.238   3.848   3.236
  260HOH      O  966   1.986   2.876   0.080
  260HOH     H1  967   2.026   2.961   0.063
  260HOH     H2  968   1.905   2.896   0.127
  261HOH      O  969   0.756   2.454   2.767
  261HOH     H1  970   0.749   2.534   2.819
  261HOH     H2  971   0.751   2.484   2.676
  262HOH      O  972   1.556   3.009   0.049
  262HOH     H1  973   1.571   2.922   0.086
  262HOH     H2  974   1.465   3.029   0.073
  263HOH      O  975   0.653   1.792   3.371
  263HOH     H1  976   0.745   1.817   3.382
  263HOH     H2  977   0.610   1.820   3.452
  264HOH      O  978   2.634   1.075   2.789
  264HOH     H1  979   2.702   1.038   2.846
  264HOH     H2  980   2.659   1.046   2.701
  265HOH      O  981   3.497   2.481   3.787
  265HOH     H1  982   3.404   2.503   3.794
  265HOH     H2  983   3.498   2.398   3.740
  266HOH      O  984   0.449   1.681   2.007
  266HOH     H1  985   0.374   1.729   1.972
  266HOH     H2  986   0.478   1.626   1.934
  267HOH      O  987   2.556   3.237   0.469
  267HOH     H1  988   2.504   3.250   0.390
  267HOH     H2  989   2.610   3.161   0.450
  268HOH      O  990   0.761   3.887   0.277
  268HOH     H1  991   0.781   3.883   0.183
  268HOH     H2  992   0.747   3.980   0.295
  269HOH      O  993   1.950   0.142   2.092
  269HOH     H1  994   1.914   0.143   2.181
  269HOH     H2  995   2.041   0.116   2.103
  270HOH      O  996   2.409   1.457   2.638
  270HOH     H1  997   2.404   1.399   2.562
  270HOH     H2  998   2.420   1.399   2.712
  271HOH      O  999   3.581   0.488   2.603
  271HOH     H1 1000   3.512   0.425   2.622
  271HOH     H2 1001   3.649   0.468   2.667
  272HOH      O 1002   2.878   2.176   0.547
  272HOH     H1 1003   2.783   2.170   0.541
  272HOH     H2 1004   2.901   2.249   0.490
  273HOH      O 1005   0.263   0.654   2.644
  273HOH     H1 1006   0.227   0.693   2.724
  273HOH     H2 1007   0.186   0.637   2.589
  274HOH      O 1008   3.644   0.622   1.754
  274HOH     H1 1009   3.605   0.543   1.718
  274HOH     H2 1010   3.571   0.684   1.764
  275HOH      O 1011   0.972   0.264   0.650
  275HOH     H1 1012   1.054   0.308   0.675
  275HOH     H2 1013   0.910   0.335   0.635
  276HOH      O 1014   2.859   3.376   3.076
  276HOH     H1 1015   2.830   3.467   3.076
  276HOH     H2 1016   2.865   3.352   2.983
  277HOH      O 1017   2.226   0.829   1.767
  277HOH     H1 1018   2.163   0.760   1.749
  277HOH     H2 1019   2.174   0.909   1.773
  278HOH      O 1020   1.771   1.633   2.792
  278HOH     H1 1021   1.704   1.567   2.808
  278HOH     H2 1022   1.753   1.665   2.703
  279HOH      O 1023   1.966   2.329   2.219
  279HOH     H1 1024   1.937   2.238   2.209
  279HOH     H2 1025   1.884   2.378   2.226
  280HOH      O 1026   1.401   2.691   1.812
  280HOH     H1 1027   1.471   2.736   1.859
  280HOH     H2 1028   1.433   2.602   1.800
  281HOH      O 1029   0.142   1.568   1.048
  281HOH     H1 1030   0.059   1.566   1.095
  281HOH     H2 1031   0.120   1.599   0.960
  282HOH      O 1032   1.214   3.546   1.295
  282HOH     H1 1033   1.129   3.587   1.281
  282HOH     H2 1034   1.246   3.525   1.207
  283HOH      O 1035   3.319   0.815   4.020
  283HOH     H1 1036   3.269   0.809   4.101
  283HOH     H2 1037   3.343   0.725   4.000
  284HOH      O 1038   1.938   3.851   3.443
  284HOH     H1 1039   2.024   3.810   3.441
  284HOH     H2 1040   1.878   3.784   3.412
  285HOH      O 1041   0.860   0.988   3.210
  285HOH     H1 1042   0.838   1.068   3.162
  285HOH     H2 1043   0.874   1.018   3.300
  286HOH      O 1044   2.174   3.535   0.290
  286HOH     H1 1045   2.205   3.466   0.348
  286HOH     H2 1046   2.181   3.498   0.202
  287HOH      O 1047   2.106   3.288   2.088
  287HOH     H1 1048   2.108   3.384   2.084
  287HOH     H2 1049   2.067   3.269   2.173
  288HOH      O 1050   2.392   0.226   1.596
  288HOH     H1 1051   2.451   0.154   1.575
  288HOH     H2 1052   2.387   0.278   1.515
  289HOH      O 1053   0.563   2.250   1.525
  289HOH     H1 1054   0.605   2.251   1.611
  289HOH     H2 1055   0.473   2.278   1.542
  290HOH      O 1056   1.367   0.190   2.035
  290HOH     H1 1057   1.451   0.156   2.065
  290HOH     H2 1058   1.365   0.169   1.941
  291HOH      O 1059   1.773   1.610   1.928
  291HOH     H1 1060   1.736   1.660   1.855
  291HOH     H2 1061   1.844   1.665   1.961
  292HOH      O 1062   3.991   0.838   3.373
  292HOH     H1 1063   4.032   0.762   3.332
  292HOH     H2 1064   4.033   0.914   3.333
  293HOH      O 1065   3.750   1.592   0.208
  293HOH     H1 1066   3.792   1.651   0.271
  293HOH     H2 1067   3.819   1.568   0.147
  294HOH      O 1068   3.188   3.849   2.855
  294HOH     H1 1069   3.127   3.874   2.925
  294HOH     H2 1070   3.228   3.768   2.886
  295HOH      O 1071   3.915   3.570   2.634
  295HOH     H1 1072   3.901   3.485   2.676
  295HOH     H2 1073   3.893   3.633   2.702
  296HOH      O 1074   1.550   0.486   2.775
  296HOH     H1 1075   1.564   0.567   2.726
  296HOH     H2 1076   1.638   0.449   2.784
  297HOH      O 1077   0.366   2.110   2.442
  297HOH     H1 1078   0.423   2.183   2.464
  297HOH     H2 1079   0.375   2.049   2.515
  298HOH      O 1080   3.257   1.457   1.197
  298HOH     H1 1081   3.331   1.398   1.184
  298HOH     H2 1082   3.248   1.503   1.114
  299HOH      O 1083   1.143   0.215   1.525
  299HOH     H1 1084   1.170   0.249   1.610
  299HOH     H2 1085   1.090   0.138   1.547
  300HOH      O 1086   1.249   2.089   2.633
  300HOH     H1 1087   1.211   2.015   2.680
  300HOH     H2 1088   1.183   2.158   2.639
  301HOH      O 1089   3.538   0.192   0.938
  301HOH     H1 1090   3.597   0.120   0.959
  301HOH     H2 1091   3.585   0.243   0.872
  302HOH      O 1092   1.869   3.317   0.596
  302HOH     H1 1093   1.787   3.352   0.631
  302HOH     H2 1094   1.881   3.234   0.641
  303HOH      O 1095   2.580   1.627   0.164
  303HOH     H1 1096   2.641   1.561   0.129
  303HOH     H2 1097   2.510   1.576   0.204
  304HOH      O 1098   0.688   2.649   0.539
  304HOH     H1 1099   0.744   2.571   0.543
  304HOH     H2 1100   0.599   2.616   0.543
  305HOH      O 1101   2.673   3.193   3.135
  305HOH     H1 1102   2.718   3.115   3.104
  305HOH     H2 1103   2.743   3.256   3.153
  306HOH      O 1104   1.389   2.159   0.103
  306HOH     H1 1105   1.443   2.140   0.180
  306HOH     H2 1106   1.301   2.173   0.139
  307HOH      O 1107   1.266   3.925   3.518
  307HOH     H1 1108   1.313   4.004   3.489
  307HOH     H2 1109   1.196   3.915   3.454
  308HOH      O 1110   0.259   1.840   2.361
  308HOH     H1 1111   0.339   1.787   2.359
  308HOH     H2 1112   0.281   1.913   2.420
  309HOH      O 1113   3.037   3.304   3.351
  309HOH     H1 1114   3.002   3.243   3.416
  309HOH     H2 1115   2.962   3.355   3.322
  310HOH      O 1116   2.789   2.082   3.781
  310HOH     H1 1117   2.871   2.106   3.824
  310HOH     H2 1118   2.812   2.076   3.688
  311HOH      O 1119   3.195   2.761   3.710
  311HOH     H1 1120   3.210   2.680   3.758
  311HOH     H2 1121   3.203   2.830   3.776
  312HOH      O 1122   0.718   3.247   0.467
  312HOH     H1 1123   0.759   3.196   0.397
  312HOH     H2 1124   0.755   3.211   0.548
  313HOH      O 1125   0.702   0.300   2.174
  313HOH     H1 1126   0.724   0.211   2.201
  313HOH     H2 1127   0.623   0.321   2.226
  314HOH      O 1128   0.895   0.331   3.210
  314HOH     H1 1129   0.812   0.339   3.257
  314HOH     H2 1130   0.877   0.268   3.140
  315HOH      O 1131   3.892   3.733   1.508
  315HOH     H1 1132   3.972   3.771   1.544
  315HOH     H2 1133   3.917   3.698   1.423
  316HOH      O 1134   2.142   1.701   1.885
  316HOH     H1 1135   2.211   1.766   1.902
  316HOH     H2 1136   2.065   1.736   1.931
  317HOH      O 1137   1.670   2.919   2.190
  317HOH     H1 1138   1.673   3.014   2.202
  317HOH     H2 1139   1.761   2.894   2.174
  318HOH      O 1140   3.145   0.024   2.429
  318HOH     H1 1141   3.124   0.041   2.337
  318HOH     H2 1142   3.156   0.111   2.468
  319HOH      O 1143   1.873   3.743   0.737
  319HOH     H1 1144   1.878   3.791   0.654
  319HOH     H2 1145   1.807   3.791   0.788
  320HOH      O 1146   0.258   1.432   2.122
  320HOH     H1 1147   0.336   1.474   2.087
  320HOH     H2 1148   0.265   1.340   2.094
  321HOH      O 1149   3.190   0.749   0.583
  321HOH     H1 1150   3.190   0.662   0.623
  321HOH     H2 1151   3.099   0.778   0.587
  322HOH      O 1152   1.893   2.308   1.433
  322HOH     H1 1153   1.866   2.280   1.345
  322HOH     H2 1154   1.854   2.395   1.444
  323HOH      O 1155   0.471   1.056   3.585
  323HOH     H1 1156   0.470   1.062   3.681
  323HOH     H2 1157   0.382   1.080   3.559
  324HOH      O 1158   3.790   0.796   0.658
  324HOH     H1 1159   3.857   0.862   0.674
  324HOH     H2 1160   3.819   0.751   0.579
  325HOH      O 1161   3.347   0.339   1.731
  325HOH     H1 1162   3.441   0.321   1.726
  325HOH     H2 1163   3.307   0.279   1.669
  326HOH      O 1164   3.849   1.807   3.731
  326HOH     H1 1165   3.912   1.815   3.803
  326HOH     H2 1166   3.900   1.771   3.658
  327HOH      O 1167   0.310   1.356   1.052
  327HOH     H1 1168   0.377   1.367   1.120
  327HOH     H2 1169   0.257   1.435   1.059
  328HOH      O 1170   1.302   2.124   1.715
  328HOH     H1 1171   1.378   2.131   1.658
  328HOH     H2 1172   1.255   2.046   1.684
  329HOH      O 1173   2.834   1.344   2.743
  329HOH     H1 1174   2.855   1.281   2.674
  329HOH     H2 1175   2.904   1.409   2.738
  330HOH      O 1176   2.584   0.131   0.133
  330HOH     H1 1177   2.578   0.077   0.212
  330HOH     H2 1178   2.607   0.218   0.165
  331HOH      O 1179   3.407   2.041   1.661
  331HOH     H1 1180   3.471   2.048   1.590
  331HOH     H2 1181   3.329   2.003   1.620
  332HOH      O 1182   1.573   0.827   2.296
  332HOH     H1 1183   1.609   0.746   2.261
  332HOH     H2 1184   1.478   0.815   2.293
  333HOH      O 1185   0.770   0.831   1.351
  333HOH     H1 1186   0.695   0.780   1.381
  333HOH     H2 1187   0.733   0.891   1.286
  334HOH      O 1188   0.974   0.089   0.458
  334HOH     H1 1189   0.969   0.158   0.524
  334HOH     H2 1190   0.913   0.022   0.488
  335HOH      O 1191   2.813   0.571   0.575
  335HOH     H1 1192   2.753   0.549   0.647
  335HOH     H2 1193   2.794   0.506   0.508
  336HOH      O 1194   0.749   2.967   0.007
  336HOH     H1 1195   0.736   2.975  -0.088
  336HOH     H2 1196   0.795   2.884   0.018
  337HOH      O 1197   3.162   0.002   0.724
  337HOH     H1 1198   3.177   0.033   0.634
  337HOH     H2 1199   3.068   0.014   0.738
  338HOH      O 1200   3.896   3.282   2.675
  338HOH     H1 1201   3.920   3.278   2.768
  338HOH     H2 1202   3.925   3.198   2.639
  339HOH      O 1203   2.242   3.916   1.878
  339HOH     H1 1204   2.261   4.009   1.886
  339HOH     H2 1205   2.160   3.913   1.829
  340HOH      O 1206   2.390   0.574   2.328
  340HOH     H1 1207   2.323   0.555   2.262
  340HOH     H2 1208   2.468   0.597   2.277
  341HOH      O 1209   2.556   2.453   0.082
  341HOH     H1 1210   2.514   2.385   0.030
  341HOH     H2 1211   2.532   2.433   0.172
  342HOH      O 1212   2.638   0.667   2.196
  342HOH     H1 1213   2.657   0.760   2.189
  342HOH     H2 1214   2.705   0.633   2.256
  343HOH      O 1215   0.287   3.402   2.165
  343HOH     H1 1216   0.340   3.340   2.116
  343HOH     H2 1217   0.337   3.417   2.246
  344HOH      O 1218   1.193   3.312   0.577
  344HOH     H1 1219   1.214   3.283   0.488
  344HOH     H2 1220   1.273   3.356   0.607
  345HOH      O 1221   3.960   0.805   0.141
  345HOH     H1 1222   3.991   0.834   0.227
  345HOH     H2 1223   3.864   0.805   0.148
  346HOH      O 1224   3.134   2.174   0.629
  346HOH     H1 1225   3.049   2.163   0.587
  346HOH     H2 1226   3.132   2.115   0.704
  347HOH      O 1227   2.462   3.301   1.621
  347HOH     H1 1228   2.439   3.349   1.542
  347HOH     H2 1229   2.554   3.276   1.607
  348HOH      O 1230   2.400   0.500   1.067
  348HOH     H1 1231   2.374   0.591   1.052
  348HOH     H2 1232   2.317   0.454   1.080
  349HOH      O 1233   1.012   3.830   3.370
  349HOH     H1 1234   1.017   3.797   3.460
  349HOH     H2 1235   0.929   3.879   3.367
  350HOH      O 1236   0.328   3.430   2.675
  350HOH     H1 1237   0.258   3.436   2.611
  350HOH     H2 1238   0.285   3.399   2.755
  351HOH      O 1239   0.691   2.219   3.101
  351HOH     H1 1240   0.677   2.244   3.010
  351HOH     H2 1241   0.603   2.222   3.140
  352HOH      O 1242   1.825   3.837   2.429
  352HOH     H1 1243   1.915   3.867   2.411
  352HOH     H2 1244   1.822   3.827   2.524
  353HOH      O 1245   2.201   3.763   4.008
  353HOH     H1 1246   2.128   3.732   3.954
  353HOH     H2 1247   2.218   3.852   3.975
  354HOH      O 1248   0.900   0.909   2.553
  354HOH     H1 1249   0.887   0.999   2.586
  354HOH     H2 1250   0.885   0.854   2.630
  355HOH      O 1251   1.739   0.625   0.663
  355HOH     H1 1252   1.648   0.610   0.640
  355HOH     H2 1253   1.741   0.713   0.700
  356HOH      O 1254   1.672   3.807   0.234
  356HOH     H1 1255   1.716   3.841   0.155
  356HOH     H2 1256   1.718   3.726   0.254
  357HOH      O 1257   2.642   3.728   3.520
  357HOH     H1 1258   2.570   3.682   3.477
  357HOH     H2 1259   2.604   3.763   3.601
  358HOH      O 1260   3.316   0.333   3.323
  358HOH     H1 1261   3.304   0.336   3.418
  358HOH     H2 1262   3.408   0.310   3.311
  359HOH      O 1263   2.152   0.702   0.757
  359HOH     H1 1264   2.121   0.793   0.759
  359HOH     H2 1265   2.247   0.709   0.765
  360HOH      O 1266   0.148   2.521   0.149
  360HOH     H1 1267   0.093   2.527   0.070
  360HOH     H2 1268   0.222   2.468   0.122
  361HOH      O 1269   1.457   2.561   0.705
  361HOH     H1 1270   1.551   2.558   0.689
  361HOH     H2 1271   1.427   2.471   0.687
  362HOH      O 1272   1.209   0.381   0.714
  362HOH     H1 1273   1.267   0.305   0.706
  362HOH     H2 1274   1.264   0.456   0.693
  363HOH      O 1275   3.986   0.970   0.395
  363HOH     H1 1276   4.001   0.978   0.490
  363HOH     H2 1277   3.963   1.058   0.367
  364HOH      O 1278   0.519   3.821   0.550
  364HOH     H1 1279   0.555   3.817   0.639
  364HOH     H2 1280   0.520   3.914   0.528
  365HOH      O 1281   3.950   3.083   0.547
  365HOH     H1 1282   3.983   3.011   0.492
  365HOH     H2 1283   3.993   3.070   0.631
  366HOH      O 1284   1.526   1.936   2.666
  366HOH     H1 1285   1.526   2.032   2.663
  366HOH     H2 1286   1.472   1.910   2.591
  367HOH      O 1287   2.592   2.512   2.869
  367HOH     H1 1288   2.507   2.552   2.849
  367HOH     H2 1289   2.634   2.573   2.930
  368HOH      O 1290   0.009   1.296   2.836
  368HOH     H1 1291   0.018   1.369   2.775
  368HOH     H2 1292  -0.069   1.318   2.887
  369HOH      O 1293   2.681   0.657   1.060
  369HOH     H1 1294   2.755   0.707   1.094
  369HOH     H2 1295   2.625   0.642   1.136
  370HOH      O 1296   2.378   2.671   2.890
  370HOH     H1 1297   2.339   2.743   2.939
  370HOH     H2 1298   2.306   2.607   2.881
  371HOH      O 1299   1.354   1.970   2.085
  371HOH     H1 1300   1.318   1.926   2.162
  371HOH     H2 1301   1.308   2.054   2.082
  372HOH      O 1302   1.494   1.468   2.525
  372HOH     H1 1303   1.573   1.452   2.473
  372HOH     H2 1304   1.521   1.449   2.615
  373HOH      O 1305   0.267   1.449   3.374
  373HOH     H1 1306   0.325   1.455   3.450
  373HOH     H2 1307   0.247   1.539   3.351
  374HOH      O 1308   2.372   0.065   1.090
  374HOH     H1 1309   2.300   0.091   1.148
  374HOH     H2 1310   2.448   0.110   1.125
  375HOH      O 1311   2.017   1.117   3.553
  375HOH     H1 1312   1.946   1.169   3.590
  375HOH     H2 1313   2.001   1.028   3.585
  376HOH      O 1314   0.133   0.950   3.996
  376HOH     H1 1315   0.191   1.015   4.034
  376HOH     H2 1316   0.078   0.920   4.068
  377HOH      O 1317   3.395   1.694   2.841
  377HOH     H1 1318   3.475   1.652   2.873
  377HOH     H2 1319   3.420   1.730   2.755
  378HOH      O 1320   3.227   2.074   0.872
  378HOH     H1 1321   3.312   2.096   0.833
  378HOH     H2 1322   3.242   2.081   0.966
  379HOH      O 1323   3.690   0.045   0.233
  379HOH     H1 1324   3.725   0.034   0.145
  379HOH     H2 1325   3.674  -0.044   0.263
  380HOH      O 1326   0.858   0.740   3.704
  380HOH     H1 1327   0.802   0.810   3.671
  380HOH     H2 1328   0.916   0.783   3.767
  381HOH      O 1329   1.900   3.210   1.673
  381HOH     H1 1330   1.894   3.153   1.750
  381HOH     H2 1331   1.877   3.154   1.599
  382HOH      O 1332   1.142   3.958   2.224
  382HOH     H1 1333   1.179   3.872   2.243
  382HOH     H2 1334   1.166   3.975   2.133
  383HOH      O 1335   1.429   1.562   1.639
  383HOH     H1 1336   1.433   1.563   1.735
  383HOH     H2 1337   1.466   1.477   1.615
  384HOH      O 1338   2.169   1.328   3.204
  384HOH     H1 1339   2.170   1.338   3.108
  384HOH     H2 1340   2.256   1.357   3.231
  385HOH      O 1341   2.419   3.603   0.043
  385HOH     H1 1342   2.347   3.657   0.011
  385HOH     H2 1343   2.379   3.519   0.063
  386HOH      O 1344   2.980   0.007   2.171
  386HOH     H1 1345   2.977  -0.089   2.178
  386HOH     H2 1346   2.930   0.026   2.092
  387HOH      O 1347   0.657   2.566   3.803
  387HOH     H1 1348   0.653   2.618   3.723
  387HOH     H2 1349   0.631   2.627   3.872
  388HOH      O 1350   0.630   2.910   2.008
  388HOH     H1 1351   0.627   2.873   1.920
  388HOH     H2 1352   0.556   2.868   2.053
  389HOH      O 1353   2.139   1.269   3.906
  389HOH     H1 1354   2.154   1.197   3.845
  389HOH     H2 1355   2.150   1.229   3.993
  390HOH      O 1356   3.200   0.157   2.937
  390HOH     H1 1357   3.295   0.167   2.945
  390HOH     H2 1358   3.170   0.139   3.026
  391HOH      O 1359   3.752   0.482   3.192
  391HOH     H1 1360   3.724   0.546   3.127
  391HOH     H2 1361   3.843   0.464   3.171
  392HOH      O 1362   0.008   0.053   1.655
  392HOH     H1 1363   0.007  -0.005   1.731
  392HOH     H2 1364   0.081   0.021   1.602
  393HOH      O 1365   0.674   1.236   3.359
  393HOH     H1 1366   0.633   1.303   3.413
  393HOH     H2 1367   0.750   1.207   3.410
  394HOH      O 1368   0.620   3.162   2.766
  394HOH     H1 1369   0.600   3.068   2.763
  394HOH     H2 1370   0.699   3.168   2.819
  395HOH      O 1371   2.922   1.775   2.668
  395HOH     H1 1372   2.865   1.756   2.742
  395HOH     H2 1373   2.920   1.870   2.659
  396HOH      O 1374   3.396   1.757   0.212
  396HOH     H1 1375   3.355   1.792   0.133
  396HOH     H2 1376   3.421   1.668   0.188
  397HOH      O 1377   4.022   2.499   0.995
  397HOH     H1 1378   4.020   2.591   0.972
  397HOH     H2 1379   3.952   2.459   0.943
  398HOH      O 1380   3.100   2.625   1.475
  398HOH     H1 1381   3.128   2.615   1.566
  398HOH     H2 1382   3.126   2.543   1.433
  399HOH      O 1383   0.939   1.835   1.834
  399HOH     H1 1384   0.872   1.830   1.765
  399HOH     H2 1385   0.957   1.743   1.855
  400HOH      O 1386   1.987   3.580   1.202
  400HOH     H1 1387   2.062   3.638   1.185
  400HOH     H2 1388   2.025   3.502   1.242
  401HOH      O 1389   1.806   3.297   2.043
  401HOH     H1 1390   1.755   3.338   1.973
  401HOH     H2 1391   1.896   3.297   2.011
  402HOH      O 1392   0.533   2.561   3.019
  402HOH     H1 1393   0.502   2.505   2.947
  402HOH     H2 1394   0.455   2.603   3.053
  403HOH      O 1395   3.823   2.656   3.775
  403HOH     H1 1396   3.882   2.725   3.743
  403HOH     H2 1397   3.735   2.691   3.760
  404HOH      O 1398   2.607   1.787   3.143
  404HOH     H1 1399   2.586   1.852   3.211
  404HOH     H2 1400   2.582   1.704   3.183
  405HOH      O 1401   2.866   3.149   2.041
  405HOH     H1 1402   2.780   3.179   2.071
  405HOH     H2 1403   2.887   3.206   1.967
  406HOH      O 1404   0.291   2.084   3.989
  406HOH     H1 1405   0.268   2.023   4.058
  406HOH     H2 1406   0.344   2.033   3.928
  407HOH      O 1407   2.172   1.008   3.804
  407HOH     H1 1408   2.095   0.965   3.767
  407HOH     H2 1409   2.244   0.948   3.785
  408HOH      O 1410   2.273   3.376   0.071
  408HOH     H1 1411   2.288   3.287   0.100
  408HOH     H2 1412   2.214   3.367  -0.004
  409HOH      O 1413   2.992   0.128   0.228
  409HOH     H1 1414   2.943   0.106   0.149
  409HOH     H2 1415   2.947   0.082   0.298
  410HOH      O 1416   3.056   2.604   2.026
  410HOH     H1 1417   3.032   2.621   1.935
  410HOH     H2 1418   3.057   2.691   2.067
  411HOH      O 1419   3.953   0.382   2.431
  411HOH     H1 1420   3.922   0.294   2.410
  411HOH     H2 1421   3.877   0.438   2.417
  412HOH      O 1422   2.373   0.772   0.986
  412HOH     H1 1423   2.446   0.786   0.926
  412HOH     H2 1424   2.388   0.836   1.056
  413HOH      O 1425   2.845   3.811   0.787
  413HOH     H1 1426   2.783   3.875   0.753
  413HOH     H2 1427   2.912   3.804   0.719
  414HOH      O 1428   0.646   0.795   1.864
  414HOH     H1 1429   0.711   0.851   1.906
  414HOH     H2 1430   0.635   0.832   1.777
  415HOH      O 1431   1.485   3.280   1.280
  415HOH     H1 1432   1.538   3.279   1.360
  415HOH     H2 1433   1.409   3.334   1.303
  416HOH      O 1434   3.230   3.144   0.546
  416HOH     H1 1435   3.232   3.060   0.501
  416HOH     H2 1436   3.183   3.126   0.628
  417HOH      O 1437   2.601   3.554   3.142
  417HOH     H1 1438   2.577   3.537   3.233
  417HOH     H2 1439   2.519   3.579   3.100
  418HOH      O 1440   3.924   0.864   2.259
  418HOH     H1 1441   3.907   0.771   2.245
  418HOH     H2 1442   3.925   0.874   2.354
  419HOH      O 1443   3.441   1.004   0.203
  419HOH     H1 1444   3.377   0.934   0.216
  419HOH     H2 1445   3.475   1.022   0.291
  420HOH      O 1446   0.600   3.431   2.706
  420HOH     H1 1447   0.622   3.338   2.713
  420HOH     H2 1448   0.504   3.433   2.706
  421HOH      O 1449   0.652   2.940   2.353
  421HOH     H1 1450   0.601   2.900   2.423
  421HOH     H2 1451   0.672   2.867   2.294
  422HOH      O 1452   2.518   3.958   3.977
  422HOH     H1 1453   2.560   3.909   4.048
  422HOH     H2 1454   2.546   4.048   3.991
  423HOH      O 1455   1.750   1.884   3.516
  423HOH     H1 1456   1.695   1.849   3.446
  423HOH     H2 1457   1.829   1.830   3.513
  424HOH      O 1458   3.980   2.113   2.894
  424HOH     H1 1459   4.056   2.099   2.950
  424HOH     H2 1460   3.987   2.044   2.827
  425HOH      O 1461   2.519   2.663   2.087
  425HOH     H1 1462   2.551   2.589   2.036
  425HOH     H2 1463   2.569   2.661   2.168
  426HOH      O 1464   2.272   2.196   3.953
  426HOH     H1 1465   2.322   2.222   3.876
  426HOH     H2 1466   2.231   2.277   3.983
  427HOH      O 1467   0.628   1.497   2.273
  427HOH     H1 1468   0.615   1.442   2.196
  427HOH     H2 1469   0.720   1.525   2.267
  428HOH      O 1470   2.287   3.820   3.679
  428HOH     H1 1471   2.232   3.873   3.736
  428HOH     H2 1472   2.371   3.816   3.724
  429HOH      O 1473   1.813   3.800   2.689
  429HOH     H1 1474   1.762   3.861   2.743
  429HOH     H2 1475   1.871   3.755   2.751
  430HOH      O 1476   3.962   1.784   2.465
  430HOH     H1 1477   4.026   1.847   2.430
  430HOH     H2 1478   3.981   1.703   2.418
  431HOH      O 1479   2.324   3.878   2.880
  431HOH     H1 1480   2.283   3.883   2.966
  431HOH     H2 1481   2.383   3.953   2.876
  432HOH      O 1482   0.588   3.034   1.366
  432HOH     H1 1483   0.650   2.962   1.356
  432HOH     H2 1484   0.642   3.108   1.395
  433HOH      O 1485   1.805   0.151   2.330
  433HOH     H1 1486   1.736   0.129   2.268
  433HOH     H2 1487   1.795   0.245   2.345
  434HOH      O 1488   1.786   2.394   3.962
  434HOH     H1 1489   1.704   2.409   3.915
  434HOH     H2 1490   1.774   2.311   4.007
  435HOH      O 1491   2.859   0.433   0.218
  435HOH     H1 1492   2.802   0.420   0.142
  435HOH     H2 1493   2.947   0.413   0.187
  436HOH      O 1494   3.294   3.870   0.453
  436HOH     H1 1495   3.255   3.813   0.388
  436HOH     H2 1496   3.350   3.813   0.505
  437HOH      O 1497   1.382   2.449   3.440
  437HOH     H1 1498   1.316   2.393   3.480
  437HOH     H2 1499   1.370   2.437   3.346
  438HOH      O 1500   0.601   3.384   3.051
  438HOH     H1 1501   0.696   3.389   3.048
  438HOH     H2 1502   0.573   3.475   3.064
  439HOH      O 1503   1.266   3.397   1.635
  439HOH     H1 1504   1.243   3.334   1.567
  439HOH     H2 1505   1.329   3.350   1.691
  440HOH      O 1506   3.397   3.203   2.520
  440HOH     H1 1507   3.427   3.143   2.453
  440HOH     H2 1508   3.452   3.183   2.596
  441HOH      O 1509   0.050   1.491   0.365
  441HOH     H1 1510   0.056   1.419   0.428
  441HOH     H2 1511   0.068   1.570   0.416
  442HOH      O 1512   3.106   2.608   0.992
  442HOH     H1 1513   3.197   2.628   1.011
  442HOH     H2 1514   3.109   2.552   0.914
  443HOH      O 1515   3.217   2.512   0.143
  443HOH     H1 1516   3.260   2.572   0.203
  443HOH     H2 1517   3.274   2.434   0.141
  444HOH      O 1518   3.001   3.328   0.997
  444HOH     H1 1519   3.018   3.420   1.018
  444HOH     H2 1520   2.926   3.331   0.937
  445HOH      O 1521   2.613   1.919   0.344
  445HOH     H1 1522   2.627   1.857   0.415
  445HOH     H2 1523   2.571   1.868   0.275
  446HOH      O 1524   1.388   0.655   1.263
  446HOH     H1 1525   1.419   0.703   1.186
  446HOH     H2 1526   1.310   0.609   1.233
  447HOH      O 1527   3.892   2.292   2.590
  447HOH     H1 1528   3.810   2.262   2.550
  447HOH     H2 1529   3.960   2.241   2.545
  448HOH      O 1530   0.697   0.949   3.916
  448HOH     H1 1531   0.783   0.921   3.883
  448HOH     H2 1532   0.706   0.944   4.011
  449HOH      O 1533   3.865   2.229   1.622
  449HOH     H1 1534   3.897   2.239   1.533
  449HOH     H2 1535   3.924   2.283   1.675
  450HOH      O 1536   2.613   0.214   1.198
  450HOH     H1 1537   2.681   0.213   1.130
  450HOH     H2 1538   2.601   0.307   1.218
  451HOH      O 1539   0.542   2.809   1.768
  451HOH     H1 1540   0.566   2.719   1.749
  451HOH     H2 1541   0.488   2.836   1.694
  452HOH      O 1542   2.765   0.702   1.754
  452HOH     H1 1543   2.698   0.703   1.823
  452HOH     H2 1544   2.739   0.773   1.695
  453HOH      O 1545   0.647   0.922   1.631
  453HOH     H1 1546   0.581   0.900   1.565
  453HOH     H2 1547   0.658   1.017   1.622
  454HOH      O 1548   1.803   1.720   2.538
  454HOH     H1 1549   1.847   1.673   2.467
  454HOH     H2 1550   1.779   1.804   2.499
  455HOH      O 1551   0.809   3.864   2.760
  455HOH     H1 1552   0.858   3.785   2.736
  455HOH     H2 1553   0.837   3.884   2.850
  456HOH      O 1554   0.425   3.713   3.106
  456HOH     H1 1555   0.349   3.705   3.049
  456HOH     H2 1556   0.464   3.797   3.084
  457HOH      O 1557   3.846   2.652   3.176
  457HOH     H1 1558   3.805   2.693   3.100
  457HOH     H2 1559   3.796   2.685   3.251
  458HOH      O 1560   2.776   3.776   0.340
  458HOH     H1 1561   2.695   3.735   0.369
  458HOH     H2 1562   2.783   3.856   0.393
  459HOH      O 1563   0.875   3.340   2.279
  459HOH     H1 1564   0.868   3.250   2.311
  459HOH     H2 1565   0.833   3.393   2.346
  460HOH      O 1566   2.594   2.137   0.501
  460HOH     H1 1567   2.645   2.075   0.451
  460HOH     H2 1568   2.505   2.104   0.498
  461HOH      O 1569   3.354   3.227   0.048
  461HOH     H1 1570   3.430   3.213  -0.009
  461HOH     H2 1571   3.374   3.178   0.128
  462HOH      O 1572   3.177   1.033   1.866
  462HOH     H1 1573   3.086   1.049   1.892
  462HOH     H2 1574   3.171   0.967   1.797
  463HOH      O 1575   3.904   1.165   0.955
  463HOH     H1 1576   3.966   1.198   0.890
  463HOH     H2 1577   3.836   1.123   0.903
  464HOH      O 1578   2.810   1.925   2.013
  464HOH     H1 1579   2.794   1.929   2.107
  464HOH     H2 1580   2.849   2.010   1.992
  465HOH      O 1581   0.631   2.898   3.028
  465HOH     H1 1582   0.715   2.943   3.042
  465HOH     H2 1583   0.569   2.948   3.081
  466HOH      O 1584   3.330   2.672   0.318
  466HOH     H1 1585   3.371   2.598   0.364
  466HOH     H2 1586   3.404   2.724   0.287
  467HOH      O 1587   1.877   0.949   1.416
  467HOH     H1 1588   1.818   1.013   1.376
  467HOH     H2 1589   1.838   0.864   1.396
  468HOH      O 1590   1.982   1.492   3.644
  468HOH     H1 1591   2.056   1.492   3.704
  468HOH     H2 1592   1.961   1.585   3.632
  469HOH      O 1593   0.047   2.755   3.289
  469HOH     H1 1594  -0.017   2.729   3.224
  469HOH     H2 1595  -0.004   2.784   3.364
  470HOH      O 1596   1.987   1.746   3.491
  470HOH     H1 1597   2.006   1.758   3.398
  470HOH     H2 1598   2.056   1.793   3.536
  471HOH      O 1599   3.669   2.303   3.924
  471HOH     H1 1600   3.704   2.341   4.004
  471HOH     H2 1601   3.613   2.371   3.887
  472HOH      O 1602   0.171   2.828   1.479
  472HOH     H1 1603   0.112   2.869   1.416
  472HOH     H2 1604   0.254   2.875   1.469
  473HOH      O 1605   1.844   3.465   1.666
  473HOH     H1 1606   1.923   3.518   1.669
  473HOH     H2 1607   1.876   3.375   1.676
  474HOH      O 1608   2.142   2.299   2.002
  474HOH     H1 1609   2.056   2.316   2.040
  474HOH     H2 1610   2.201   2.298   2.076
  475HOH      O 1611   3.262   1.238   2.159
  475HOH     H1 1612   3.244   1.329   2.182
  475HOH     H2 1613   3.280   1.240   2.065
  476HOH      O 1614   2.834   1.243   1.434
  476HOH     H1 1615   2.780   1.268   1.509
  476HOH     H2 1616   2.836   1.320   1.378
  477HOH      O 1617   1.144   0.130   0.243
  477HOH     H1 1618   1.112   0.148   0.331
  477HOH     H2 1619   1.067   0.138   0.187
  478HOH      O 1620   1.678   2.605   0.428
  478HOH     H1 1621   1.614   2.540   0.401
  478HOH     H2 1622   1.747   2.600   0.362
  479HOH      O 1623   0.975   3.223   1.703
  479HOH     H1 1624   0.954   3.133   1.678
  479HOH     H2 1625   1.044   3.249   1.643
  480HOH      O 1626   0.673   0.623   2.230
  480HOH     H1 1627   0.586   0.638   2.267
  480HOH     H2 1628   0.726   0.695   2.264
  481HOH      O 1629   2.014   3.730   3.809
  481HOH     H1 1630   1.958   3.804   3.784
  481HOH     H2 1631   1.962   3.652   3.790
  482HOH      O 1632   3.501   2.464   3.156
  482HOH     H1 1633   3.497   2.549   3.112
  482HOH     H2 1634   3.592   2.435   3.144
  483HOH      O 1635   2.089   3.034   1.989
  483HOH     H1 1636   2.171   3.001   1.953
  483HOH     H2 1637   2.108   3.125   2.014
  484HOH      O 1638   2.047   2.974   1.169
  484HOH     H1 1639   2.124   2.966   1.113
  484HOH     H2 1640   1.974   2.946   1.113
  485HOH      O 1641   1.956   4.011   1.060
  485HOH     H1 1642   1.955   4.091   1.008
  485HOH     H2 1643   2.020   3.955   1.015
  486HOH      O 1644   3.286   2.727   1.776
  486HOH     H1 1645   3.276   2.632   1.772
  486HOH     H2 1646   3.197   2.761   1.773
  487HOH      O 1647   2.344   0.438   0.442
  487HOH     H1 1648   2.360   0.441   0.536
  487HOH     H2 1649   2.399   0.508   0.406
  488HOH      O 1650   0.190   2.007   1.662
  488HOH     H1 1651   0.222   1.993   1.573
  488HOH     H2 1652   0.099   1.978   1.659
  489HOH      O 1653   2.219   0.333   0.013
  489HOH     H1 1654   2.284   0.401  -0.002
  489HOH     H2 1655   2.202   0.335   0.107
  490HOH      O 1656   1.196   0.071   2.452
  490HOH     H1 1657   1.163   0.018   2.380
  490HOH     H2 1658   1.285   0.040   2.466
  491HOH      O 1659   3.167   0.944   2.849
  491HOH     H1 1660   3.209   0.866   2.813
  491HOH     H2 1661   3.167   1.007   2.777
  492HOH      O 1662   1.485   3.392   0.412
  492HOH     H1 1663   1.565   3.373   0.362
  492HOH     H2 1664   1.441   3.307   0.419
  493HOH      O 1665   3.031   0.755   2.523
  493HOH     H1 1666   3.096   0.767   2.592
  493HOH     H2 1667   3.066   0.684   2.469
  494HOH      O 1668   0.509   2.709   4.020
  494HOH     H1 1669   0.514   2.792   4.067
  494HOH     H2 1670   0.550   2.645   4.078
  495HOH      O 1671   0.391   1.320   2.349
  495HOH     H1 1672   0.340   1.351   2.274
  495HOH     H2 1673   0.389   1.393   2.410
  496HOH      O 1674   0.584   3.666   0.910
  496HOH     H1 1675   0.632   3.597   0.864
  496HOH     H2 1676   0.634   3.683   0.989
  497HOH      O 1677   3.661   1.296   2.682
  497HOH     H1 1678   3.616   1.211   2.688
  497HOH     H2 1679   3.694   1.312   2.770
  498HOH      O 1680   2.704   2.580   3.308
  498HOH     H1 1681   2.791   2.540   3.306
  498HOH     H2 1682   2.713   2.654   3.368
  499HOH      O 1683   2.748   3.710   2.015
  499HOH     H1 1684   2.684   3.770   2.053
  499HOH     H2 1685   2.695   3.636   1.983
  500HOH      O 1686   3.502   2.131   0.873
  500HOH     H1 1687   3.536   2.121   0.962
  500HOH     H2 1688   3.527   2.050   0.829
  501HOH      O 1689   3.437   2.950   0.955
  501HOH     H1 1690   3.443   3.037   0.915
  501HOH     H2 1691   3.500   2.953   1.027
  502HOH      O 1692   1.322   2.701   2.936
  502HOH     H1 1693   1.254   2.636   2.918
  502HOH     H2 1694   1.315   2.717   3.030
  503HOH      O 1695   3.457   0.703   1.154
  503HOH     H1 1696   3.506   0.785   1.159
  503HOH     H2 1697   3.443   0.689   1.060
  504HOH      O 1698   0.145   3.478   1.168
  504HOH     H1 1699   0.207   3.405   1.173
  504HOH     H2 1700   0.171   3.525   1.089
  505HOH      O 1701   0.196   0.546   3.093
  505HOH     H1 1702   0.207   0.570   3.001
  505HOH     H2 1703   0.135   0.472   3.091
  506HOH      O 1704   3.208   2.878   0.465
  506HOH     H1 1705   3.178   2.838   0.547
  506HOH     H2 1706   3.253   2.807   0.419
  507HOH      O 1707   2.326   2.844   2.036
  507HOH     H1 1708   2.386   2.778   2.071
  507HOH     H2 1709   2.330   2.832   1.941
  508HOH      O 1710   3.880   3.280   1.696
  508HOH     H1 1711   3.858   3.295   1.604
  508HOH     H2 1712   3.804   3.312   1.744
  509HOH      O 1713   0.312   1.127   1.294
  509HOH     H1 1714   0.374   1.087   1.233
  509HOH     H2 1715   0.307   1.219   1.266
  510HOH      O 1716   2.612   2.618   3.886
  510HOH     H1 1717   2.533   2.602   3.833
  510HOH     H2 1718   2.587   2.592   3.975
  511HOH      O 1719   2.396   3.038   1.769
  511HOH     H1 1720   2.486   3.016   1.796
  511HOH     H2 1721   2.406   3.118   1.718
  512HOH      O 1722   0.325   2.520   1.946
  512HOH     H1 1723   0.261   2.455   1.916
  512HOH     H2 1724   0.391   2.521   1.877
  513HOH      O 1725   3.912   0.093   0.692
  513HOH     H1 1726   3.907   0.139   0.608
  513HOH     H2 1727   3.994   0.043   0.687
  514HOH      O 1728   0.498   0.302   1.047
  514HOH     H1 1729   0.501   0.397   1.055
  514HOH     H2 1730   0.475   0.271   1.135
  515HOH      O 1731   2.439   2.270   3.739
  515HOH     H1 1732   2.497   2.244   3.810
  515HOH     H2 1733   2.415   2.188   3.696
  516HOH      O 1734   0.175   0.415   1.765
  516HOH     H1 1735   0.090   0.440   1.800
  516HOH     H2 1736   0.210   0.353   1.829
  517HOH      O 1737   2.792   3.554   1.448
  517HOH     H1 1738   2.746   3.635   1.472
  517HOH     H2 1739   2.757   3.532   1.362
  518HOH      O 1740   3.067   1.559   3.626
  518HOH     H1 1741   3.162   1.547   3.631
  518HOH     H2 1742   3.050   1.632   3.685
  519HOH      O 1743   1.020   2.494   3.663
  519HOH     H1 1744   0.959   2.422   3.647
  519HOH     H2 1745   1.019   2.545   3.582
  520HOH      O 1746   3.388   3.443   2.349
  520HOH     H1 1747   3.344   3.424   2.266
  520HOH     H2 1748   3.407   3.357   2.386
  521HOH      O 1749   2.465   0.543   3.186
  521HOH     H1 1750   2.420   0.601   3.124
  521HOH     H2 1751   2.422   0.560   3.270
  522HOH      O 1752   3.860   2.983   3.755
  522HOH     H1 1753   3.891   2.959   3.842
  522HOH     H2 1754   3.900   3.069   3.738
  523HOH      O 1755   1.605   2.530   1.529
  523HOH     H1 1756   1.554   2.513   1.450
  523HOH     H2 1757   1.579   2.462   1.590
  524HOH      O 1758   3.403   0.674   0.903
  524HOH     H1 1759   3.443   0.685   0.817
  524HOH     H2 1760   3.325   0.621   0.887
  525HOH      O 1761   3.431   0.471   3.077
  525HOH     H1 1762   3.461   0.401   3.134
  525HOH     H2 1763   3.396   0.537   3.136
  526HOH      O 1764   0.932   1.959   2.542
  526HOH     H1 1765   0.925   1.885   2.483
  526HOH     H2 1766   0.987   1.927   2.614
  527HOH      O 1767   3.339   1.370   0.816
  527HOH     H1 1768   3.423   1.345   0.854
  527HOH     H2 1769   3.340   1.332   0.728
  528HOH      O 1770   2.413   3.401   1.376
  528HOH     H1 1771   2.446   3.471   1.321
  528HOH     H2 1772   2.322   3.424   1.394
  529HOH      O 1773   2.990   1.303   3.594
  529HOH     H1 1774   3.036   1.387   3.599
  529HOH     H2 1775   2.907   1.319   3.640
  530HOH      O 1776   1.271   0.855   3.192
  530HOH     H1 1777   1.201   0.795   3.217
  530HOH     H2 1778   1.346   0.798   3.175
  531HOH      O 1779   3.109   1.600   1.371
  531HOH     H1 1780   3.157   1.563   1.297
  531HOH     H2 1781   3.068   1.525   1.412
  532HOH      O 1782   0.072   3.142   1.771
  532HOH     H1 1783  -0.004   3.191   1.739
  532HOH     H2 1784   0.137   3.152   1.701
  533HOH      O 1785   0.447   3.731   2.159
  533HOH     H1 1786   0.535   3.703   2.183
  533HOH     H2 1787   0.404   3.651   2.129
  534HOH      O 1788   0.837   2.389   0.341
  534HOH     H1 1789   0.852   2.295   0.345
  534HOH     H2 1790   0.830   2.416   0.433
  535HOH      O 1791   0.559   0.083   3.292
  535HOH     H1 1792   0.571   0.176   3.275
  535HOH     H2 1793   0.523   0.079   3.381
  536HOH      O 1794   2.908   0.919   2.340
  536HOH     H1 1795   2.966   0.878   2.404
  536HOH     H2 1796   2.925   0.872   2.258
  537HOH      O 1797   0.961   2.150   1.786
  537HOH     H1 1798   1.037   2.103   1.752
  537HOH     H2 1799   0.909   2.084   1.831
  538HOH      O 1800   0.118   0.927   2.034
  538HOH     H1 1801   0.099   0.952   2.125
  538HOH     H2 1802   0.213   0.915   2.032
  539HOH      O 1803   3.177   1.493   2.206
  539HOH     H1 1804   3.092   1.458   2.233
  539HOH     H2 1805   3.169   1.503   2.111
  540HOH      O 1806   2.016   2.029   0.965
  540HOH     H1 1807   2.033   2.015   1.058
  540HOH     H2 1808   1.926   2.063   0.962
  541HOH      O 1809   2.854   3.647   3.188
  541HOH     H1 1810   2.773   3.632   3.139
  541HOH     H2 1811   2.856   3.576   3.252
  542HOH      O 1812   1.532   1.957   1.298
  542HOH     H1 1813   1.587   1.921   1.229
  542HOH     H2 1814   1.513   1.882   1.355
  543HOH      O 1815   0.407   2.474   2.440
  543HOH     H1 1816   0.462   2.403   2.472
  543HOH     H2 1817   0.434   2.487   2.350
  544HOH      O 1818   2.051   0.896   0.459
  544HOH     H1 1819   2.074   0.818   0.408
  544HOH     H2 1820   2.058   0.868   0.550
  545HOH      O 1821   2.310   2.399   1.288
  545HOH     H1 1822   2.299   2.468   1.223
  545HOH     H2 1823   2.263   2.431   1.365
  546HOH      O 1824   1.607   2.568   3.525
  546HOH     H1 1825   1.600   2.611   3.440
  546HOH     H2 1826   1.532   2.510   3.530
  547HOH      O 1827   2.390   1.778   2.568
  547HOH     H1 1828   2.437   1.855   2.534
  547HOH     H2 1829   2.455   1.731   2.620
  548HOH      O 1830   0.191   3.820   0.199
  548HOH     H1 1831   0.218   3.862   0.116
  548HOH     H2 1832   0.212   3.885   0.266
  549HOH      O 1833   3.463   2.883   3.997
  549HOH     H1 1834   3.512   2.963   4.012
  549HOH     H2 1835   3.487   2.826   4.070
  550HOH      O 1836   1.670   2.446   2.723
  550HOH     H1 1837   1.676   2.416   2.814
  550HOH     H2 1838   1.760   2.465   2.698
  551HOH      O 1839   0.220   2.951   3.204
  551HOH     H1 1840   0.179   3.035   3.223
  551HOH     H2 1841   0.165   2.886   3.248
  552HOH      O 1842   0.471   3.041   3.291
  552HOH     H1 1843   0.397   2.984   3.271
  552HOH     H2 1844   0.444   3.127   3.259
  553HOH      O 1845   0.210   3.595   0.607
  553HOH     H1 1846   0.300   3.618   0.582
  553HOH     H2 1847   0.210   3.500   0.611
  554HOH      O 1848   2.793   0.399   2.785
  554HOH     H1 1849   2.855   0.452   2.835
  554HOH     H2 1850   2.840   0.317   2.769
  555HOH      O 1851   1.129   1.072   3.071
  555HOH     H1 1852   1.066   1.003   3.051
  555HOH     H2 1853   1.205   1.026   3.107
  556HOH      O 1854   2.431   3.909   0.261
  556HOH     H1 1855   2.393   3.828   0.294
  556HOH     H2 1856   2.358   3.954   0.218
  557HOH      O 1857   3.310   0.498   1.314
  557HOH     H1 1858   3.340   0.576   1.268
  557HOH     H2 1859   3.366   0.427   1.282
  558HOH      O 1860   3.751   0.203   2.720
  558HOH     H1 1861   3.732   0.179   2.629
  558HOH     H2 1862   3.846   0.191   2.728
  559HOH      O 1863   2.129   0.247   1.649
  559HOH     H1 1864   2.119   0.336   1.616
  559HOH     H2 1865   2.220   0.224   1.630
  560HOH      O 1866   0.538   2.163   1.831
  560HOH     H1 1867   0.445   2.178   1.845
  560HOH     H2 1868   0.546   2.068   1.818
  561HOH      O 1869   1.577   3.650   3.938
  561HOH     H1 1870   1.581   3.590   4.013
  561HOH     H2 1871   1.608   3.734   3.972
  562HOH      O 1872   3.879   3.738   2.862
  562HOH     H1 1873   3.886   3.681   2.939
  562HOH     H2 1874   3.852   3.823   2.898
  563HOH      O 1875   3.783   1.176   2.006
  563HOH     H1 1876   3.813   1.180   1.915
  563HOH     H2 1877   3.704   1.229   2.008
  564HOH      O 1878   1.931   3.418   2.980
  564HOH     H1 1879   1.861   3.426   3.045
  564HOH     H2 1880   1.975   3.336   3.003
  565HOH      O 1881   2.741   1.858   1.604
  565HOH     H1 1882   2.738   1.886   1.513
  565HOH     H2 1883   2.834   1.865   1.628
  566HOH      O 1884   2.078   0.705   2.341
  566HOH     H1 1885   1.989   0.706   2.376
  566HOH     H2 1886   2.089   0.618   2.303
  567HOH      O 1887   4.011   0.126   2.599
  567HOH     H1 1888   3.962   0.054   2.560
  567HOH     H2 1889   4.093   0.087   2.627
  568HOH      O 1890   3.962   2.908   1.974
  568HOH     H1 1891   4.039   2.943   1.931
  568HOH     H2 1892   3.891   2.968   1.951
  569HOH      O 1893   3.887   2.029   0.061
  569HOH     H1 1894   3.931   2.100   0.014
  569HOH     H2 1895   3.922   1.949   0.021
  570HOH      O 1896   2.948   0.691   3.940
  570HOH     H1 1897   2.960   0.651   4.026
  570HOH     H2 1898   2.864   0.738   3.947
  571HOH      O 1899   0.825   0.866   2.304
  571HOH     H1 1900   0.844   0.872   2.398
  571HOH     H2 1901   0.802   0.955   2.279
  572HOH      O 1902   3.351   1.261   0.577
  572HOH     H1 1903   3.426   1.226   0.528
  572HOH     H2 1904   3.302   1.184   0.605
  573HOH      O 1905   0.703   0.034   0.952
  573HOH     H1 1906   0.670   0.105   0.896
  573HOH     H2 1907   0.636   0.025   1.020
  574HOH      O 1908   0.382   0.203   1.296
  574HOH     H1 1909   0.422   0.130   1.344
  574HOH     H2 1910   0.371   0.272   1.361
  575HOH      O 1911   1.703   2.003   3.773
  575HOH     H1 1912   1.785   2.046   3.798
  575HOH     H2 1913   1.730   1.932   3.715
  576HOH      O 1914   3.271   0.556   1.891
  576HOH     H1 1915   3.177   0.576   1.886
  576HOH     H2 1916   3.280   0.472   1.845
  577HOH      O 1917   1.361   1.534   3.212
  577HOH     H1 1918   1.329   1.622   3.194
  577HOH     H2 1919   1.286   1.477   3.194
  578HOH      O 1920   2.247   1.351   3.520
  578HOH     H1 1921   2.180   1.420   3.526
  578HOH     H2 1922   2.313   1.388   3.462
  579HOH      O 1923   1.538   3.471   0.111
  579HOH     H1 1924   1.580   3.408   0.171
  579HOH     H2 1925   1.457   3.495   0.156
  580HOH      O 1926   0.497   2.488   2.158
  580HOH     H1 1927   0.562   2.432   2.115
  580HOH     H2 1928   0.424   2.492   2.096
  581HOH      O 1929   0.053   1.438   2.584
  581HOH     H1 1930  -0.010   1.439   2.512
  581HOH     H2 1931   0.077   1.346   2.594
  582HOH      O 1932   3.385   0.092   0.050
  582HOH     H1 1933   3.319   0.067  -0.014
  582HOH     H2 1934   3.449   0.143  -0.000
  583HOH      O 1935   2.986   1.850   1.081
  583HOH     H1 1936   2.915   1.904   1.116
  583HOH     H2 1937   3.020   1.802   1.156
  584HOH      O 1938   2.045   2.639   0.296
  584HOH     H1 1939   2.105   2.579   0.340
  584HOH     H2 1940   2.093   2.670   0.219
  585HOH      O 1941   2.875   0.475   1.316
  585HOH     H1 1942   2.781   0.462   1.310
  585HOH     H2 1943   2.886   0.569   1.335
  586HOH      O 1944   0.201   3.758   2.967
  586HOH     H1 1945   0.109   3.734   2.954
  586HOH     H2 1946   0.206   3.849   2.938
  587HOH      O 1947   1.788   0.778   2.484
  587HOH     H1 1948   1.737   0.802   2.406
  587HOH     H2 1949   1.722   0.762   2.552
  588HOH      O 1950   3.473   0.120   3.024
  588HOH     H1 1951   3.510   0.165   3.099
  588HOH     H2 1952   3.459   0.030   3.054
  589HOH      O 1953   2.573   3.255   2.595
  589HOH     H1 1954   2.635   3.279   2.663
  589HOH     H2 1955   2.589   3.318   2.524
  590HOH      O 1956   3.132   3.735   0.067
  590HOH     H1 1957   3.155   3.659   0.014
  590HOH     H2 1958   3.080   3.791   0.008
  591HOH      O 1959   1.449   2.421   1.881
  591HOH     H1 1960   1.500   2.430   1.962
  591HOH     H2 1961   1.506   2.371   1.823
  592HOH      O 1962   3.735   0.178   0.480
  592HOH     H1 1963   3.644   0.205   0.490
  592HOH     H2 1964   3.737   0.131   0.397
  593HOH      O 1965   0.736   0.398   2.782
  593HOH     H1 1966   0.655   0.432   2.743
  593HOH     H2 1967   0.801   0.465   2.761
  594HOH      O 1968   1.853   3.085   1.424
  594HOH     H1 1969   1.806   3.148   1.370
  594HOH     H2 1970   1.934   3.067   1.375
  595HOH      O 1971   2.377   2.115   3.185
  595HOH     H1 1972   2.327   2.113   3.104
  595HOH     H2 1973   2.439   2.187   3.173
  596HOH      O 1974   3.281   1.757   3.995
  596HOH     H1 1975   3.276   1.670   3.955
  596HOH     H2 1976   3.219   1.809   3.944
  597HOH      O 1977   0.941   3.382   1.344
  597HOH     H1 1978   0.919   3.394   1.251
  597HOH     H2 1979   0.945   3.471   1.378
  598HOH      O 1980   0.899   1.547   0.605
  598HOH     H1 1981   0.849   1.466   0.610
  598HOH     H2 1982   0.851   1.601   0.542
  599HOH      O 1983   1.424   3.889   1.019
  599HOH     H1 1984   1.359   3.947   0.980
  599HOH     H2 1985   1.399   3.801   0.990
  600HOH      O 1986   2.166   1.554   2.730
  600HOH     H1 1987   2.252   1.536   2.692
  600HOH     H2 1988   2.133   1.630   2.681
  601HOH      O 1989   4.005   2.652   2.854
  601HOH     H1 1990   4.014   2.620   2.944
  601HOH     H2 1991   3.918   2.691   2.851
  602HOH      O 1992   2.050   3.543   0.677
  602HOH     H1 1993   1.981   3.600   0.710
  602HOH     H2 1994   2.003   3.464   0.648
  603HOH      O 1995   0.407   1.883   3.848
  603HOH     H1 1996   0.330   1.875   3.792
  603HOH     H2 1997   0.405   1.803   3.902
  604HOH      O 1998   3.263   2.128   0.367
  604HOH     H1 1999   3.345   2.078   0.361
  604HOH     H2 2000   3.251   2.143   0.461
  605HOH      O 2001   3.401   0.635   3.656
  605HOH     H1 2002   3.391   0.706   3.593
  605HOH     H2 2003   3.473   0.664   3.713
  606HOH      O 2004   1.917   3.317   2.355
  606HOH     H1 2005   1.866   3.396   2.374
  606HOH     H2 2006   1.987   3.317   2.420
  607HOH      O 2007   2.755   1.569   2.455
  607HOH     H1 2008   2.771   1.629   2.528
  607HOH     H2 2009   2.662   1.578   2.436
  608HOH      O 2010   0.297   3.242   1.158
  608HOH     H1 2011   0.392   3.241   1.165
  608HOH     H2 2012   0.270   3.151   1.171
  609HOH      O 2013   3.327   1.467   2.600
  609HOH     H1 2014   3.343   1.414   2.678
  609HOH     H2 2015   3.289   1.406   2.537
  610HOH      O 2016   0.094   3.799   1.039
  610HOH     H1 2017   0.171   3.759   0.998
  610HOH     H2 2018   0.106   3.893   1.026
  611HOH      O 2019   0.016   3.599   2.184
  611HOH     H1 2020  -0.059   3.612   2.242
  611HOH     H2 2021   0.092   3.613   2.239
  612HOH      O 2022   2.695   1.570   1.508
  612HOH     H1 2023   2.621   1.547   1.451
  612HOH     H2 2024   2.715   1.661   1.486
  613HOH      O 2025   0.410   2.877   0.935
  613HOH     H1 2026   0.431   2.784   0.932
  613HOH     H2 2027   0.484   2.920   0.894
  614HOH      O 2028   2.947   2.983   3.346
  614HOH     H1 2029   3.011   2.978   3.275
  614HOH     H2 2030   2.999   2.991   3.425
  615HOH      O 2031   3.258   0.517   0.354
  615HOH     H1 2032   3.300   0.444   0.308
  615HOH     H2 2033   3.233   0.480   0.439
  616HOH      O 2034   2.185   1.955   0.781
  616HOH     H1 2035   2.269   1.943   0.825
  616HOH     H2 2036   2.123   1.972   0.852
  617HOH      O 2037   2.520   1.614   0.988
  617HOH     H1 2038   2.501   1.539   0.932
  617HOH     H2 2039   2.436   1.634   1.031
  618HOH      O 2040   1.709   3.450   3.155
  618HOH     H1 2041   1.753   3.372   3.190
  618HOH     H2 2042   1.616   3.434   3.171
  619HOH      O 2043   0.796   2.854   1.383
  619HOH     H1 2044   0.850   2.801   1.325
  619HOH     H2 2045   0.856   2.887   1.449
  620HOH      O 2046   0.015   0.429   3.427
  620HOH     H1 2047  -0.032   0.349   3.447
  620HOH     H2 2048   0.041   0.464   3.512
  621HOH      O 2049   3.266   2.217   1.799
  621HOH     H1 2050   3.331   2.156   1.762
  621HOH     H2 2051   3.270   2.202   1.893
  622HOH      O 2052   3.585   1.345   0.921
  622HOH     H1 2053   3.591   1.290   0.998
  622HOH     H2 2054   3.675   1.375   0.907
  623HOH      O 2055   0.210   1.116   0.935
  623HOH     H1 2056   0.261   1.190   0.970
  623HOH     H2 2057   0.147   1.157   0.875
  624HOH      O 2058   4.015   0.986   0.679
  624HOH     H1 2059   4.094   1.039   0.675
  624HOH     H2 2060   3.960   1.029   0.744
  625HOH      O 2061   3.726   2.003   2.952
  625HOH     H1 2062   3.704   2.045   3.035
  625HOH     H2 2063   3.820   2.017   2.942
  626HOH      O 2064   0.129   3.152   2.033
  626HOH     H1 2065   0.099   3.163   1.942
  626HOH     H2 2066   0.219   3.121   2.025
  627HOH      O 2067   2.504   0.460   3.754
  627HOH     H1 2068   2.595   0.477   3.733
  627HOH     H2 2069   2.466   0.427   3.672
  628HOH      O 2070   1.797   1.830   3.023
  628HOH     H1 2071   1.885   1.837   3.060
  628HOH     H2 2072   1.797   1.746   2.977
  629HOH      O 2073   2.108   2.874   2.590
  629HOH     H1 2074   2.098   2.783   2.618
  629HOH     H2 2075   2.032   2.891   2.535
  630HOH      O 2076   1.175   1.391   0.966
  630HOH     H1 2077   1.255   1.396   0.913
  630HOH     H2 2078   1.206   1.370   1.054
  631HOH      O 2079   3.967   1.068   3.604
  631HOH     H1 2080   4.034   1.105   3.547
  631HOH     H2 2081   3.894   1.130   3.600
  632HOH      O 2082   0.547   3.944   2.690
  632HOH     H1 2083   0.622   3.897   2.726
  632HOH     H2 2084   0.473   3.916   2.744
  633HOH      O 2085   1.884   3.742   1.398
  633HOH     H1 2086   1.798   3.713   1.426
  633HOH     H2 2087   1.910   3.678   1.332
  634HOH      O 2088   3.573   3.819   1.949
  634HOH     H1 2089   3.500   3.881   1.957
  634HOH     H2 2090   3.553   3.750   2.011
  635HOH      O 2091   3.437   2.184   1.289
  635HOH     H1 2092   3.367   2.120   1.299
  635HOH     H2 2093   3.403   2.247   1.225
  636HOH      O 2094   0.640   0.475   2.517
  636HOH     H1 2095   0.573   0.430   2.465
  636HOH     H2 2096   0.718   0.475   2.462
  637HOH      O 2097   2.119   3.591   2.529
  637HOH     H1 2098   2.097   3.657   2.463
  637HOH     H2 2099   2.190   3.631   2.580
  638HOH      O 2100   3.331   0.930   0.941
  638HOH     H1 2101   3.363   0.840   0.935
  638HOH     H2 2102   3.260   0.927   1.005
  639HOH      O 2103   0.539   3.373   0.143
  639HOH     H1 2104   0.551   3.447   0.202
  639HOH     H2 2105   0.481   3.407   0.074
  640HOH      O 2106   0.081   1.060   3.170
  640HOH     H1 2107   0.134   0.984   3.147
  640HOH     H2 2108   0.126   1.134   3.130
  641HOH      O 2109   1.622   3.163   2.565
  641HOH     H1 2110   1.605   3.152   2.471
  641HOH     H2 2111   1.714   3.186   2.570
  642HOH      O 2112   0.291   1.246   2.830
  642HOH     H1 2113   0.269   1.227   2.921
  642HOH     H2 2114   0.216   1.214   2.780
  643HOH      O 2115   3.072   3.121   0.791
  643HOH     H1 2116   3.075   3.208   0.830
  643HOH     H2 2117   3.072   3.061   0.865
  644HOH      O 2118   2.827   2.498   3.812
  644HOH     H1 2119   2.751   2.549   3.841
  644HOH     H2 2120   2.871   2.472   3.893
  645HOH      O 2121   3.526   3.889   3.132
  645HOH     H1 2122   3.479   3.843   3.201
  645HOH     H2 2123   3.549   3.821   3.069
  646HOH      O 2124   3.951   1.691   1.813
  646HOH     H1 2125   3.908   1.706   1.728
  646HOH     H2 2126   4.008   1.616   1.797
  647HOH      O 2127   1.641   2.450   1.041
  647HOH     H1 2128   1.563   2.410   1.003
  647HOH     H2 2129   1.649   2.534   0.996
  648HOH      O 2130   3.750   3.557   1.949
  648HOH     H1 2131   3.777   3.644   1.919
  648HOH     H2 2132   3.724   3.511   1.870
  649HOH      O 2133   2.436   2.681   0.357
  649HOH     H1 2134   2.508   2.682   0.420
  649HOH     H2 2135   2.372   2.621   0.395
  650HOH      O 2136   3.474   0.117   2.401
  650HOH     H1 2137   3.455   0.024   2.415
  650HOH     H2 2138   3.430   0.138   2.318
  651HOH      O 2139   2.558   3.935   1.021
  651HOH     H1 2140   2.471   3.967   1.045
  651HOH     H2 2141   2.589   3.888   1.098
  652HOH      O 2142   3.671   2.343   3.481
  652HOH     H1 2143   3.688   2.253   3.455
  652HOH     H2 2144   3.608   2.337   3.552
  653HOH      O 2145   3.378   3.004   2.811
  653HOH     H1 2146   3.295   2.970   2.778
  653HOH     H2 2147   3.439   2.992   2.739
  654HOH      O 2148   0.126   0.979   1.155
  654HOH     H1 2149   0.135   1.005   1.063
  654HOH     H2 2150   0.187   1.035   1.203
  655HOH      O 2151   0.980   0.872   3.903
  655HOH     H1 2152   0.972   0.841   3.993
  655HOH     H2 2153   1.008   0.963   3.911
  656HOH      O 2154   1.367   2.635   1.131
  656HOH     H1 2155   1.347   2.686   1.053
  656HOH     H2 2156   1.373   2.545   1.099
  657HOH      O 2157   1.699   1.523   3.630
  657HOH     H1 2158   1.760   1.542   3.701
  657HOH     H2 2159   1.623   1.483   3.674
  658HOH      O 2160   2.295   1.330   0.517
  658HOH     H1 2161   2.232   1.266   0.485
  658HOH     H2 2162   2.243   1.392   0.568
  659HOH      O 2163   3.953   0.347   1.424
  659HOH     H1 2164   4.036   0.308   1.397
  659HOH     H2 2165   3.943   0.424   1.369
  660HOH      O 2166   1.786   2.441   3.150
  660HOH     H1 2167   1.766   2.386   3.075
  660HOH     H2 2168   1.763   2.388   3.226
  661HOH      O 2169   3.838   0.813   1.161
  661HOH     H1 2170   3.875   0.892   1.122
  661HOH     H2 2171   3.745   0.834   1.174
  662HOH      O 2172   0.479   3.210   2.031
  662HOH     H1 2173   0.533   3.225   1.953
  662HOH     H2 2174   0.440   3.124   2.016
  663HOH      O 2175   3.049   0.992   0.407
  663HOH     H1 2176   2.996   1.069   0.426
  663HOH     H2 2177   2.987   0.919   0.409
  664HOH      O 2178   3.695   3.074   0.793
  664HOH     H1 2179   3.723   3.025   0.869
  664HOH     H2 2180   3.682   3.163   0.825
  665HOH      O 2181   1.154   2.880   0.067
  665HOH     H1 2182   1.102   2.901   0.145
  665HOH     H2 2183   1.090   2.844   0.006
  666HOH      O 2184   3.831   3.667   2.344
  666HOH     H1 2185   3.853   3.607   2.416
  666HOH     H2 2186   3.736   3.672   2.346
  667HOH      O 2187   1.452   0.355   3.902
  667HOH     H1 2188   1.522   0.305   3.943
  667HOH     H2 2189   1.470   0.446   3.928
  668HOH      O 2190   1.942   1.491   3.244
  668HOH     H1 2191   2.008   1.422   3.245
  668HOH     H2 2192   1.916   1.499   3.153
  669HOH      O 2193   3.441   3.563   1.822
  669HOH     H1 2194   3.355   3.527   1.804
  669HOH     H2 2195   3.428   3.658   1.820
  670HOH      O 2196   3.214   3.510   3.921
  670HOH     H1 2197   3.304   3.528   3.947
  670HOH     H2 2198   3.203   3.417   3.937
  671HOH      O 2199   1.132   2.685   1.943
  671HOH     H1 2200   1.107   2.596   1.921
  671HOH     H2 2201   1.215   2.699   1.897
  672HOH      O 2202   2.760   2.817   3.464
  672HOH     H1 2203   2.805   2.817   3.548
  672HOH     H2 2204   2.821   2.860   3.404
  673HOH      O 2205   3.722   3.635   3.849
  673HOH     H1 2206   3.744   3.577   3.776
  673HOH     H2 2207   3.690   3.715   3.808
  674HOH      O 2208   1.393   2.956   2.215
  674HOH     H1 2209   1.345   2.874   2.212
  674HOH     H2 2210   1.485   2.930   2.208
  675HOH      O 2211   0.093   3.178   3.256
  675HOH     H1 2212   0.010   3.131   3.253
  675HOH     H2 2213   0.103   3.202   3.348
  676HOH      O 2214   3.940   3.560   1.302
  676HOH     H1 2215   3.896   3.608   1.233
  676HOH     H2 2216   4.028   3.544   1.268
  677HOH      O 2217   0.859   2.104   0.273
  677HOH     H1 2218   0.802   2.119   0.198
  677HOH     H2 2219   0.800   2.084   0.346
  678HOH      O 2220   2.702   0.214   3.819
  678HOH     H1 2221   2.675   0.283   3.759
  678HOH     H2 2222   2.768   0.164   3.770
  679HOH      O 2223   3.540   1.003   2.320
  679HOH     H1 2224   3.542   0.911   2.344
  679HOH     H2 2225   3.632   1.030   2.324
  680HOH      O 2226   3.863   3.321   3.975
  680HOH     H1 2227   3.943   3.271   3.996
  680HOH     H2 2228   3.848   3.374   4.053
  681HOH      O 2229   3.506   1.056   2.792
  681HOH     H1 2230   3.549   1.053   2.878
  681HOH     H2 2231   3.416   1.083   2.812
  682HOH      O 2232   1.642   3.340   3.846
  682HOH     H1 2233   1.565   3.386   3.878
  682HOH     H2 2234   1.606   3.265   3.797
  683HOH      O 2235   0.624   1.188   1.535
  683HOH     H1 2236   0.549   1.181   1.476
  683HOH     H2 2237   0.639   1.282   1.544
  684HOH      O 2238   2.869   1.623   3.434
  684HOH     H1 2239   2.919   1.573   3.499
  684HOH     H2 2240   2.929   1.630   3.359
  685HOH      O 2241   0.894   0.839   1.607
  685HOH     H1 2242   0.926   0.872   1.522
  685HOH     H2 2243   0.799   0.835   1.596
  686HOH      O 2244   3.508   2.211   3.706
  686HOH     H1 2245   3.526   2.194   3.798
  686HOH     H2 2246   3.519   2.126   3.663
  687HOH      O 2247   1.655   1.095   1.355
  687HOH     H1 2248   1.674   1.074   1.264
  687HOH     H2 2249   1.632   1.188   1.355
  688HOH      O 2250   2.042   0.725   2.972
  688HOH     H1 2251   2.019   0.818   2.980
  688HOH     H2 2252   2.007   0.700   2.886
  689HOH      O 2253   0.218   2.044   2.152
  689HOH     H1 2254   0.253   1.973   2.206
  689HOH     H2 2255   0.213   2.119   2.211
  690HOH      O 2256   1.526   2.914   2.652
  690HOH     H1 2257   1.558   2.923   2.741
  690HOH     H2 2258   1.541   3.000   2.612
  691HOH      O 2259   0.726   1.162   1.881
  691HOH     H1 2260   0.673   1.116   1.816
  691HOH     H2 2261   0.806   1.110   1.889
  692HOH      O 2262   3.975   1.955   2.680
  692HOH     H1 2263   3.907   2.021   2.673
  692HOH     H2 2264   3.938   1.877   2.639
  693HOH      O 2265   1.304   3.225   2.137
  693HOH     H1 2266   1.216   3.188   2.144
  693HOH     H2 2267   1.362   3.155   2.168
  694HOH      O 2268   3.324   1.238   2.431
  694HOH     H1 2269   3.302   1.235   2.338
  694HOH     H2 2270   3.415   1.209   2.435
  695HOH      O 2271   0.138   3.319   0.184
  695HOH     H1 2272   0.220   3.324   0.233
  695HOH     H2 2273   0.126   3.408   0.149
  696HOH      O 2274   3.199   0.105   0.460
  696HOH     H1 2275   3.143   0.105   0.382
  696HOH     H2 2276   3.262   0.034   0.444
  697HOH      O 2277   2.536   3.657   1.238
  697HOH     H1 2278   2.592   3.708   1.296
  697HOH     H2 2279   2.597   3.607   1.184
  698HOH      O 2280   2.209   3.510   3.633
  698HOH     H1 2281   2.303   3.496   3.642
  698HOH     H2 2282   2.192   3.591   3.681
  699HOH      O 2283   1.371   2.401   3.167
  699HOH     H1 2284   1.461   2.434   3.157
  699HOH     H2 2285   1.342   2.383   3.077
  700HOH      O 2286   0.409   0.570   1.163
  700HOH     H1 2287   0.325   0.615   1.149
  700HOH     H2 2288   0.442   0.555   1.074
  701HOH      O 2289   1.276   0.724   0.103
  701HOH     H1 2290   1.266   0.800   0.044
  701HOH     H2 2291   1.187   0.691   0.114
  702HOH      O 2292   1.214   0.640   2.635
  702HOH     H1 2293   1.209   0.661   2.542
  702HOH     H2 2294   1.260   0.557   2.638
  703HOH      O 2295   0.328   0.793   0.183
  703HOH     H1 2296   0.267   0.789   0.257
  703HOH     H2 2297   0.365   0.881   0.186
  704HOH      O 2298   0.878   0.935   2.945
  704HOH     H1 2299   0.799   0.920   2.893
  704HOH     H2 2300   0.846   0.962   3.031
  705HOH      O 2301   1.771   2.139   0.011
  705HOH     H1 2302   1.778   2.056   0.058
  705HOH     H2 2303   1.680   2.144  -0.016
  706HOH      O 2304   2.278   3.836   1.360
  706HOH     H1 2305   2.265   3.782   1.282
  706HOH     H2 2306   2.359   3.884   1.342
  707HOH      O 2307   3.487   1.804   3.380
  707HOH     H1 2308   3.522   1.768   3.298
  707HOH     H2 2309   3.398   1.830   3.358
  708HOH      O 2310   3.061   2.104   0.179
  708HOH     H1 2311   2.995   2.054   0.227
  708HOH     H2 2312   3.128   2.124   0.244
  709HOH      O 2313   3.124   3.972   3.681
  709HOH     H1 2314   3.205   3.963   3.731
  709HOH     H2 2315   3.098   3.882   3.660
  710HOH      O 2316   2.102   3.381   1.384
  710HOH     H1 2317   2.098   3.410   1.475
  710HOH     H2 2318   2.110   3.286   1.389
  711HOH      O 2319   1.075   2.481   2.881
  711HOH     H1 2320   1.016   2.439   2.944
  711HOH     H2 2321   1.024   2.485   2.800
  712HOH      O 2322   1.311   3.016   3.324
  712HOH     H1 2323   1.395   3.010   3.369
  712HOH     H2 2324   1.246   2.995   3.391
  713HOH      O 2325   2.674   0.961   0.132
  713HOH     H1 2326   2.666   0.930   0.041
  713HOH     H2 2327   2.760   0.931   0.160
  714HOH      O 2328   1.051   0.254   3.423
  714HOH     H1 2329   0.995   0.291   3.354
  714HOH     H2 2330   1.137   0.248   3.383
  715HOH      O 2331   1.440   0.495   3.087
  715HOH     H1 2332   1.514   0.508   3.028
  715HOH     H2 2333   1.365   0.532   3.040
  716HOH      O 2334   0.631   0.254   3.736
  716HOH     H1 2335   0.614   0.348   3.732
  716HOH     H2 2336   0.693   0.238   3.664
  717HOH      O 2337   2.706   0.285   1.556
  717HOH     H1 2338   2.739   0.367   1.520
  717HOH     H2 2339   2.674   0.308   1.643
  718HOH      O 2340   2.022   2.825   0.482
  718HOH     H1 2341   1.947   2.806   0.538
  718HOH     H2 2342   2.038   2.744   0.435
  719HOH      O 2343   1.140   2.951   1.252
  719HOH     H1 2344   1.127   2.872   1.305
  719HOH     H2 2345   1.199   2.924   1.182
  720HOH      O 2346   0.904   3.509   0.402
  720HOH     H1 2347   0.831   3.516   0.340
  720HOH     H2 2348   0.895   3.421   0.439
  721HOH      O 2349   0.763   3.822   1.470
  721HOH     H1 2350   0.700   3.773   1.522
  721HOH     H2 2351   0.840   3.766   1.466
  722HOH      O 2352   3.787   0.764   3.918
  722HOH     H1 2353   3.767   0.790   4.007
  722HOH     H2 2354   3.864   0.816   3.894
  723HOH      O 2355   3.833   2.903   2.368
  723HOH     H1 2356   3.858   2.811   2.357
  723HOH     H2 2357   3.800   2.929   2.282
  724HOH      O 2358   0.515   3.324   3.518
  724HOH     H1 2359   0.487   3.294   3.431
  724HOH     H2 2360   0.599   3.280   3.532
  725HOH      O 2361   1.602   0.175   2.696
  725HOH     H1 2362   1.524   0.178   2.751
  725HOH     H2 2363   1.662   0.117   2.742
  726HOH      O 2364   3.042   0.959   3.227
  726HOH     H1 2365   3.014   0.891   3.290
  726HOH     H2 2366   2.965   1.013   3.214
  727HOH      O 2367   0.674   2.267   0.829
  727HOH     H1 2368   0.661   2.180   0.866
  727HOH     H2 2369   0.608   2.274   0.760
  728HOH      O 2370   1.632   1.787   3.275
  728HOH     H1 2371   1.621   1.774   3.180
  728HOH     H2 2372   1.645   1.699   3.309
  729HOH      O 2373   1.548   1.243   3.517
  729HOH     H1 2374   1.561   1.149   3.507
  729HOH     H2 2375   1.507   1.254   3.603
  730HOH      O 2376   3.997   3.976   1.926
  730HOH     H1 2377   3.914   3.939   1.898
  730HOH     H2 2378   4.053   3.900   1.941
  731HOH      O 2379   1.403   1.837   2.420
  731HOH     H1 2380   1.414   1.924   2.380
  731HOH     H2 2381   1.477   1.787   2.388
  732HOH      O 2382   3.760   3.917   0.705
  732HOH     H1 2383   3.725   3.909   0.616
  732HOH     H2 2384   3.823   3.988   0.700
  733HOH      O 2385   3.318   1.574   3.694
  733HOH     H1 2386   3.390   1.578   3.631
  733HOH     H2 2387   3.354   1.525   3.768
  734HOH      O 2388   0.621   1.712   3.734
  734HOH     H1 2389   0.561   1.785   3.746
  734HOH     H2 2390   0.645   1.685   3.823
  735HOH      O 2391   0.445   3.587   0.423
  735HOH     H1 2392   0.460   3.667   0.474
  735HOH     H2 2393   0.498   3.599   0.344
  736HOH      O 2394   3.016   1.011   1.446
  736HOH     H1 2395   3.093   1.064   1.424
  736HOH     H2 2396   2.951   1.075   1.476
  737HOH      O 2397   1.791   0.463   2.390
  737HOH     H1 2398   1.777   0.482   2.483
  737HOH     H2 2399   1.725   0.515   2.345
  738HOH      O 2400   2.043   0.013   1.718
  738HOH     H1 2401   2.021  -0.021   1.632
  738HOH     H2 2402   2.070   0.103   1.701
  739HOH      O 2403   1.074   3.502   3.476
  739HOH     H1 2404   0.985   3.493   3.441
  739HOH     H2 2405   1.070   3.579   3.533
  740HOH      O 2406   2.870   0.115   1.941
  740HOH     H1 2407   2.851   0.200   1.981
  740HOH     H2 2408   2.927   0.137   1.866
  741HOH      O 2409   2.044   0.325   2.343
  741HOH     H1 2410   1.968   0.384   2.341
  741HOH     H2 2411   2.098   0.358   2.415
  742HOH      O 2412   2.816   4.020   2.885
  742HOH     H1 2413   2.871   4.096   2.871
  742HOH     H2 2414   2.853   3.952   2.829
  743HOH      O 2415   3.634   1.380   3.288
  743HOH     H1 2416   3.714   1.406   3.333
  743HOH     H2 2417   3.606   1.300   3.334
  744HOH      O 2418   2.032   3.965   1.438
  744HOH     H1 2419   2.120   3.934   1.413
  744HOH     H2 2420   1.973   3.899   1.402
  745HOH      O 2421   1.706   2.085   3.104
  745HOH     H1 2422   1.659   2.100   3.186
  745HOH     H2 2423   1.734   1.993   3.110
  746HOH      O 2424   2.656   3.423   0.196
  746HOH     H1 2425   2.637   3.330   0.190
  746HOH     H2 2426   2.709   3.441   0.118
  747HOH      O 2427   2.866   0.062   3.678
  747HOH     H1 2428   2.834  -0.011   3.624
  747HOH     H2 2429   2.954   0.036   3.703
  748HOH      O 2430   2.578   1.949   1.827
  748HOH     H1 2431   2.639   1.942   1.753
  748HOH     H2 2432   2.627   1.915   1.902
  749HOH      O 2433   1.409   3.597   1.492
  749HOH     H1 2434   1.365   3.595   1.407
  749HOH     H2 2435   1.370   3.524   1.540
  750HOH      O 2436   0.245   3.955   3.199
  750HOH     H1 2437   0.314   3.959   3.132
  750HOH     H2 2438   0.164   3.961   3.149
  751HOH      O 2439   1.602   2.806   3.021
  751HOH     H1 2440   1.507   2.792   3.018
  751HOH     H2 2441   1.627   2.782   3.110
  752HOH      O 2442   3.986   0.050   1.064
  752HOH     H1 2443   4.016   0.101   1.138
  752HOH     H2 2444   4.062   0.042   1.007
  753HOH      O 2445   0.375   1.410   1.320
  753HOH     H1 2446   0.458   1.405   1.368
  753HOH     H2 2447   0.331   1.487   1.358
  754HOH      O 2448   3.680   0.925   0.079
  754HOH     H1 2449   3.592   0.954   0.104
  754HOH     H2 2450   3.728   1.007   0.066
  755HOH      O 2451   0.193   0.815   0.430
  755HOH     H1 2452   0.174   0.765   0.509
  755HOH     H2 2453   0.119   0.874   0.420
  756HOH      O 2454   0.672   3.460   0.611
  756HOH     H1 2455   0.642   3.537   0.563
  756HOH     H2 2456   0.638   3.386   0.561
  757HOH      O 2457   2.472   0.244   0.904
  757HOH     H1 2458   2.451   0.153   0.924
  757HOH     H2 2459   2.439   0.294   0.979
  758HOH      O 2460   0.975   3.758   0.929
  758HOH     H1 2461   0.915   3.831   0.920
  758HOH     H2 2462   0.934   3.687   0.878
  759HOH      O 2463   1.160   1.610   0.720
  759HOH     H1 2464   1.067   1.591   0.710
  759HOH     H2 2465   1.182   1.583   0.809
  760HOH      O 2466   2.028   3.143   0.012
  760HOH     H1 2467   1.943   3.180   0.034
  760HOH     H2 2468   2.063   3.201  -0.056
  761HOH      O 2469   0.173   1.884   0.137
  761HOH     H1 2470   0.257   1.845   0.162
  761HOH     H2 2471   0.149   1.938   0.211
  762HOH      O 2472   2.232   2.654   1.480
  762HOH     H1 2473   2.235   2.742   1.518
  762HOH     H2 2474   2.255   2.595   1.552
  763HOH      O 2475   1.719   3.292   0.916
  763HOH     H1 2476   1.689   3.242   0.992
  763HOH     H2 2477   1.747   3.376   0.953
  764HOH      O 2478   1.279   3.663   3.947
  764HOH     H1 2479   1.277   3.736   3.884
  764HOH     H2 2480   1.373   3.646   3.960
  765HOH      O 2481   0.869   0.242   2.603
  765HOH     H1 2482   0.828   0.298   2.669
  765HOH     H2 2483   0.961   0.238   2.628
  766HOH      O 2484   1.318   1.199   2.148
  766HOH     H1 2485   1.278   1.124   2.193
  766HOH     H2 2486   1.255   1.223   2.080
  767HOH      O 2487   1.043   2.701   1.358
  767HOH     H1 2488   0.980   2.629   1.369
  767HOH     H2 2489   1.104   2.691   1.431
  768HOH      O 2490   0.465   0.056   2.284
  768HOH     H1 2491   0.534   0.017   2.231
  768HOH     H2 2492   0.507   0.077   2.367
  769HOH      O 2493   2.491   1.886   2.927
  769HOH     H1 2494   2.463   1.967   2.971
  769HOH     H2 2495   2.517   1.828   2.999
  770HOH      O 2496   3.950   0.131   3.260
  770HOH     H1 2497   3.870   0.096   3.299
  770HOH     H2 2498   4.003   0.157   3.335
  771HOH      O 2499   0.389   1.966   0.389
  771HOH     H1 2500   0.321   2.002   0.446
  771HOH     H2 2501   0.446   2.040   0.370
  772HOH      O 2502   1.346   3.591   0.267
  772HOH     H1 2503   1.357   3.681   0.295
  772HOH     H2 2504   1.401   3.540   0.327
  773HOH      O 2505   3.656   1.782   2.820
  773HOH     H1 2506   3.683   1.864   2.860
  773HOH     H2 2507   3.736   1.748   2.779
  774HOH      O 2508   1.743   1.946   2.414
  774HOH     H1 2509   1.773   1.983   2.331
  774HOH     H2 2510   1.708   2.021   2.462
  775HOH      O 2511   0.071   1.918   3.298
  775HOH     H1 2512   0.072   1.949   3.208
  775HOH     H2 2513  -0.021   1.900   3.317
  776HOH      O 2514   0.039   0.181   2.926
  776HOH     H1 2515   0.012   0.254   2.982
  776HOH     H2 2516   0.062   0.221   2.842
  777HOH      O 2517   3.395   2.307   0.196
  777HOH     H1 2518   3.368   2.224   0.235
  777HOH     H2 2519   3.477   2.287   0.150
  778HOH      O 2520   1.294   3.198   3.704
  778HOH     H1 2521   1.253   3.118   3.738
  778HOH     H2 2522   1.296   3.257   3.779
  779HOH      O 2523   3.966   0.570   1.208
  779HOH     H1 2524   3.899   0.633   1.183
  779HOH     H2 2525   3.969   0.507   1.136
  780HOH      O 2526   2.098   0.501   1.546
  780HOH     H1 2527   2.081   0.534   1.634
  780HOH     H2 2528   2.014   0.508   1.501
  781HOH      O 2529   1.153   3.225   1.448
  781HOH     H1 2530   1.158   3.151   1.388
  781HOH     H2 2531   1.093   3.287   1.406
  782HOH      O 2532   2.225   1.644   2.414
  782HOH     H1 2533   2.285   1.705   2.457
  782HOH     H2 2534   2.268   1.622   2.331
  783HOH      O 2535   0.877   0.950   1.843
  783HOH     H1 2536   0.872   0.922   1.752
  783HOH     H2 2537   0.945   1.018   1.844
  784HOH      O 2538   2.664   1.478   2.901
  784HOH     H1 2539   2.701   1.447   2.984
  784HOH     H2 2540   2.707   1.425   2.834
  785HOH      O 2541   3.802   0.856   1.973
  785HOH     H1 2542   3.726   0.914   1.977
  785HOH     H2 2543   3.866   0.897   2.032
  786HOH      O 2544   3.799   3.329   1.417
  786HOH     H1 2545   3.751   3.270   1.358
  786HOH     H2 2546   3.785   3.416   1.380
  787HOH      O 2547   1.738   3.969   3.971
  787HOH     H1 2548   1.743   4.015   4.054
  787HOH     H2 2549   1.824   3.982   3.931
  788HOH      O 2550   3.203   2.892   2.180
  788HOH     H1 2551   3.117   2.853   2.195
  788HOH     H2 2552   3.183   2.980   2.148
  789HOH      O 2553   2.392   1.282   1.865
  789HOH     H1 2554   2.366   1.278   1.773
  789HOH     H2 2555   2.345   1.358   1.900
  790HOH      O 2556   3.730   3.980   2.931
  790HOH     H1 2557   3.744   4.028   2.850
  790HOH     H2 2558   3.672   4.036   2.983
  791HOH      O 2559   1.020   3.049   2.619
  791HOH     H1 2560   0.949   2.985   2.626
  791HOH     H2 2561   1.096   3.006   2.658
  792HOH      O 2562   3.678   0.661   0.208
  792HOH     H1 2563   3.704   0.594   0.144
  792HOH     H2 2564   3.646   0.734   0.154
  793HOH      O 2565   2.539   0.691   1.924
  793HOH     H1 2566   2.559   0.659   2.011
  793HOH     H2 2567   2.462   0.641   1.897
  794HOH      O 2568   3.173   3.485   2.581
  794HOH     H1 2569   3.237   3.464   2.514
  794HOH     H2 2570   3.090   3.495   2.534
  795HOH      O 2571   2.661   2.213   2.184
  795HOH     H1 2572   2.704   2.128   2.183
  795HOH     H2 2573   2.685   2.252   2.269
  796HOH      O 2574   2.836   2.167   1.803
  796HOH     H1 2575   2.765   2.232   1.800
  796HOH     H2 2576   2.882   2.187   1.885
  797HOH      O 2577   0.456   1.502   1.771
  797HOH     H1 2578   0.478   1.518   1.679
  797HOH     H2 2579   0.425   1.412   1.773
  798HOH      O 2580   1.167   1.002   2.428
  798HOH     H1 2581   1.091   1.023   2.483
  798HOH     H2 2582   1.220   1.082   2.429
  799HOH      O 2583   0.460   2.259   0.639
  799HOH     H1 2584   0.380   2.207   0.646
  799HOH     H2 2585   0.506   2.223   0.564
  800HOH      O 2586   0.504   3.984   3.052
  800HOH     H1 2587   0.565   3.993   3.125
  800HOH     H2 2588   0.537   4.044   2.985
  801HOH      O 2589   1.059   0.722   3.281
  801HOH     H1 2590   1.026   0.766   3.359
  801HOH     H2 2591   0.983   0.717   3.223
  802HOH      O 2592   2.897   4.006   1.027
  802HOH     H1 2593   2.846   4.074   0.983
  802HOH     H2 2594   2.847   3.986   1.106
  803HOH      O 2595   2.300   0.137   2.614
  803HOH     H1 2596   2.333   0.226   2.598
  803HOH     H2 2597   2.252   0.144   2.697
  804HOH      O 2598   1.652   2.763   0.116
  804HOH     H1 2599   1.694   2.814   0.186
  804HOH     H2 2600   1.681   2.673   0.131
  805HOH      O 2601   0.304   1.707   3.606
  805HOH     H1 2602   0.347   1.652   3.540
  805HOH     H2 2603   0.299   1.651   3.683
  806HOH      O 2604   0.652   0.167   1.508
  806HOH     H1 2605   0.714   0.148   1.578
  806HOH     H2 2606   0.696   0.232   1.453
  807HOH      O 2607   1.926   2.208   2.909
  807HOH     H1 2608   1.869   2.214   2.986
  807HOH     H2 2609   1.883   2.144   2.852
  808HOH      O 2610   3.206   2.630   2.483
  808HOH     H1 2611   3.228   2.630   2.390
  808HOH     H2 2612   3.275   2.577   2.523
  809HOH      O 2613   2.669   2.964   0.351
  809HOH     H1 2614   2.745   2.908   0.367
  809HOH     H2 2615   2.594   2.909   0.375
  810HOH      O 2616   1.252   2.206   1.984
  810HOH     H1 2617   1.317   2.276   1.984
  810HOH     H2 2618   1.264   2.161   1.900
  811HOH      O 2619   0.738   3.672   1.164
  811HOH     H1 2620   0.706   3.755   1.198
  811HOH     H2 2621   0.825   3.661   1.203
  812HOH      O 2622   1.578   3.861   2.059
  812HOH     H1 2623   1.586   3.769   2.082
  812HOH     H2 2624   1.621   3.868   1.974
  813HOH      O 2625   1.385   1.248   1.571
  813HOH     H1 2626   1.320   1.208   1.512
  813HOH     H2 2627   1.453   1.280   1.513
  814HOH      O 2628   1.749   1.522   1.529
  814HOH     H1 2629   1.798   1.542   1.609
  814HOH     H2 2630   1.773   1.592   1.468
  815HOH      O 2631   1.006   3.151   3.685
  815HOH     H1 2632   1.042   3.078   3.734
  815HOH     H2 2633   1.042   3.229   3.727
  816HOH      O 2634   2.115   1.709   0.778
  816HOH     H1 2635   2.019   1.717   0.774
  816HOH     H2 2636   2.146   1.799   0.773
  817HOH      O 2637   3.535   3.539   1.512
  817HOH     H1 2638   3.587   3.522   1.590
  817HOH     H2 2639   3.592   3.593   1.457
  818HOH      O 2640   0.210   3.136   3.997
  818HOH     H1 2641   0.207   3.200   4.068
  818HOH     H2 2642   0.158   3.062   4.028
  819HOH      O 2643   2.990   1.600   0.455
  819HOH     H1 2644   3.048   1.524   0.460
  819HOH     H2 2645   2.902   1.563   0.465
  820HOH      O 2646   0.363   0.140   3.861
  820HOH     H1 2647   0.454   0.112   3.874
  820HOH     H2 2648   0.361   0.229   3.895
  821HOH      O 2649   3.633   1.036   3.041
  821HOH     H1 2650   3.690   1.086   3.099
  821HOH     H2 2651   3.604   0.962   3.094
  822HOH      O 2652   1.899   1.177   1.566
  822HOH     H1 2653   1.949   1.095   1.565
  822HOH     H2 2654   1.808   1.150   1.564
  823HOH      O 2655   0.583   3.726   2.478
  823HOH     H1 2656   0.575   3.792   2.409
  823HOH     H2 2657   0.559   3.773   2.558
  824HOH      O 2658   2.695   3.731   0.102
  824HOH     H1 2659   2.609   3.689   0.095
  824HOH     H2 2660   2.709   3.742   0.196
  825HOH      O 2661   0.537   3.850   3.584
  825HOH     H1 2662   0.456   3.802   3.568
  825HOH     H2 2663   0.606   3.785   3.572
  826HOH      O 2664   3.753   3.005   0.163
  826HOH     H1 2665   3.684   3.071   0.152
  826HOH     H2 2666   3.834   3.052   0.145
  827HOH      O 2667   2.425   1.025   2.562
  827HOH     H1 2668   2.384   0.968   2.496
  827HOH     H2 2669   2.519   1.012   2.550
  828HOH      O 2670   2.341   2.908   0.668
  828HOH     H1 2671   2.260   2.937   0.626
  828HOH     H2 2672   2.349   2.816   0.644
  829HOH      O 2673   1.058   2.943   1.630
  829HOH     H1 2674   1.075   2.871   1.692
  829HOH     H2 2675   1.144   2.983   1.617
  830HOH      O 2676   2.271   2.358   0.757
  830HOH     H1 2677   2.305   2.274   0.788
  830HOH     H2 2678   2.223   2.393   0.833
  831HOH      O 2679   0.388   3.005   1.533
  831HOH     H1 2680   0.343   3.089   1.544
  831HOH     H2 2681   0.464   3.026   1.478
  832HOH      O 2682   1.454   3.598   2.731
  832HOH     H1 2683   1.365   3.598   2.766
  832HOH     H2 2684   1.456   3.671   2.670
  833HOH      O 2685   2.993   1.113   3.904
  833HOH     H1 2686   2.962   1.188   3.954
  833HOH     H2 2687   3.088   1.111   3.919
  834HOH      O 2688   2.635   0.315   1.862
  834HOH     H1 2689   2.566   0.251   1.880
  834HOH     H2 2690   2.669   0.338   1.948
  835HOH      O 2691   3.498   3.036   0.607
  835HOH     H1 2692   3.405   3.058   0.616
  835HOH     H2 2693   3.533   3.042   0.697
  836HOH      O 2694   2.974   2.484   3.358
  836HOH     H1 2695   3.037   2.517   3.293
  836HOH     H2 2696   2.976   2.549   3.428
  837HOH      O 2697   1.327   3.221   1.059
  837HOH     H1 2698   1.392   3.166   1.016
  837HOH     H2 2699   1.371   3.250   1.139
  838HOH      O 2700   3.462   0.587   3.951
  838HOH     H1 2701   3.435   0.541   3.871
  838HOH     H2 2702   3.479   0.517   4.014
  839HOH      O 2703   2.502   3.034   2.893
  839HOH     H1 2704   2.422   3.014   2.941
  839HOH     H2 2705   2.515   3.128   2.905
  840HOH      O 2706   2.558   0.470   1.304
  840HOH     H1 2707   2.495   0.429   1.363
  840HOH     H2 2708   2.505   0.499   1.229
  841HOH      O 2709   1.409   0.813   3.493
  841HOH     H1 2710   1.437   0.743   3.434
  841HOH     H2 2711   1.469   0.807   3.568
  842HOH      O 2712   3.239   0.729   2.696
  842HOH     H1 2713   3.290   0.706   2.618
  842HOH     H2 2714   3.246   0.652   2.753
  843HOH      O 2715   1.365   0.062   1.771
  843HOH     H1 2716   1.360  -0.029   1.800
  843HOH     H2 2717   1.423   0.059   1.695
  844HOH      O 2718   2.862   3.401   2.442
  844HOH     H1 2719   2.768   3.420   2.434
  844HOH     H2 2720   2.903   3.487   2.451
  845HOH      O 2721   0.650   0.267   0.802
  845HOH     H1 2722   0.698   0.348   0.783
  845HOH     H2 2723   0.610   0.283   0.887
  846HOH      O 2724   3.943   1.721   1.456
  846HOH     H1 2725   3.851   1.702   1.474
  846HOH     H2 2726   3.942   1.809   1.418
  847HOH      O 2727   0.115   0.517   2.098
  847HOH     H1 2728   0.045   0.453   2.084
  847HOH     H2 2729   0.195   0.465   2.097
  848HOH      O 2730   3.134   2.365   2.780
  848HOH     H1 2731   3.147   2.387   2.687
  848HOH     H2 2732   3.213   2.318   2.805
  849HOH      O 2733   0.788   3.238   3.521
  849HOH     H1 2734   0.809   3.316   3.469
  849HOH     H2 2735   0.868   3.219   3.569
  850HOH      O 2736   3.333   3.101   0.288
  850HOH     H1 2737   3.403   3.037   0.298
  850HOH     H2 2738   3.365   3.179   0.334
  851HOH      O 2739   0.711   0.189   1.879
  851HOH     H1 2740   0.651   0.163   1.948
  851HOH     H2 2741   0.660   0.247   1.823
  852HOH      O 2742   2.855   3.311   2.709
  852HOH     H1 2743   2.903   3.229   2.718
  852HOH     H2 2744   2.882   3.346   2.624
  853HOH      O 2745   0.472   1.776   2.632
  853HOH     H1 2746   0.416   1.850   2.654
  853HOH     H2 2747   0.534   1.770   2.704
  854HOH      O 2748   0.700   2.026   2.684
  854HOH     H1 2749   0.701   1.948   2.740
  854HOH     H2 2750   0.775   2.013   2.625
  855HOH      O 2751   0.942   2.323   3.094
  855HOH     H1 2752   0.865   2.266   3.088
  855HOH     H2 2753   0.913   2.397   3.147
  856HOH      O 2754   2.405   0.733   0.222
  856HOH     H1 2755   2.472   0.732   0.290
  856HOH     H2 2756   2.324   0.709   0.267
  857HOH      O 2757   0.408   0.253   2.646
  857HOH     H1 2758   0.503   0.240   2.652
  857HOH     H2 2759   0.373   0.166   2.630
  858HOH      O 2760   1.530   1.768   1.496
  858HOH     H1 2761   1.615   1.771   1.540
  858HOH     H2 2762   1.472   1.725   1.559
  859HOH      O 2763   2.311   3.580   0.771
  859HOH     H1 2764   2.233   3.570   0.717
  859HOH     H2 2765   2.384   3.570   0.710
  860HOH      O 2766   2.100   0.726   1.143
  860HOH     H1 2767   2.175   0.706   1.088
  860HOH     H2 2768   2.136   0.733   1.231
  861HOH      O 2769   3.302   3.240   2.127
  861HOH     H1 2770   3.272   3.328   2.104
  861HOH     H2 2771   3.275   3.186   2.052
  862HOH      O 2772   2.736   0.764   2.972
  862HOH     H1 2773   2.647   0.799   2.968
  862HOH     H2 2774   2.739   0.713   3.054
  863HOH      O 2775   1.010   3.372   1.999
  863HOH     H1 2776   0.958   3.394   2.077
  863HOH     H2 2777   1.049   3.455   1.972
  864HOH      O 2778   4.020   1.997   1.969
  864HOH     H1 2779   3.989   2.010   1.879
  864HOH     H2 2780   3.961   1.931   2.006
  865HOH      O 2781   1.803   0.529   2.005
  865HOH     H1 2782   1.826   0.445   2.045
  865HOH     H2 2783   1.720   0.513   1.961
  866HOH      O 2784   3.411   3.841   0.074
  866HOH     H1 2785   3.400   3.936   0.082
  866HOH     H2 2786   3.322   3.806   0.070
  867HOH      O 2787   2.903   1.053   1.958
  867HOH     H1 2788   2.838   1.104   1.909
  867HOH     H2 2789   2.919   1.105   2.037
  868HOH      O 2790   0.870   1.505   3.068
  868HOH     H1 2791   0.901   1.548   3.148
  868HOH     H2 2792   0.949   1.492   3.015
  869HOH      O 2793   2.495   1.124   1.466
  869HOH     H1 2794   2.410   1.082   1.454
  869HOH     H2 2795   2.551   1.084   1.399
  870HOH      O 2796   0.641   2.217   0.058
  870HOH     H1 2797   0.631   2.128   0.026
  870HOH     H2 2798   0.619   2.273  -0.016
  871HOH      O 2799   2.643   0.888   3.587
  871HOH     H1 2800   2.725   0.840   3.596
  871HOH     H2 2801   2.662   0.976   3.619
  872HOH      O 2802   1.468   2.444   0.382
  872HOH     H1 2803   1.377   2.472   0.371
  872HOH     H2 2804   1.466   2.385   0.457
  873HOH      O 2805   0.781   2.042   1.400
  873HOH     H1 2806   0.709   2.098   1.430
  873HOH     H2 2807   0.784   1.971   1.464
  874HOH      O 2808   2.759   2.787   0.829
  874HOH     H1 2809   2.853   2.804   0.823
  874HOH     H2 2810   2.720   2.873   0.845
  875HOH      O 2811   2.385   0.446   0.716
  875HOH     H1 2812   2.416   0.375   0.773
  875HOH     H2 2813   2.299   0.468   0.750
  876HOH      O 2814   0.127   3.415   3.119
  876HOH     H1 2815   0.195   3.405   3.052
  876HOH     H2 2816   0.102   3.325   3.141
  877HOH      O 2817   3.347   0.873   3.504
  877HOH     H1 2818   3.299   0.939   3.554
  877HOH     H2 2819   3.439   0.886   3.529
  878HOH      O 2820   1.929   1.474   0.215
  878HOH     H1 2821   1.915   1.395   0.163
  878HOH     H2 2822   1.860   1.534   0.186
  879HOH      O 2823   1.095   1.851   2.733
  879HOH     H1 2824   1.087   1.822   2.824
  879HOH     H2 2825   1.134   1.775   2.687
  880HOH      O 2826   1.787   2.553   0.794
  880HOH     H1 2827   1.774   2.462   0.767
  880HOH     H2 2828   1.879   2.571   0.775
  881HOH      O 2829   1.368   0.562   1.544
  881HOH     H1 2830   1.418   0.563   1.462
  881HOH     H2 2831   1.292   0.618   1.526
  882HOH      O 2832   1.528   3.943   1.253
  882HOH     H1 2833   1.481   3.923   1.171
  882HOH     H2 2834   1.616   3.909   1.239
  883HOH      O 2835   3.295   3.162   1.195
  883HOH     H1 2836   3.390   3.170   1.202
  883HOH     H2 2837   3.274   3.085   1.248
  884HOH      O 2838   3.640   2.910   2.138
  884HOH     H1 2839   3.664   2.980   2.077
  884HOH     H2 2840   3.601   2.842   2.081
  885HOH      O 2841   1.436   3.858   0.365
  885HOH     H1 2842   1.447   3.938   0.416
  885HOH     H2 2843   1.516   3.852   0.311
  886HOH      O 2844   3.093   3.242   3.041
  886HOH     H1 2845   3.085   3.192   2.960
  886HOH     H2 2846   3.003   3.252   3.072
  887HOH      O 2847   0.671   2.052   1.095
  887HOH     H1 2848   0.715   1.991   1.036
  887HOH     H2 2849   0.633   1.997   1.164
  888HOH      O 2850   0.202   3.031   2.925
  888HOH     H1 2851   0.198   2.951   2.873
  888HOH     H2 2852   0.230   3.002   3.012
  889HOH      O 2853   1.600   1.052   3.347
  889HOH     H1 2854   1.638   0.967   3.324
  889HOH     H2 2855   1.507   1.044   3.324
  890HOH      O 2856   3.566   0.335   0.051
  890HOH     H1 2857   3.513   0.336   0.131
  890HOH     H2 2858   3.649   0.376   0.077
  891HOH      O 2859   0.443   0.349   2.364
  891HOH     H1 2860   0.423   0.262   2.398
  891HOH     H2 2861   0.370   0.403   2.392
  892HOH      O 2862   3.979   3.326   0.420
  892HOH     H1 2863   4.066   3.361   0.401
  892HOH     H2 2864   3.996   3.239   0.457
  893HOH      O 2865   0.011   0.037   0.080
  893HOH     H1 2866   0.087  -0.019   0.068
  893HOH     H2 2867   0.040   0.124   0.049
  894HOH      O 2868   2.536   2.358   3.136
  894HOH     H1 2869   2.486   2.438   3.152
  894HOH     H2 2870   2.569   2.367   3.046
  895HOH      O 2871   0.253   4.002   3.459
  895HOH     H1 2872   0.320   4.066   3.481
  895HOH     H2 2873   0.261   3.990   3.364
  896HOH      O 2874   1.710   2.841   3.795
  896HOH     H1 2875   1.710   2.888   3.878
  896HOH     H2 2876   1.656   2.764   3.811
  897HOH      O 2877   2.785   1.242   3.006
  897HOH     H1 2878   2.790   1.268   2.913
  897HOH     H2 2879   2.809   1.150   3.006
  898HOH      O 2880   3.584   2.731   3.785
  898HOH     H1 2881   3.549   2.643   3.802
  898HOH     H2 2882   3.539   2.788   3.847
  899HOH      O 2883   3.361   2.624   2.250
  899HOH     H1 2884   3.445   2.663   2.274
  899HOH     H2 2885   3.324   2.683   2.185
  900HOH      O 2886   2.512   0.382   3.465
  900HOH     H1 2887   2.593   0.333   3.466
  900HOH     H2 2888   2.538   0.473   3.449
  901HOH      O 2889   1.911   2.005   0.633
  901HOH     H1 2890   1.884   2.061   0.559
  901HOH     H2 2891   2.001   2.032   0.651
  902HOH      O 2892   3.883   3.955   2.448
  902HOH     H1 2893   3.862   3.885   2.509
  902HOH     H2 2894   3.842   3.929   2.366
  903HOH      O 2895   1.667   3.066   3.319
  903HOH     H1 2896   1.617   3.088   3.398
  903HOH     H2 2897   1.730   3.000   3.349
  904HOH      O 2898   2.239   2.835   0.914
  904HOH     H1 2899   2.281   2.867   0.835
  904HOH     H2 2900   2.284   2.880   0.986
  905HOH      O 2901   3.052   0.819   2.112
  905HOH     H1 2902   3.147   0.829   2.112
  905HOH     H2 2903   3.018   0.907   2.095
  906HOH      O 2904   1.878   2.113   1.650
  906HOH     H1 2905   1.900   2.184   1.590
  906HOH     H2 2906   1.909   2.034   1.605
  907HOH      O 2907   1.249   1.267   2.460
  907HOH     H1 2908   1.304   1.295   2.533
  907HOH     H2 2909   1.271   1.328   2.389
  908HOH      O 2910   2.752   2.898   2.868
  908HOH     H1 2911   2.743   2.829   2.934
  908HOH     H2 2912   2.668   2.943   2.870
  909HOH      O 2913   1.507   2.406   1.303
  909HOH     H1 2914   1.534   2.321   1.270
  909HOH     H2 2915   1.542   2.469   1.240
  910HOH      O 2916   0.743   2.182   3.547
  910HOH     H1 2917   0.661   2.142   3.575
  910HOH     H2 2918   0.801   2.174   3.623
  911HOH      O 2919   0.881   2.175   3.782
  911HOH     H1 2920   0.813   2.225   3.827
  911HOH     H2 2921   0.911   2.111   3.847
  912HOH      O 2922   1.891   3.975   3.688
  912HOH     H1 2923   1.974   4.023   3.686
  912HOH     H2 2924   1.881   3.942   3.599
  913HOH      O 2925   2.328   0.680   2.980
  913HOH     H1 2926   2.348   0.632   2.899
  913HOH     H2 2927   2.232   0.680   2.983
  914HOH      O 2928   0.517   2.010   2.220
  914HOH     H1 2929   0.461   2.046   2.289
  914HOH     H2 2930   0.506   1.915   2.228
  915HOH      O 2931   1.849   2.882   2.428
  915HOH     H1 2932   1.911   2.829   2.378
  915HOH     H2 2933   1.818   2.948   2.366
  916HOH      O 2934   2.835   2.761   0.361
  916HOH     H1 2935   2.880   2.725   0.285
  916HOH     H2 2936   2.886   2.731   0.436
  917HOH      O 2937   3.467   0.402   2.255
  917HOH     H1 2938   3.451   0.480   2.202
  917HOH     H2 2939   3.548   0.422   2.303
  918HOH      O 2940   2.450   3.161   3.776
  918HOH     H1 2941   2.516   3.121   3.833
  918HOH     H2 2942   2.369   3.117   3.800
  919HOH      O 2943   3.503   3.857   1.363
  919HOH     H1 2944   3.488   3.927   1.300
  919HOH     H2 2945   3.557   3.794   1.316
  920HOH      O 2946   2.971   2.880   1.508
  920HOH     H1 2947   2.915   2.901   1.432
  920HOH     H2 2948   2.989   2.787   1.499
  921HOH      O 2949   3.211   0.524   0.731
  921HOH     H1 2950   3.190   0.468   0.656
  921HOH     H2 2951   3.237   0.462   0.800
  922HOH      O 2952   0.505   1.176   3.151
  922HOH     H1 2953   0.503   1.086   3.183
  922HOH     H2 2954   0.552   1.225   3.218
  923HOH      O 2955   1.125   2.366   0.630
  923HOH     H1 2956   1.214   2.361   0.664
  923HOH     H2 2957   1.070   2.342   0.705
  924HOH      O 2958   3.703   2.166   1.870
  924HOH     H1 2959   3.722   2.213   1.789
  924HOH     H2 2960   3.768   2.197   1.933
  925HOH      O 2961   2.374   1.794   3.309
  925HOH     H1 2962   2.366   1.748   3.225
  925HOH     H2 2963   2.422   1.732   3.365
  926HOH      O 2964   1.584   3.260   0.680
  926HOH     H1 2965   1.556   3.170   0.694
  926HOH     H2 2966   1.630   3.283   0.761
  927HOH      O 2967   3.370   2.412   3.420
  927HOH     H1 2968   3.452   2.436   3.375
  927HOH     H2 2969   3.373   2.317   3.424
  928HOH      O 2970   0.006   3.317   2.381
  928HOH     H1 2971   0.059   3.365   2.444
  928HOH     H2 2972  -0.016   3.235   2.426
  929HOH      O 2973   0.691   2.143   2.073
  929HOH     H1 2974   0.642   2.177   1.997
  929HOH     H2 2975   0.624   2.118   2.136
  930HOH      O 2976   1.169   3.361   2.912
  930HOH     H1 2977   1.200   3.312   2.836
  930HOH     H2 2978   1.090   3.315   2.940
  931HOH      O 2979   3.650   3.170   3.692
  931HOH     H1 2980   3.558   3.160   3.668
  931HOH     H2 2981   3.692   3.089   3.663
  932HOH      O 2982   2.330   2.265   3.444
  932HOH     H1 2983   2.375   2.349   3.436
  932HOH     H2 2984   2.265   2.279   3.513
  933HOH      O 2985   1.161   2.860   3.530
  933HOH     H1 2986   1.082   2.826   3.488
  933HOH     H2 2987   1.149   2.841   3.623
  934HOH      O 2988   1.232   3.714   2.322
  934HOH     H1 2989   1.154   3.672   2.358
  934HOH     H2 2990   1.250   3.667   2.241
  935HOH      O 2991   3.822   3.545   0.533
  935HOH     H1 2992   3.889   3.609   0.508
  935HOH     H2 2993   3.855   3.462   0.500
  936HOH      O 2994   0.061   3.804   3.528
  936HOH     H1 2995   0.126   3.872   3.511
  936HOH     H2 2996   0.081   3.735   3.465
  937HOH      O 2997   3.743   0.960   3.356
  937HOH     H1 2998   3.826   0.914   3.367
  937HOH     H2 2999   3.690   0.933   3.432
  938HOH      O 3000   1.081   1.419   3.405
  938HOH     H1 3001   0.990   1.447   3.415
  938HOH     H2 3002   1.132   1.485   3.452
  939HOH      O 3003   2.916   2.195   2.048
  939HOH     H1 3004   2.987   2.152   2.096
  939HOH     H2 3005   2.911   2.283   2.086
  940HOH      O 3006   3.379   0.283   0.262
  940HOH     H1 3007   3.414   0.258   0.348
  940HOH     H2 3008   3.377   0.202   0.212
  941HOH      O 3009   2.979   2.166   3.964
  941HOH     H1 3010   3.009   2.163   4.054
  941HOH     H2 3011   3.055   2.194   3.914
  942HOH      O 3012   3.814   2.304   2.849
  942HOH     H1 3013   3.833   2.323   2.758
  942HOH     H2 3014   3.875   2.235   2.873
  943HOH      O 3015   1.343   2.092   2.384
  943HOH     H1 3016   1.314   2.093   2.476
  943HOH     H2 3017   1.270   2.053   2.336
  944HOH      O 3018   2.523   1.988   2.489
  944HOH     H1 3019   2.551   2.010   2.578
  944HOH     H2 3020   2.486   2.070   2.455
  945HOH      O 3021   3.410   3.189   0.832
  945HOH     H1 3022   3.363   3.226   0.906
  945HOH     H2 3023   3.451   3.265   0.790
  946HOH      O 3024   4.002   1.381   2.063
  946HOH     H1 3025   3.975   1.291   2.085
  946HOH     H2 3026   4.018   1.422   2.148
  947HOH      O 3027   2.192   1.973   0.088
  947HOH     H1 3028   2.222   1.998   0.175
  947HOH     H2 3029   2.252   2.018   0.029
  948HOH      O 3030   2.093   1.137   2.854
  948HOH     H1 3031   2.117   1.131   2.762
  948HOH     H2 3032   2.151   1.204   2.889
  949HOH      O 3033   3.714   0.511   2.367
  949HOH     H1 3034   3.675   0.598   2.357
  949HOH     H2 3035   3.675   0.477   2.447
  950HOH      O 3036   2.972   3.973   1.506
  950HOH     H1 3037   3.026   3.902   1.540
  950HOH     H2 3038   2.988   3.973   1.412
  951HOH      O 3039   1.077   3.290   0.046
  951HOH     H1 3040   0.983   3.277   0.037
  951HOH     H2 3041   1.086   3.344   0.124
  952HOH      O 3042   3.557   1.272   1.774
  952HOH     H1 3043   3.465   1.287   1.798
  952HOH     H2 3044   3.566   1.177   1.771
  953HOH      O 3045   3.936   1.616   2.976
  953HOH     H1 3046   3.908   1.652   2.892
  953HOH     H2 3047   3.862   1.562   3.005
  954HOH      O 3048   2.359   3.096   2.178
  954HOH     H1 3049   2.356   3.028   2.110
  954HOH     H2 3050   2.331   3.051   2.258
  955HOH      O 3051   0.437   1.052   1.843
  955HOH     H1 3052   0.439   0.957   1.856
  955HOH     H2 3053   0.395   1.087   1.922
  956HOH      O 3054   3.333   2.687   3.464
  956HOH     H1 3055   3.318   2.596   3.439
  956HOH     H2 3056   3.297   2.694   3.553
  957HOH      O 3057   1.376   0.149   3.462
  957HOH     H1 3058   1.323   0.164   3.540
  957HOH     H2 3059   1.455   0.201   3.477
  958HOH      O 3060   0.178   1.618   1.398
  958HOH     H1 3061   0.208   1.651   1.313
  958HOH     H2 3062   0.093   1.659   1.410
  959HOH      O 3063   0.866   2.482   1.361
  959HOH     H1 3064   0.903   2.436   1.437
  959HOH     H2 3065   0.795   2.425   1.331
  960HOH      O 3066   2.074   2.396   4.019
  960HOH     H1 3067   2.103   2.485   4.001
  960HOH     H2 3068   1.987   2.390   3.980
  961HOH      O 3069   2.699   0.369   0.424
  961HOH     H1 3070   2.651   0.290   0.397
  961HOH     H2 3071   2.755   0.388   0.348
  962HOH      O 3072   0.594   2.287   2.497
  962HOH     H1 3073   0.620   2.236   2.574
  962HOH     H2 3074   0.675   2.321   2.461
  963HOH      O 3075   2.952   3.040   0.399
  963HOH     H1 3076   2.952   2.945   0.408
  963HOH     H2 3077   3.045   3.064   0.399
  964HOH      O 3078   0.315   1.950   1.412
  964HOH     H1 3079   0.395   1.973   1.366
  964HOH     H2 3080   0.342   1.884   1.475
  965HOH      O 3081   2.922   0.481   1.032
  965HOH     H1 3082   2.837   0.521   1.050
  965HOH     H2 3083   2.956   0.457   1.118
  966HOH      O 3084   4.011   2.406   0.315
  966HOH     H1 3085   3.963   2.333   0.275
  966HOH     H2 3086   4.051   2.451   0.241
  967HOH      O 3087   3.186   1.070   3.604
  967HOH     H1 3088   3.122   1.137   3.581
  967HOH     H2 3089   3.170   1.054   3.698
  968HOH      O 3090   3.596   3.254   0.241
  968HOH     H1 3091   3.511   3.292   0.220
  968HOH     H2 3092   3.603   3.262   0.336
  969HOH      O 3093   1.678   1.129   1.888
  969HOH     H1 3094   1.765   1.141   1.926
  969HOH     H2 3095   1.692   1.126   1.794
  970HOH      O 3096   3.974   2.255   3.952
  970HOH     H1 3097   3.903   2.254   3.888
  970HOH     H2 3098   4.052   2.233   3.901
  971HOH      O 3099   3.072   0.426   3.230
  971HOH     H1 3100   3.153   0.399   3.272
  971HOH     H2 3101   3.089   0.516   3.200
  972HOH      O 3102   1.002   0.479   1.476
  972HOH     H1 3103   0.991   0.556   1.420
  972HOH     H2 3104   0.958   0.408   1.429
  973HOH      O 3105   2.259   0.713   2.655
  973HOH     H1 3106   2.322   0.785   2.658
  973HOH     H2 3107   2.310   0.636   2.682
  974HOH      O 3108   1.884   2.858   0.738
  974HOH     H1 3109   1.909   2.946   0.767
  974HOH     H2 3110   1.955   2.802   0.768
  975HOH      O 3111   0.410   2.947   3.556
  975HOH     H1 3112   0.447   2.980   3.475
  975HOH     H2 3113   0.461   2.868   3.576
  976HOH      O 3114   3.143   0.959   1.151
  976HOH     H1 3115   3.209   0.977   1.218
  976HOH     H2 3116   3.104   1.045   1.134
  977HOH      O 3117   3.683   0.050   3.331
  977HOH     H1 3118   3.730  -0.007   3.392
  977HOH     H2 3119   3.649  -0.009   3.264
  978HOH      O 3120   1.201   3.949   0.534
  978HOH     H1 3121   1.130   4.003   0.498
  978HOH     H2 3122   1.156   3.887   0.592
  979HOH      O 3123   0.110   3.785   1.353
  979HOH     H1 3124   0.127   3.862   1.406
  979HOH     H2 3125   0.132   3.812   1.264
  980HOH      O 3126   2.867   3.282   0.388
  980HOH     H1 3127   2.802   3.288   0.317
  980HOH     H2 3128   2.892   3.190   0.390
  981HOH      O 3129   3.742   1.688   1.176
  981HOH     H1 3130   3.822   1.641   1.201
  981HOH     H2 3131   3.683   1.674   1.249
  982HOH      O 3132   2.309   1.600   0.629
  982HOH     H1 3133   2.380   1.649   0.587
  982HOH     H2 3134   2.242   1.666   0.648
  983HOH      O 3135   3.822   3.460   3.386
  983HOH     H1 3136   3.840   3.533   3.327
  983HOH     H2 3137   3.907   3.419   3.401
  984HOH      O 3138   2.966   1.878   2.360
  984HOH     H1 3139   3.015   1.908   2.284
  984HOH     H2 3140   3.031   1.869   2.429
  985HOH      O 3141   0.338   0.762   1.785
  985HOH     H1 3142   0.248   0.729   1.789
  985HOH     H2 3143   0.388   0.692   1.743
  986HOH      O 3144   0.358   0.184   0.751
  986HOH     H1 3145   0.394   0.235   0.823
  986HOH     H2 3146   0.432   0.173   0.691
  987HOH      O 3147   3.123   1.816   1.924
  987HOH     H1 3148   3.039   1.774   1.904
  987HOH     H2 3149   3.178   1.745   1.956
  988HOH      O 3150   1.136   3.406   0.290
  988HOH     H1 3151   1.056   3.444   0.326
  988HOH     H2 3152   1.198   3.478   0.285
  989HOH      O 3153   2.543   0.327   2.869
  989HOH     H1 3154   2.576   0.342   2.958
  989HOH     H2 3155   2.621   0.317   2.815
  990HOH      O 3156   2.476   3.318   2.932
  990HOH     H1 3157   2.525   3.397   2.906
  990HOH     H2 3158   2.428   3.345   3.010
  991HOH      O 3159   3.222   3.497   3.076
  991HOH     H1 3160   3.162   3.424   3.060
  991HOH     H2 3161   3.237   3.534   2.989
  992HOH      O 3162   0.655   0.531   1.940
  992HOH     H1 3163   0.645   0.614   1.894
  992HOH     H2 3164   0.619   0.546   2.027
  993HOH      O 3165   0.078   3.268   3.501
  993HOH     H1 3166   0.073   3.208   3.575
  993HOH     H2 3167   0.101   3.353   3.541
  994HOH      O 3168   1.354   0.571   0.925
  994HOH     H1 3169   1.343   0.603   0.835
  994HOH     H2 3170   1.399   0.643   0.970
  995HOH      O 3171   3.953   2.850   3.546
  995HOH     H1 3172   3.912   2.906   3.611
  995HOH     H2 3173   4.047   2.862   3.560
  996HOH      O 3174   0.385   2.388   1.074
  996HOH     H1 3175   0.435   2.364   1.151
  996HOH     H2 3176   0.328   2.459   1.103
  997HOH      O 3177   2.877   3.848   3.412
  997HOH     H1 3178   2.897   3.807   3.328
  997HOH     H2 3179   2.822   3.784   3.457
  998HOH      O 3180   2.479   3.108   3.502
  998HOH     H1 3181   2.409   3.050   3.475
  998HOH     H2 3182   2.464   3.122   3.596
  999HOH      O 3183   1.044   2.641   0.908
  999HOH     H1 3184   1.022   2.723   0.951
  999HOH     H2 3185   1.101   2.666   0.835
 1000HOH      O 3186   2.987   0.203   2.765
 1000HOH     H1 3187   3.066   0.188   2.818
 1000HOH     H2 3188   3.020   0.227   2.679
 1001HOH      O 3189   2.875   0.510   3.430
 1001HOH     H1 3190   2.836   0.430   3.394
 1001HOH     H2 3191   2.961   0.482   3.461
 1002HOH      O 3192   1.036   1.101   1.501
 1002HOH     H1 3193   1.111   1.069   1.451
 1002HOH     H2 3194   1.000   1.172   1.448
 1003HOH      O 3195   0.238   3.966   2.349
 1003HOH     H1 3196   0.169   4.030   2.335
 1003HOH     H2 3197   0.314   4.002   2.302
 1004HOH      O 3198   3.333   0.506   2.830
 1004HOH     H1 3199   3.379   0.440   2.779
 1004HOH     H2 3200   3.353   0.486   2.921
 1005HOH      O 3201   1.197   0.404   0.211
 1005HOH     H1 3202   1.239   0.331   0.166
 1005HOH     H2 3203   1.270   0.463   0.232
 1006HOH      O 3204   2.135   1.729   3.983
 1006HOH     H1 3205   2.126   1.692   4.071
 1006HOH     H2 3206   2.144   1.823   3.998
 1007HOH      O 3207   0.835   1.171   3.671
 1007HOH     H1 3208   0.813   1.162   3.764
 1007HOH     H2 3209   0.919   1.216   3.671
 1008HOH      O 3210   1.927   1.096   2.042
 1008HOH     H1 3211   2.022   1.086   2.040
 1008HOH     H2 3212   1.893   1.011   2.015
 1009HOH      O 3213   3.151   3.188   3.718
 1009HOH     H1 3214   3.147   3.203   3.813
 1009HOH     H2 3215   3.085   3.248   3.683
 1010HOH      O 3216   2.065   0.862   0.082
 1010HOH     H1 3217   2.107   0.945   0.105
 1010HOH     H2 3218   1.990   0.888   0.028
 1011HOH      O 3219   2.228   4.007   3.940
 1011HOH     H1 3220   2.178   4.069   3.887
 1011HOH     H2 3221   2.319   4.022   3.915
 1012HOH      O 3222   2.102   1.153   0.420
 1012HOH     H1 3223   2.014   1.191   0.416
 1012HOH     H2 3224   2.088   1.061   0.440
 1013HOH      O 3225   1.520   2.236   2.610
 1013HOH     H1 3226   1.550   2.326   2.627
 1013HOH     H2 3227   1.454   2.220   2.676
 1014HOH      O 3228   0.896   3.330   2.662
 1014HOH     H1 3229   0.953   3.253   2.659
 1014HOH     H2 3230   0.862   3.331   2.752
 1015HOH      O 3231   1.227   3.634   2.883
 1015HOH     H1 3232   1.204   3.541   2.888
 1015HOH     H2 3233   1.254   3.656   2.973
 1016HOH      O 3234   3.872   2.928   1.593
 1016HOH     H1 3235   3.781   2.922   1.622
 1016HOH     H2 3236   3.922   2.943   1.673
 1017HOH      O 3237   3.238   0.818   0.273
 1017HOH     H1 3238   3.185   0.882   0.320
 1017HOH     H2 3239   3.247   0.745   0.334
 1018HOH      O 3240   2.849   2.915   1.272
 1018HOH     H1 3241   2.840   2.840   1.213
 1018HOH     H2 3242   2.909   2.974   1.226
 1019HOH      O 3243   3.672   2.096   0.466
 1019HOH     H1 3244   3.700   2.033   0.532
 1019HOH     H2 3245   3.609   2.049   0.412
 1020HOH      O 3246   0.345   2.445   3.716
 1020HOH     H1 3247   0.403   2.435   3.641
 1020HOH     H2 3248   0.258   2.458   3.678
 1021HOH      O 3249   3.801   1.195   0.038
 1021HOH     H1 3250   3.867   1.184  -0.031
 1021HOH     H2 3251   3.738   1.258   0.001
 1022HOH      O 3252   3.162   3.707   3.527
 1022HOH     H1 3253   3.145   3.686   3.435
 1022HOH     H2 3254   3.254   3.684   3.540
 1023HOH      O 3255   0.246   2.271   3.376
 1023HOH     H1 3256   0.183   2.209   3.412
 1023HOH     H2 3257   0.196   2.353   3.367
 1024HOH      O 3258   2.851   2.449   2.155
 1024HOH     H1 3259   2.873   2.505   2.080
 1024HOH     H2 3260   2.812   2.509   2.219
 1025HOH      O 3261   1.812   2.114   2.187
 1025HOH     H1 3262   1.735   2.144   2.236
 1025HOH     H2 3263   1.777   2.092   2.100
 1026HOH      O 3264   0.878   3.096   2.381
 1026HOH     H1 3265   0.799   3.042   2.371
 1026HOH     H2 3266   0.902   3.086   2.473
 1027HOH      O 3267   2.605   1.982   3.329
 1027HOH     H1 3268   2.652   2.050   3.280
 1027HOH     H2 3269   2.672   1.942   3.385
 1028HOH      O 3270   1.329   1.095   2.753
 1028HOH     H1 3271   1.345   1.003   2.731
 1028HOH     H2 3272   1.234   1.102   2.755
 1029HOH      O 3273   3.442   3.964   1.134
 1029HOH     H1 3274   3.505   3.986   1.065
 1029HOH     H2 3275   3.358   3.995   1.101
 1030HOH      O 3276   3.712   3.141   2.415
 1030HOH     H1 3277   3.771   3.068   2.396
 1030HOH     H2 3278   3.701   3.139   2.510
 1031HOH      O 3279   0.847   0.123   3.576
 1031HOH     H1 3280   0.833   0.057   3.508
 1031HOH     H2 3281   0.910   0.184   3.537
 1032HOH      O 3282   1.749   0.922   0.731
 1032HOH     H1 3283   1.692   0.966   0.668
 1032HOH     H2 3284   1.718   0.950   0.817
 1033HOH      O 3285   1.069   0.679   1.786
 1033HOH     H1 3286   1.137   0.744   1.802
 1033HOH     H2 3287   0.994   0.729   1.755
 1034HOH      O 3288   0.142   2.993   1.172
 1034HOH     H1 3289   0.212   2.937   1.205
 1034HOH     H2 3290   0.092   3.017   1.250
 1035HOH      O 3291   2.118   0.448   2.586
 1035HOH     H1 3292   2.142   0.540   2.586
 1035HOH     H2 3293   2.079   0.433   2.673
 1036HOH      O 3294   1.087   1.523   2.888
 1036HOH     H1 3295   1.128   1.463   2.950
 1036HOH     H2 3296   1.127   1.607   2.906
 1037HOH      O 3297   1.825   1.697   1.328
 1037HOH     H1 3298   1.859   1.621   1.281
 1037HOH     H2 3299   1.814   1.764   1.260
 1038HOH      O 3300   0.284   1.983   2.665
 1038HOH     H1 3301   0.210   1.924   2.659
 1038HOH     H2 3302   0.308   1.983   2.758
 1039HOH      O 3303   3.715   0.083   1.839
 1039HOH     H1 3304   3.719   0.053   1.748
 1039HOH     H2 3305   3.676   0.171   1.833
 1040HOH      O 3306   2.143   3.064   0.425
 1040HOH     H1 3307   2.104   2.981   0.453
 1040HOH     H2 3308   2.177   3.045   0.337
 1041HOH      O 3309   4.013   0.365   3.135
 1041HOH     H1 3310   4.037   0.407   3.218
 1041HOH     H2 3311   3.980   0.279   3.161
 1042HOH      O 3312   1.479   0.109   2.430
 1042HOH     H1 3313   1.509   0.025   2.395
 1042HOH     H2 3314   1.543   0.132   2.497
 1043HOH      O 3315   3.227   1.005   0.701
 1043HOH     H1 3316   3.280   0.987   0.779
 1043HOH     H2 3317   3.223   0.921   0.655
 1044HOH      O 3318   2.286   3.713   1.598
 1044HOH     H1 3319   2.313   3.764   1.521
 1044HOH     H2 3320   2.366   3.668   1.625
 1045HOH      O 3321   1.612   2.713   0.918
 1045HOH     H1 3322   1.664   2.671   0.849
 1045HOH     H2 3323   1.528   2.733   0.875
 1046HOH      O 3324   1.736   2.681   1.354
 1046HOH     H1 3325   1.808   2.732   1.391
 1046HOH     H2 3326   1.701   2.632   1.428
 1047HOH      O 3327   1.517   2.341   3.972
 1047HOH     H1 3328   1.462   2.278   4.018
 1047HOH     H2 3329   1.470   2.424   3.979
 1048HOH      O 3330   2.618   3.695   2.421
 1048HOH     H1 3331   2.614   3.752   2.497
 1048HOH     H2 3332   2.554   3.731   2.360
 1049HOH      O 3333   1.818   1.258   3.643
 1049HOH     H1 3334   1.742   1.288   3.592
 1049HOH     H2 3335   1.859   1.339   3.672
 1050HOH      O 3336   2.494   0.884   2.988
 1050HOH     H1 3337   2.461   0.956   2.934
 1050HOH     H2 3338   2.423   0.820   2.988
 1051HOH      O 3339   2.907   0.885   3.722
 1051HOH     H1 3340   2.944   0.819   3.780
 1051HOH     H2 3341   2.933   0.968   3.761
 1052HOH      O 3342   1.051   3.421   3.777
 1052HOH     H1 3343   1.056   3.510   3.740
 1052HOH     H2 3344   1.058   3.434   3.871
 1053HOH      O 3345   2.161   1.627   0.205
 1053HOH     H1 3346   2.221   1.567   0.160
 1053HOH     H2 3347   2.095   1.570   0.244
 1054HOH      O 3348   3.559   0.660   0.688
 1054HOH     H1 3349   3.541   0.610   0.608
 1054HOH     H2 3350   3.635   0.713   0.666
 1055HOH      O 3351   1.338   0.880   1.926
 1055HOH     H1 3352   1.370   0.965   1.955
 1055HOH     H2 3353   1.309   0.894   1.836
 1056HOH      O 3354   0.313   2.359   3.989
 1056HOH     H1 3355   0.323   2.266   3.970
 1056HOH     H2 3356   0.347   2.403   3.911
 1057HOH      O 3357   1.113   3.115   3.181
 1057HOH     H1 3358   1.183   3.083   3.237
 1057HOH     H2 3359   1.096   3.204   3.213
 1058HOH      O 3360   2.010   0.060   2.489
 1058HOH     H1 3361   2.036   0.148   2.514
 1058HOH     H2 3362   1.925   0.072   2.446
 1059HOH      O 3363   2.296   0.395   1.378
 1059HOH     H1 3364   2.230   0.334   1.345
 1059HOH     H2 3365   2.252   0.443   1.448
 1060HOH      O 3366   3.952   2.511   3.996
 1060HOH     H1 3367   3.956   2.416   3.988
 1060HOH     H2 3368   3.914   2.540   3.913
 1061HOH      O 3369   0.957   0.393   1.765
 1061HOH     H1 3370   0.979   0.394   1.673
 1061HOH     H2 3371   1.010   0.462   1.804
 1062HOH      O 3372   2.518   3.313   1.066
 1062HOH     H1 3373   2.521   3.240   1.004
 1062HOH     H2 3374   2.506   3.272   1.151
 1063HOH      O 3375   3.823   2.584   1.510
 1063HOH     H1 3376   3.894   2.582   1.575
 1063HOH     H2 3377   3.794   2.493   1.505
 1064HOH      O 3378   2.121   3.260   3.465
 1064HOH     H1 3379   2.036   3.254   3.509
 1064HOH     H2 3380   2.155   3.346   3.490
 1065HOH      O 3381   0.833   2.421   0.608
 1065HOH     H1 3382   0.927   2.426   0.622
 1065HOH     H2 3383   0.801   2.365   0.679
 1066HOH      O 3384   1.286   2.397   2.551
 1066HOH     H1 3385   1.359   2.338   2.531
 1066HOH     H2 3386   1.222   2.380   2.483
 1067HOH      O 3387   2.522   0.681   0.464
 1067HOH     H1 3388   2.471   0.721   0.535
 1067HOH     H2 3389   2.612   0.679   0.498
 1068HOH      O 3390   3.856   1.527   0.586
 1068HOH     H1 3391   3.935   1.475   0.601
 1068HOH     H2 3392   3.877   1.582   0.511
 1069HOH      O 3393   0.215   3.706   3.312
 1069HOH     H1 3394   0.226   3.782   3.256
 1069HOH     H2 3395   0.210   3.632   3.252
 1070HOH      O 3396   2.572   3.135   0.797
 1070HOH     H1 3397   2.505   3.085   0.750
 1070HOH     H2 3398   2.655   3.099   0.768
 1071HOH      O 3399   4.027   1.802   3.965
 1071HOH     H1 3400   4.076   1.823   4.044
 1071HOH     H2 3401   3.978   1.723   3.988
 1072HOH      O 3402   1.234   0.209   3.054
 1072HOH     H1 3403   1.311   0.166   3.016
 1072HOH     H2 3404   1.169   0.209   2.984
 1073HOH      O 3405   1.722   3.522   2.633
 1073HOH     H1 3406   1.752   3.613   2.625
 1073HOH     H2 3407   1.695   3.499   2.544
 1074HOH      O 3408   1.518   3.653   1.139
 1074HOH     H1 3409   1.493   3.743   1.115
 1074HOH     H2 3410   1.442   3.600   1.115
 1075HOH      O 3411   3.939   1.497   1.188
 1075HOH     H1 3412   3.951   1.447   1.268
 1075HOH     H2 3413   3.896   1.437   1.128
 1076HOH      O 3414   2.157   1.246   0.765
 1076HOH     H1 3415   2.115   1.219   0.684
 1076HOH     H2 3416   2.110   1.199   0.834
 1077HOH      O 3417   2.967   2.664   0.593
 1077HOH     H1 3418   3.047   2.611   0.601
 1077HOH     H2 3419   2.901   2.616   0.643
 1078HOH      O 3420   1.047   2.740   0.377
 1078HOH     H1 3421   1.081   2.659   0.340
 1078HOH     H2 3422   1.116   2.805   0.359
 1079HOH      O 3423   3.035   2.258   3.526
 1079HOH     H1 3424   2.968   2.325   3.537
 1079HOH     H2 3425   3.029   2.232   3.434
 1080HOH      O 3426   3.484   3.579   3.988
 1080HOH     H1 3427   3.502   3.666   4.023
 1080HOH     H2 3428   3.558   3.560   3.930
 1081HOH      O 3429   1.102   3.486   0.787
 1081HOH     H1 3430   1.093   3.410   0.844
 1081HOH     H2 3431   1.170   3.461   0.724
 1082HOH      O 3432   3.568   1.637   3.614
 1082HOH     H1 3433   3.599   1.678   3.534
 1082HOH     H2 3434   3.643   1.639   3.673
 1083HOH      O 3435   2.711   1.010   1.331
 1083HOH     H1 3436   2.752   1.040   1.250
 1083HOH     H2 3437   2.760   1.054   1.400
 1084HOH      O 3438   3.213   2.027   2.555
 1084HOH     H1 3439   3.135   2.076   2.580
 1084HOH     H2 3440   3.272   2.092   2.518
 1085HOH      O 3441   3.969   2.003   2.270
 1085HOH     H1 3442   4.039   1.982   2.208
 1085HOH     H2 3443   3.893   1.954   2.239
 1086HOH      O 3444   3.741   3.336   0.702
 1086HOH     H1 3445   3.781   3.412   0.660
 1086HOH     H2 3446   3.732   3.272   0.630
 1087HOH      O 3447   3.859   1.415   3.421
 1087HOH     H1 3448   3.918   1.486   3.445
 1087HOH     H2 3449   3.915   1.351   3.377
 1088HOH      O 3450   0.454   0.900   0.427
 1088HOH     H1 3451   0.452   0.963   0.354
 1088HOH     H2 3452   0.370   0.855   0.422
 1089HOH      O 3453   3.805   1.705   0.903
 1089HOH     H1 3454   3.827   1.614   0.881
 1089HOH     H2 3455   3.774   1.701   0.993
 1090HOH      O 3456   2.611   1.880   1.351
 1090HOH     H1 3457   2.600   1.944   1.281
 1090HOH     H2 3458   2.601   1.795   1.309
 1091HOH      O 3459   2.237   2.120   2.927
 1091HOH     H1 3460   2.147   2.152   2.914
 1091HOH     H2 3461   2.233   2.027   2.904
 1092HOH      O 3462   1.894   1.700   3.831
 1092HOH     H1 3463   1.871   1.609   3.852
 1092HOH     H2 3464   1.958   1.725   3.898
 1093HOH      O 3465   1.868   3.704   1.897
 1093HOH     H1 3466   1.913   3.683   1.815
 1093HOH     H2 3467   1.860   3.800   1.896
 1094HOH      O 3468   0.897   2.401   2.534
 1094HOH     H1 3469   0.880   2.343   2.460
 1094HOH     H2 3470   0.991   2.394   2.548
 1095HOH      O 3471   1.706   1.295   3.206
 1095HOH     H1 3472   1.664   1.215   3.237
 1095HOH     H2 3473   1.794   1.269   3.182
 1096HOH      O 3474   0.768   1.451   3.858
 1096HOH     H1 3475   0.730   1.529   3.899
 1096HOH     H2 3476   0.862   1.460   3.871
 1097HOH      O 3477   3.999   1.208   3.834
 1097HOH     H1 3478   3.917   1.253   3.812
 1097HOH     H2 3479   4.014   1.147   3.762
 1098HOH      O 3480   1.892   2.405   1.050
 1098HOH     H1 3481   1.904   2.499   1.066
 1098HOH     H2 3482   1.797   2.393   1.053
 1099HOH      O 3483   2.602   3.986   0.756
 1099HOH     H1 3484   2.522   3.961   0.708
 1099HOH     H2 3485   2.586   3.955   0.845
 1100HOH      O 3486   0.215   3.950   1.548
 1100HOH     H1 3487   0.291   4.008   1.538
 1100HOH     H2 3488   0.251   3.867   1.578
 1101HOH      O 3489   3.399   3.232   3.614
 1101HOH     H1 3490   3.317   3.223   3.663
 1101HOH     H2 3491   3.383   3.306   3.554
 1102HOH      O 3492   1.541   3.437   2.445
 1102HOH     H1 3493   1.575   3.372   2.384
 1102HOH     H2 3494   1.480   3.490   2.394
 1103HOH      O 3495   2.424   1.367   3.252
 1103HOH     H1 3496   2.492   1.433   3.268
 1103HOH     H2 3497   2.463   1.307   3.189
 1104HOH      O 3498   0.473   0.504   2.769
 1104HOH     H1 3499   0.403   0.565   2.751
 1104HOH     H2 3500   0.438   0.419   2.742
 1105HOH      O 3501   1.505   0.066   3.933
 1105HOH     H1 3502   1.459   0.003   3.878
 1105HOH     H2 3503   1.592   0.028   3.946
 1106HOH      O 3504   0.271   2.146   1.880
 1106HOH     H1 3505   0.233   2.113   1.961
 1106HOH     H2 3506   0.245   2.081   1.814
 1107HOH      O 3507   0.154   2.308   0.684
 1107HOH     H1 3508   0.160   2.218   0.650
 1107HOH     H2 3509   0.158   2.297   0.779
 1108HOH      O 3510   3.405   3.857   2.278
 1108HOH     H1 3511   3.434   3.769   2.254
 1108HOH     H2 3512   3.406   3.858   2.373
 1109HOH      O 3513   2.619   2.297   1.646
 1109HOH     H1 3514   2.548   2.256   1.696
 1109HOH     H2 3515   2.575   2.333   1.568
 1110HOH      O 3516   1.977   0.744   2.702
 1110HOH     H1 3517   2.071   0.746   2.685
 1110HOH     H2 3518   1.937   0.750   2.615
 1111HOH      O 3519   0.587   0.532   3.040
 1111HOH     H1 3520   0.540   0.513   2.958
 1111HOH     H2 3521   0.677   0.547   3.012
 1112HOH      O 3522   0.220   0.767   0.821
 1112HOH     H1 3523   0.220   0.756   0.916
 1112HOH     H2 3524   0.204   0.860   0.808
 1113HOH      O 3525   3.655   3.470   3.619
 1113HOH     H1 3526   3.703   3.477   3.536
 1113HOH     H2 3527   3.663   3.377   3.643
 1114HOH      O 3528   1.339   1.121   1.327
 1114HOH     H1 3529   1.422   1.074   1.332
 1114HOH     H2 3530   1.346   1.173   1.247
 1115HOH      O 3531   0.483   0.433   3.539
 1115HOH     H1 3532   0.506   0.494   3.469
 1115HOH     H2 3533   0.426   0.484   3.597
 1116HOH      O 3534   1.225   0.820   2.244
 1116HOH     H1 3535   1.200   0.896   2.297
 1116HOH     H2 3536   1.212   0.848   2.153
 1117HOH      O 3537   3.135   0.372   0.129
 1117HOH     H1 3538   3.098   0.287   0.155
 1117HOH     H2 3539   3.223   0.371   0.166
 1118HOH      O 3540   0.456   1.869   3.183
 1118HOH     H1 3541   0.533   1.843   3.235
 1118HOH     H2 3542   0.383   1.861   3.244
 1119HOH      O 3543   2.555   3.595   0.366
 1119HOH     H1 3544   2.601   3.543   0.301
 1119HOH     H2 3545   2.513   3.531   0.424
 1120HOH      O 3546   1.835   0.787   1.725
 1120HOH     H1 3547   1.863   0.873   1.696
 1120HOH     H2 3548   1.824   0.795   1.819
 1121HOH      O 3549   1.869   0.102   3.084
 1121HOH     H1 3550   1.844   0.165   3.152
 1121HOH     H2 3551   1.962   0.084   3.101
 1122HOH      O 3552   3.226   2.060   1.159
 1122HOH     H1 3553   3.235   1.966   1.148
 1122HOH     H2 3554   3.132   2.077   1.148
 1123HOH      O 3555   2.499   3.484   3.426
 1123HOH     H1 3556   2.468   3.483   3.517
 1123HOH     H2 3557   2.463   3.403   3.388
 1124HOH      O 3558   1.863   3.230   2.672
 1124HOH     H1 3559   1.951   3.193   2.677
 1124HOH     H2 3560   1.875   3.324   2.690
 1125HOH      O 3561   3.241   2.824   0.739
 1125HOH     H1 3562   3.303   2.760   0.704
 1125HOH     H2 3563   3.295   2.887   0.788
 1126HOH      O 3564   3.868   2.042   1.005
 1126HOH     H1 3565   3.789   2.091   1.025
 1126HOH     H2 3566   3.886   2.061   0.913
 1127HOH      O 3567   2.571   3.439   2.357
 1127HOH     H1 3568   2.501   3.443   2.291
 1127HOH     H2 3569   2.596   3.531   2.370
 1128HOH      O 3570   3.764   1.187   1.188
 1128HOH     H1 3571   3.811   1.222   1.263
 1128HOH     H2 3572   3.830   1.177   1.120
 1129HOH      O 3573   1.132   2.144   3.010
 1129HOH     H1 3574   1.086   2.215   3.055
 1129HOH     H2 3575   1.069   2.111   2.946
 1130HOH      O 3576   2.818   0.023   0.399
 1130HOH     H1 3577   2.727   0.050   0.407
 1130HOH     H2 3578   2.852   0.024   0.488
 1131HOH      O 3579   2.831   1.270   1.798
 1131HOH     H1 3580   2.826   1.335   1.868
 1131HOH     H2 3581   2.758   1.291   1.739
 1132HOH      O 3582   2.617   0.642   3.454
 1132HOH     H1 3583   2.706   0.615   3.429
 1132HOH     H2 3584   2.627   0.731   3.486
 1133HOH      O 3585   1.420   0.151   0.175
 1133HOH     H1 3586   1.337   0.105   0.180
 1133HOH     H2 3587   1.459   0.121   0.093
 1134HOH      O 3588   3.009   1.171   0.727
 1134HOH     H1 3589   3.024   1.251   0.776
 1134HOH     H2 3590   3.078   1.112   0.756
 1135HOH      O 3591   2.165   0.529   2.120
 1135HOH     H1 3592   2.150   0.616   2.082
 1135HOH     H2 3593   2.125   0.469   2.057
 1136HOH      O 3594   3.764   1.212   0.530
 1136HOH     H1 3595   3.803   1.298   0.548
 1136HOH     H2 3596   3.810   1.181   0.452
 1137HOH      O 3597   3.902   0.219   3.545
 1137HOH     H1 3598   3.858   0.291   3.591
 1137HOH     H2 3599   3.897   0.145   3.605
 1138HOH      O 3600   0.642   2.236   2.839
 1138HOH     H1 3601   0.676   2.169   2.780
 1138HOH     H2 3602   0.675   2.319   2.804
 1139HOH      O 3603   1.326   3.180   0.083
 1139HOH     H1 3604   1.337   3.170   0.178
 1139HOH     H2 3605   1.232   3.193   0.070
 1140HOH      O 3606   2.360   2.525   3.765
 1140HOH     H1 3607   2.361   2.430   3.772
 1140HOH     H2 3608   2.295   2.545   3.699
 1141HOH      O 3609   0.301   1.559   3.823
 1141HOH     H1 3610   0.294   1.608   3.905
 1141HOH     H2 3611   0.369   1.495   3.839
 1142HOH      O 3612   0.747   2.663   2.905
 1142HOH     H1 3613   0.675   2.609   2.939
 1142HOH     H2 3614   0.731   2.750   2.942
 1143HOH      O 3615   3.646   0.646   3.396
 1143HOH     H1 3616   3.697   0.665   3.475
 1143HOH     H2 3617   3.707   0.598   3.340
 1144HOH      O 3618   0.822   2.159   2.384
 1144HOH     H1 3619   0.870   2.098   2.440
 1144HOH     H2 3620   0.807   2.111   2.303
 1145HOH      O 3621   2.473   2.988   2.639
 1145HOH     H1 3622   2.486   3.002   2.733
 1145HOH     H2 3623   2.501   3.069   2.598
 1146HOH      O 3624   1.151   0.006   1.948
 1146HOH     H1 3625   1.185   0.044   1.867
 1146HOH     H2 3626   1.080  -0.050   1.920
 1147HOH      O 3627   0.121   2.447   3.019
 1147HOH     H1 3628   0.150   2.442   2.927
 1147HOH     H2 3629   0.108   2.356   3.045
 1148HOH      O 3630   1.361   3.505   2.070
 1148HOH     H1 3631   1.335   3.416   2.092
 1148HOH     H2 3632   1.305   3.529   1.996
 1149HOH      O 3633   0.746   3.365   1.762
 1149HOH     H1 3634   0.834   3.332   1.781
 1149HOH     H2 3635   0.689   3.289   1.776
 1150HOH      O 3636   3.470   3.442   3.151
 1150HOH     H1 3637   3.388   3.486   3.128
 1150HOH     H2 3638   3.487   3.382   3.079
 1151HOH      O 3639   3.567   0.280   3.244
 1151HOH     H1 3640   3.594   0.198   3.287
 1151HOH     H2 3641   3.648   0.330   3.236
 1152HOH      O 3642   1.533   2.181   1.173
 1152HOH     H1 3643   1.538   2.107   1.233
 1152HOH     H2 3644   1.464   2.157   1.111
 1153HOH      O 3645   4.000   2.537   1.718
 1153HOH     H1 3646   4.064   2.467   1.720
 1153HOH     H2 3647   3.986   2.561   1.810
 1154HOH      O 3648   1.039   2.779   2.933
 1154HOH     H1 3649   1.048   2.686   2.955
 1154HOH     H2 3650   1.078   2.786   2.846
 1155HOH      O 3651   2.201   2.885   1.634
 1155HOH     H1 3652   2.266   2.926   1.692
 1155HOH     H2 3653   2.189   2.948   1.563
 1156HOH      O 3654   2.476   1.478   3.712
 1156HOH     H1 3655   2.525   1.397   3.731
 1156HOH     H2 3656   2.392   1.466   3.754
 1157HOH      O 3657   0.918   3.851   1.825
 1157HOH     H1 3658   0.973   3.861   1.747
 1157HOH     H2 3659   0.904   3.757   1.832
 1158HOH      O 3660   2.571   0.294   3.141
 1158HOH     H1 3661   2.659   0.291   3.177
 1158HOH     H2 3662   2.534   0.375   3.175
 1159HOH      O 3663   3.152   2.197   1.442
 1159HOH     H1 3664   3.187   2.111   1.468
 1159HOH     H2 3665   3.061   2.195   1.470
 1160HOH      O 3666   3.040   2.188   3.269
 1160HOH     H1 3667   3.086   2.249   3.212
 1160HOH     H2 3668   3.032   2.108   3.216
 1161HOH      O 3669   2.701   0.340   2.350
 1161HOH     H1 3670   2.716   0.417   2.405
 1161HOH     H2 3671   2.737   0.267   2.401
 1162HOH      O 3672   3.336   0.145   1.534
 1162HOH     H1 3673   3.242   0.153   1.548
 1162HOH     H2 3674   3.346   0.067   1.480
 1163HOH      O 3675   3.517   0.937   0.670
 1163HOH     H1 3676   3.423   0.925   0.662
 1163HOH     H2 3677   3.550   0.852   0.700
 1164HOH      O 3678   2.049   1.421   1.455
 1164HOH     H1 3679   1.977   1.358   1.457
 1164HOH     H2 3680   2.039   1.470   1.537
 1165HOH      O 3681   3.930   1.227   0.309
 1165HOH     H1 3682   3.972   1.313   0.313
 1165HOH     H2 3683   3.870   1.233   0.235
 1166HOH      O 3684   2.918   0.823   1.189
 1166HOH     H1 3685   3.007   0.851   1.165
 1166HOH     H2 3686   2.921   0.813   1.284
 1167HOH      O 3687   0.324   3.315   2.947
 1167HOH     H1 3688   0.287   3.227   2.943
 1167HOH     H2 3689   0.414   3.302   2.977
 1168HOH      O 3690   0.314   1.270   1.746
 1168HOH     H1 3691   0.386   1.213   1.773
 1168HOH     H2 3692   0.266   1.218   1.682
 1169HOH      O 3693   0.722   0.131   0.352
 1169HOH     H1 3694   0.677   0.201   0.305
 1169HOH     H2 3695   0.812   0.164   0.363
 1170HOH      O 3696   2.335   2.992   1.142
 1170HOH     H1 3697   2.365   2.911   1.184
 1170HOH     H2 3698   2.384   3.061   1.187
 1171HOH      O 3699   1.255   0.391   1.735
 1171HOH     H1 3700   1.281   0.445   1.810
 1171HOH     H2 3701   1.285   0.440   1.659
 1172HOH      O 3702   0.081   1.087   2.645
 1172HOH     H1 3703   0.022   1.130   2.707
 1172HOH     H2 3704   0.052   0.995   2.644
 1173HOH      O 3705   2.233   1.917   2.781
 1173HOH     H1 3706   2.182   1.882   2.708
 1173HOH     H2 3707   2.316   1.870   2.776
 1174HOH      O 3708   2.138   0.430   0.999
 1174HOH     H1 3709   2.064   0.448   0.942
 1174HOH     H2 3710   2.108   0.358   1.055
 1175HOH      O 3711   0.717   1.847   1.675
 1175HOH     H1 3712   0.684   1.780   1.616
 1175HOH     H2 3713   0.639   1.882   1.718
 1176HOH      O 3714   3.743   1.232   3.618
 1176HOH     H1 3715   3.752   1.275   3.533
 1176HOH     H2 3716   3.649   1.217   3.627
 1177HOH      O 3717   3.438   0.188   3.578
 1177HOH     H1 3718   3.417   0.101   3.546
 1177HOH     H2 3719   3.353   0.227   3.600
 1178HOH      O 3720   0.800   3.552   2.856
 1178HOH     H1 3721   0.875   3.567   2.798
 1178HOH     H2 3722   0.737   3.506   2.801
 1179HOH      O 3723   2.815   1.760   2.937
 1179HOH     H1 3724   2.748   1.790   2.999
 1179HOH     H2 3725   2.806   1.665   2.937
 1180HOH      O 3726   0.942   2.666   3.472
 1180HOH     H1 3727   0.906   2.578   3.472
 1180HOH     H2 3728   0.906   2.707   3.394
 1181HOH      O 3729   0.507   3.366   1.519
 1181HOH     H1 3730   0.527   3.408   1.436
 1181HOH     H2 3731   0.561   3.287   1.520
 1182HOH      O 3732   2.123   2.071   2.574
 1182HOH     H1 3733   2.184   2.058   2.646
 1182HOH     H2 3734   2.055   2.005   2.588
 1183HOH      O 3735   2.694   2.929   1.745
 1183HOH     H1 3736   2.677   2.956   1.836
 1183HOH     H2 3737   2.763   2.988   1.715
 1184HOH      O 3738   1.273   0.550   3.749
 1184HOH     H1 3739   1.180   0.528   3.747
 1184HOH     H2 3740   1.305   0.514   3.831
 1185HOH      O 3741   3.388   2.649   0.990
 1185HOH     H1 3742   3.461   2.608   0.944
 1185HOH     H2 3743   3.400   2.743   0.978
 1186HOH      O 3744   3.010   2.842   0.895
 1186HOH     H1 3745   3.080   2.843   0.829
 1186HOH     H2 3746   3.039   2.777   0.959
 1187HOH      O 3747   0.030   2.907   0.376
 1187HOH     H1 3748   0.115   2.931   0.339
 1187HOH     H2 3749   0.043   2.819   0.411
 1188HOH      O 3750   1.156   1.415   1.638
 1188HOH     H1 3751   1.242   1.377   1.623
 1188HOH     H2 3752   1.130   1.451   1.553
 1189HOH      O 3753   2.731   0.006   1.645
 1189HOH     H1 3754   2.817   0.001   1.604
 1189HOH     H2 3755   2.705   0.098   1.636
 1190HOH      O 3756   3.573   3.627   2.467
 1190HOH     H1 3757   3.505   3.589   2.411
 1190HOH     H2 3758   3.614   3.552   2.510
 1191HOH      O 3759   0.156   0.760   2.882
 1191HOH     H1 3760   0.091   0.828   2.864
 1191HOH     H2 3761   0.192   0.783   2.967
 1192HOH      O 3762   2.879   0.988   2.898
 1192HOH     H1 3763   2.836   0.915   2.942
 1192HOH     H2 3764   2.969   0.958   2.883
 1193HOH      O 3765   3.426   2.172   2.424
 1193HOH     H1 3766   3.447   2.176   2.331
 1193HOH     H2 3767   3.509   2.151   2.466
 1194HOH      O 3768   1.520   0.595   3.335
 1194HOH     H1 3769   1.509   0.564   3.245
 1194HOH     H2 3770   1.470   0.533   3.388
 1195HOH      O 3771   3.854   2.385   0.850
 1195HOH     H1 3772   3.892   2.307   0.810
 1195HOH     H2 3773   3.764   2.388   0.817
 1196HOH      O 3774   0.690   0.364   3.976
 1196HOH     H1 3775   0.649   0.448   3.956
 1196HOH     H2 3776   0.669   0.308   3.901
 1197HOH      O 3777   1.757   0.368   3.223
 1197HOH     H1 3778   1.736   0.393   3.313
 1197HOH     H2 3779   1.743   0.447   3.172
 1198HOH      O 3780   0.651   3.185   0.850
 1198HOH     H1 3781   0.606   3.269   0.842
 1198HOH     H2 3782   0.736   3.199   0.809
 1199HOH      O 3783   0.690   3.048   3.741
 1199HOH     H1 3784   0.618   3.083   3.793
 1199HOH     H2 3785   0.724   3.123   3.693
 1200HOH      O 3786   3.114   3.821   2.570
 1200HOH     H1 3787   3.134   3.842   2.661
 1200HOH     H2 3788   3.120   3.905   2.524
 1201HOH      O 3789   1.159   3.412   2.318
 1201HOH     H1 3790   1.230   3.382   2.261
 1201HOH     H2 3791   1.081   3.368   2.284
 1202HOH      O 3792   1.709   2.049   0.892
 1202HOH     H1 3793   1.771   2.027   0.822
 1202HOH     H2 3794   1.668   2.130   0.863
 1203HOH      O 3795   3.837   3.417   0.216
 1203HOH     H1 3796   3.883   3.388   0.294
 1203HOH     H2 3797   3.747   3.385   0.227
 1204HOH      O 3798   0.947   0.564   2.718
 1204HOH     H1 3799   0.900   0.573   2.635
 1204HOH     H2 3800   1.035   0.595   2.699
 1205HOH      O 3801   3.732   3.993   2.110
 1205HOH     H1 3802   3.648   3.952   2.130
 1205HOH     H2 3803   3.719   4.031   2.023
 1206HOH      O 3804   1.821   1.453   3.914
 1206HOH     H1 3805   1.914   1.431   3.907
 1206HOH     H2 3806   1.783   1.380   3.963
 1207HOH      O 3807   2.058   2.667   0.824
 1207HOH     H1 3808   2.117   2.733   0.861
 1207HOH     H2 3809   2.090   2.584   0.858
 1208HOH      O 3810   3.865   2.435   1.212
 1208HOH     H1 3811   3.922   2.454   1.138
 1208HOH     H2 3812   3.925   2.415   1.284
 1209HOH      O 3813   0.197   1.667   2.681
 1209HOH     H1 3814   0.289   1.641   2.683
 1209HOH     H2 3815   0.151   1.588   2.652
 1210HOH      O 3816   0.169   1.115   1.580
 1210HOH     H1 3817   0.172   1.200   1.536
 1210HOH     H2 3818   0.117   1.060   1.521
 1211HOH      O 3819   2.334   2.001   1.153
 1211HOH     H1 3820   2.317   1.907   1.155
 1211HOH     H2 3821   2.248   2.041   1.162
 1212HOH      O 3822   2.719   2.636   1.849
 1212HOH     H1 3823   2.640   2.677   1.815
 1212HOH     H2 3824   2.695   2.544   1.862
 1213HOH      O 3825   3.885   1.671   2.706
 1213HOH     H1 3826   3.846   1.631   2.628
 1213HOH     H2 3827   3.977   1.681   2.684
 1214HOH      O 3828   1.207   1.753   2.986
 1214HOH     H1 3829   1.201   1.781   3.077
 1214HOH     H2 3830   1.285   1.797   2.952
 1215HOH      O 3831   3.211   1.204   0.991
 1215HOH     H1 3832   3.259   1.127   0.962
 1215HOH     H2 3833   3.258   1.278   0.951
 1216HOH      O 3834   2.695   2.642   2.551
 1216HOH     H1 3835   2.600   2.640   2.562
 1216HOH     H2 3836   2.729   2.668   2.636
 1217HOH      O 3837   2.343   2.812   0.134
 1217HOH     H1 3838   2.430   2.836   0.101
 1217HOH     H2 3839   2.361   2.767   0.217
 1218HOH      O 3840   0.351   3.459   3.978
 1218HOH     H1 3841   0.342   3.445   3.884
 1218HOH     H2 3842   0.276   3.514   4.001
 1219HOH      O 3843   3.705   2.544   2.129
 1219HOH     H1 3844   3.644   2.582   2.066
 1219HOH     H2 3845   3.792   2.565   2.094
 1220HOH      O 3846   3.424   0.286   2.643
 1220HOH     H1 3847   3.458   0.265   2.556
 1220HOH     H2 3848   3.401   0.202   2.681
 1221HOH      O 3849   3.551   1.547   1.406
 1221HOH     H1 3850   3.469   1.594   1.393
 1221HOH     H2 3851   3.560   1.540   1.502
 1222HOH      O 3852   1.646   3.352   1.510
 1222HOH     H1 3853   1.723   3.341   1.567
 1222HOH     H2 3854   1.664   3.432   1.460
 1223HOH      O 3855   3.035   3.707   0.328
 1223HOH     H1 3856   3.062   3.722   0.238
 1223HOH     H2 3857   2.940   3.712   0.326
 1224HOH      O 3858   2.911   0.815   3.435
 1224HOH     H1 3859   2.900   0.722   3.418
 1224HOH     H2 3860   2.926   0.821   3.530
 1225HOH      O 3861   1.573   1.066   2.912
 1225HOH     H1 3862   1.485   1.049   2.878
 1225HOH     H2 3863   1.577   1.161   2.923
 1226HOH      O 3864   3.702   3.941   1.533
 1226HOH     H1 3865   3.619   3.897   1.514
 1226HOH     H2 3866   3.769   3.881   1.502
 1227HOH      O 3867   1.436   1.659   3.797
 1227HOH     H1 3868   1.343   1.654   3.822
 1227HOH     H2 3869   1.461   1.569   3.779
 1228HOH      O 3870   1.860   0.639   3.919
 1228HOH     H1 3871   1.907   0.574   3.867
 1228HOH     H2 3872   1.851   0.599   4.006
 1229HOH      O 3873   0.961   1.751   2.375
 1229HOH     H1 3874   0.924   1.718   2.293
 1229HOH     H2 3875   0.982   1.673   2.426
 1230HOH      O 3876   0.507   0.587   0.900
 1230HOH     H1 3877   0.451   0.600   0.823
 1230HOH     H2 3878   0.593   0.565   0.864
 1231HOH      O 3879   0.088   2.019   0.395
 1231HOH     H1 3880   0.125   2.032   0.483
 1231HOH     H2 3881   0.081   2.107   0.359
 1232HOH      O 3882   1.308   3.518   1.044
 1232HOH     H1 3883   1.354   3.441   1.011
 1232HOH     H2 3884   1.259   3.550   0.968
 1233HOH      O 3885   1.586   3.761   2.917
 1233HOH     H1 3886   1.629   3.706   2.983
 1233HOH     H2 3887   1.563   3.699   2.847
 1234HOH      O 3888   0.318   0.322   2.103
 1234HOH     H1 3889   0.255   0.266   2.149
 1234HOH     H2 3890   0.388   0.337   2.167
 1235HOH      O 3891   1.495   3.773   3.317
 1235HOH     H1 3892   1.477   3.705   3.382
 1235HOH     H2 3893   1.591   3.779   3.314
 1236HOH      O 3894   0.485   1.531   2.499
 1236HOH     H1 3895   0.472   1.624   2.518
 1236HOH     H2 3896   0.559   1.529   2.438
 1237HOH      O 3897   3.682   2.714   1.714
 1237HOH     H1 3898   3.739   2.692   1.640
 1237HOH     H2 3899   3.603   2.749   1.673
 1238HOH      O 3900   3.217   3.686   1.277
 1238HOH     H1 3901   3.212   3.605   1.227
 1238HOH     H2 3902   3.300   3.726   1.249
 1239HOH      O 3903   2.531   3.558   0.960
 1239HOH     H1 3904   2.530   3.470   0.997
 1239HOH     H2 3905   2.441   3.574   0.932
 1240HOH      O 3906   1.795   2.519   0.175
 1240HOH     H1 3907   1.778   2.477   0.091
 1240HOH     H2 3908   1.888   2.541   0.173
 1241HOH      O 3909   3.199   3.467   1.711
 1241HOH     H1 3910   3.249   3.441   1.634
 1241HOH     H2 3911   3.108   3.465   1.682
 1242HOH      O 3912   1.085   3.272   0.929
 1242HOH     H1 3913   1.027   3.236   0.996
 1242HOH     H2 3914   1.173   3.241   0.955
 1243HOH      O 3915   1.920   0.249   0.394
 1243HOH     H1 3916   1.943   0.209   0.478
 1243HOH     H2 3917   1.892   0.338   0.417
 1244HOH      O 3918   3.733   0.024   0.959
 1244HOH     H1 3919   3.734  -0.050   0.899
 1244HOH     H2 3920   3.822   0.027   0.994
 1245HOH      O 3921   2.478   1.258   3.893
 1245HOH     H1 3922   2.434   1.178   3.921
 1245HOH     H2 3923   2.569   1.232   3.880
 1246HOH      O 3924   2.948   3.487   1.674
 1246HOH     H1 3925   2.901   3.506   1.592
 1246HOH     H2 3926   2.952   3.571   1.719
 1247HOH      O 3927   2.491   1.369   0.814
 1247HOH     H1 3928   2.452   1.285   0.838
 1247HOH     H2 3929   2.435   1.403   0.745
 1248HOH      O 3930   1.879   0.803   2.027
 1248HOH     H1 3931   1.961   0.762   2.056
 1248HOH     H2 3932   1.811   0.739   2.050
 1249HOH      O 3933   1.168   3.448   2.604
 1249HOH     H1 3934   1.180   3.424   2.512
 1249HOH     H2 3935   1.078   3.422   2.623
 1250HOH      O 3936   0.445   2.532   1.687
 1250HOH     H1 3937   0.487   2.578   1.614
 1250HOH     H2 3938   0.392   2.465   1.645
 1251HOH      O 3939   0.853   1.287   2.285
 1251HOH     H1 3940   0.772   1.284   2.337
 1251HOH     H2 3941   0.920   1.249   2.342
 1252HOH      O 3942   3.435   0.772   1.799
 1252HOH     H1 3943   3.424   0.775   1.704
 1252HOH     H2 3944   3.360   0.722   1.830
 1253HOH      O 3945   0.923   0.527   2.098
 1253HOH     H1 3946   0.861   0.540   2.169
 1253HOH     H2 3947   0.967   0.611   2.088
 1254HOH      O 3948   3.898   3.658   0.028
 1254HOH     H1 3949   3.875   3.590   0.091
 1254HOH     H2 3950   3.844   3.640  -0.048
 1255HOH      O 3951   3.777   2.752   0.261
 1255HOH     H1 3952   3.775   2.833   0.210
 1255HOH     H2 3953   3.865   2.749   0.299
 1256HOH      O 3954   1.757   3.181   0.024
 1256HOH     H1 3955   1.732   3.225  -0.057
 1256HOH     H2 3956   1.677   3.134   0.050
 1257HOH      O 3957   3.219   1.206   1.463
 1257HOH     H1 3958   3.224   1.284   1.407
 1257HOH     H2 3959   3.175   1.237   1.543
 1258HOH      O 3960   1.543   0.551   3.644
 1258HOH     H1 3961   1.565   0.578   3.733
 1258HOH     H2 3962   1.448   0.556   3.640
 1259HOH      O 3963   3.688   2.422   2.375
 1259HOH     H1 3964   3.681   2.327   2.362
 1259HOH     H2 3965   3.683   2.458   2.286
 1260HOH      O 3966   1.815   2.869   2.698
 1260HOH     H1 3967   1.863   2.787   2.711
 1260HOH     H2 3968   1.824   2.886   2.604
 1261HOH      O 3969   2.416   0.833   0.650
 1261HOH     H1 3970   2.432   0.918   0.610
 1261HOH     H2 3971   2.491   0.818   0.707
 1262HOH      O 3972   1.658   3.918   1.774
 1262HOH     H1 3973   1.661   3.958   1.686
 1262HOH     H2 3974   1.733   3.957   1.819
 1263HOH      O 3975   3.650   3.672   1.211
 1263HOH     H1 3976   3.602   3.629   1.140
 1263HOH     H2 3977   3.723   3.716   1.167
 1264HOH      O 3978   2.748   3.229   3.416
 1264HOH     H1 3979   2.800   3.153   3.389
 1264HOH     H2 3980   2.662   3.193   3.437
 1265HOH      O 3981   0.729   2.996   3.389
 1265HOH     H1 3982   0.779   3.073   3.417
 1265HOH     H2 3983   0.647   3.033   3.355
 1266HOH      O 3984   0.715   3.883   2.001
 1266HOH     H1 3985   0.770   3.890   1.922
 1266HOH     H2 3986   0.629   3.859   1.968
 1267HOH      O 3987   0.937   0.455   0.227
 1267HOH     H1 3988   1.030   0.452   0.250
 1267HOH     H2 3989   0.923   0.377   0.173
 1268HOH      O 3990   0.513   1.382   3.788
 1268HOH     H1 3991   0.506   1.287   3.798
 1268HOH     H2 3992   0.607   1.400   3.800
 1269HOH      O 3993   3.016   3.603   1.001
 1269HOH     H1 3994   3.078   3.673   0.983
 1269HOH     H2 3995   2.930   3.644   0.995
 1270HOH      O 3996   0.301   2.706   3.811
 1270HOH     H1 3997   0.350   2.703   3.893
 1270HOH     H2 3998   0.308   2.617   3.776
 1271HOH      O 3999   2.329   1.536   2.178
 1271HOH     H1 4000   2.271   1.493   2.116
 1271HOH     H2 4001   2.387   1.589   2.125
 1272HOH      O 4002   1.277   3.063   2.975
 1272HOH     H1 4003   1.349   3.036   3.034
 1272HOH     H2 4004   1.199   3.061   3.031
 1273HOH      O 4005   2.459   0.070   2.041
 1273HOH     H1 4006   2.436   0.006   2.109
 1273HOH     H2 4007   2.536   0.033   1.998
 1274HOH      O 4008   1.802   0.417   2.791
 1274HOH     H1 4009   1.889   0.413   2.831
 1274HOH     H2 4010   1.806   0.355   2.718
 1275HOH      O 4011   1.127   3.566   3.219
 1275HOH     H1 4012   1.155   3.548   3.309
 1275HOH     H2 4013   1.165   3.651   3.199
 1276HOH      O 4014   1.699   1.534   3.373
 1276HOH     H1 4015   1.709   1.560   3.465
 1276HOH     H2 4016   1.782   1.493   3.351
 1277HOH      O 4017   1.440   1.554   2.858
 1277HOH     H1 4018   1.418   1.630   2.912
 1277HOH     H2 4019   1.386   1.565   2.779
 1278HOH      O 4020   3.257   1.672   2.380
 1278HOH     H1 4021   3.200   1.634   2.447
 1278HOH     H2 4022   3.239   1.621   2.301
 1279HOH      O 4023   2.488   2.784   3.500
 1279HOH     H1 4024   2.431   2.850   3.540
 1279HOH     H2 4025   2.568   2.831   3.477
 1280HOH      O 4026   1.694   3.150   1.163
 1280HOH     H1 4027   1.612   3.169   1.207
 1280HOH     H2 4028   1.701   3.055   1.164
 1281HOH      O 4029   3.138   2.957   3.154
 1281HOH     H1 4030   3.135   3.052   3.165
 1281HOH     H2 4031   3.231   2.936   3.162
 1282HOH      O 4032   1.196   2.991   3.836
 1282HOH     H1 4033   1.216   2.905   3.799
 1282HOH     H2 4034   1.212   2.982   3.930
 1283HOH      O 4035   1.778   0.034   2.841
 1283HOH     H1 4036   1.861   0.024   2.796
 1283HOH     H2 4037   1.800   0.081   2.922
 1284HOH      O 4038   2.853   1.883   3.334
 1284HOH     H1 4039   2.888   1.908   3.248
 1284HOH     H2 4040   2.827   1.792   3.324
 1285HOH      O 4041   0.723   2.688   0.935
 1285HOH     H1 4042   0.803   2.707   0.984
 1285HOH     H2 4043   0.753   2.657   0.850
 1286HOH      O 4044   3.205   0.560   1.564
 1286HOH     H1 4045   3.273   0.521   1.619
 1286HOH     H2 4046   3.232   0.540   1.475
 1287HOH      O 4047   1.106   2.474   0.349
 1287HOH     H1 4048   1.136   2.455   0.438
 1287HOH     H2 4049   1.012   2.454   0.351
 1288HOH      O 4050   1.656   0.325   1.063
 1288HOH     H1 4051   1.616   0.266   0.999
 1288HOH     H2 4052   1.632   0.288   1.148
 1289HOH      O 4053   3.537   0.887   3.840
 1289HOH     H1 4054   3.475   0.867   3.910
 1289HOH     H2 4055   3.621   0.853   3.871
 1290HOH      O 4056   3.868   3.098   3.249
 1290HOH     H1 4057   3.795   3.037   3.256
 1290HOH     H2 4058   3.827   3.183   3.232
 1291HOH      O 4059   3.022   1.521   2.743
 1291HOH     H1 4060   2.997   1.607   2.708
 1291HOH     H2 4061   3.083   1.542   2.814
 1292HOH      O 4062   0.255   3.931   3.982
 1292HOH     H1 4063   0.223   3.873   3.913
 1292HOH     H2 4064   0.280   4.011   3.936
 1293HOH      O 4065   1.594   0.744   2.677
 1293HOH     H1 4066   1.507   0.742   2.717
 1293HOH     H2 4067   1.653   0.761   2.750
 1294HOH      O 4068   0.750   3.700   3.522
 1294HOH     H1 4069   0.756   3.656   3.437
 1294HOH     H2 4070   0.793   3.639   3.582
 1295HOH      O 4071   1.279   2.319   1.390
 1295HOH     H1 4072   1.341   2.375   1.343
 1295HOH     H2 4073   1.267   2.363   1.474
 1296HOH      O 4074   1.012   3.650   2.717
 1296HOH     H1 4075   1.050   3.593   2.649
 1296HOH     H2 4076   1.081   3.656   2.784
 1297HOH      O 4077   2.460   2.316   2.466
 1297HOH     H1 4078   2.426   2.321   2.555
 1297HOH     H2 4079   2.382   2.315   2.411
 1298HOH      O 4080   1.027   1.116   2.780
 1298HOH     H1 4081   1.049   1.176   2.852
 1298HOH     H2 4082   0.979   1.045   2.822
 1299HOH      O 4083   1.437   3.269   3.458
 1299HOH     H1 4084   1.362   3.248   3.404
 1299HOH     H2 4085   1.409   3.248   3.547
 1300HOH      O 4086   1.339   3.228   2.747
 1300HOH     H1 4087   1.335   3.160   2.814
 1300HOH     H2 4088   1.338   3.179   2.664
 1301HOH      O 4089   2.971   1.150   2.202
 1301HOH     H1 4090   3.057   1.190   2.219
 1301HOH     H2 4091   2.957   1.092   2.277
 1302HOH      O 4092   1.686   2.342   3.414
 1302HOH     H1 4093   1.666   2.407   3.481
 1302HOH     H2 4094   1.620   2.274   3.426
 1303HOH      O 4095   1.666   0.964   0.992
 1303HOH     H1 4096   1.667   1.059   1.004
 1303HOH     H2 4097   1.755   0.936   1.013
 1304HOH      O 4098   3.066   1.874   0.826
 1304HOH     H1 4099   3.105   1.961   0.835
 1304HOH     H2 4100   3.036   1.852   0.914
 1305HOH      O 4101   0.125   0.229   1.216
 1305HOH     H1 4102   0.156   0.307   1.169
 1305HOH     H2 4103   0.202   0.194   1.259
 1306HOH      O 4104   1.698   1.832   1.108
 1306HOH     H1 4105   1.715   1.756   1.053
 1306HOH     H2 4106   1.703   1.907   1.048
 1307HOH      O 4107   0.405   0.101   1.579
 1307HOH     H1 4108   0.498   0.118   1.563
 1307HOH     H2 4109   0.379   0.168   1.642
 1308HOH      O 4110   2.927   0.921   0.152
 1308HOH     H1 4111   2.983   0.974   0.209
 1308HOH     H2 4112   2.935   0.832   0.186
 1309HOH      O 4113   0.063   3.138   3.760
 1309HOH     H1 4114   0.089   3.048   3.740
 1309HOH     H2 4115   0.108   3.159   3.842
 1310HOH      O 4116   1.219   3.077   1.852
 1310HOH     H1 4117   1.263   3.020   1.789
 1310HOH     H2 4118   1.279   3.151   1.863
 1311HOH      O 4119   3.798   2.896   0.960
 1311HOH     H1 4120   3.762   2.823   1.009
 1311HOH     H2 4121   3.892   2.884   0.963
 1312HOH      O 4122   3.134   1.392   0.461
 1312HOH     H1 4123   3.068   1.325   0.443
 1312HOH     H2 4124   3.215   1.343   0.476
 1313HOH      O 4125   0.536   0.775   2.616
 1313HOH     H1 4126   0.442   0.761   2.605
 1313HOH     H2 4127   0.576   0.694   2.584
 1314HOH      O 4128   1.324   3.036   2.496
 1314HOH     H1 4129   1.377   2.957   2.510
 1314HOH     H2 4130   1.275   3.018   2.415
 1315HOH      O 4131   2.137   1.132   0.151
 1315HOH     H1 4132   2.134   1.135   0.246
 1315HOH     H2 4133   2.221   1.091   0.131
 1316HOH      O 4134   2.896   3.272   1.351
 1316HOH     H1 4135   2.894   3.349   1.294
 1316HOH     H2 4136   2.931   3.202   1.295
 1317HOH      O 4137   2.986   3.077   2.852
 1317HOH     H1 4138   3.045   3.064   2.778
 1317HOH     H2 4139   2.923   3.005   2.846
 1318HOH      O 4140   3.792   1.092   2.268
 1318HOH     H1 4141   3.852   1.017   2.259
 1318HOH     H2 4142   3.795   1.135   2.183
 1319HOH      O 4143   1.151   0.501   1.186
 1319HOH     H1 4144   1.128   0.465   1.101
 1319HOH     H2 4145   1.067   0.519   1.228
 1320HOH      O 4146   0.324   3.666   3.569
 1320HOH     H1 4147   0.283   3.592   3.615
 1320HOH     H2 4148   0.252   3.705   3.519
 1321HOH      O 4149   2.336   1.470   0.088
 1321HOH     H1 4150   2.378   1.429   0.164
 1321HOH     H2 4151   2.367   1.419   0.013
 1322HOH      O 4152   1.886   0.564   0.405
 1322HOH     H1 4153   1.973   0.604   0.404
 1322HOH     H2 4154   1.845   0.595   0.486
 1323HOH      O 4155   3.371   2.427   1.148
 1323HOH     H1 4156   3.293   2.446   1.200
 1323HOH     H2 4157   3.369   2.492   1.077
 1324HOH      O 4158   1.494   0.219   3.179
 1324HOH     H1 4159   1.563   0.229   3.245
 1324HOH     H2 4160   1.475   0.308   3.150
 1325HOH      O 4161   2.990   2.727   1.784
 1325HOH     H1 4162   2.979   2.812   1.742
 1325HOH     H2 4163   2.902   2.690   1.786
 1326HOH      O 4164   1.062   3.700   0.074
 1326HOH     H1 4165   1.144   3.665   0.039
 1326HOH     H2 4166   1.089   3.771   0.132
 1327HOH      O 4167   2.109   0.155   3.187
 1327HOH     H1 4168   2.198   0.162   3.153
 1327HOH     H2 4169   2.073   0.243   3.178
 1328HOH      O 4170   2.433   3.245   3.271
 1328HOH     H1 4171   2.515   3.235   3.222
 1328HOH     H2 4172   2.450   3.205   3.356
 1329HOH      O 4173   2.217   3.287   0.843
 1329HOH     H1 4174   2.219   3.381   0.858
 1329HOH     H2 4175   2.307   3.258   0.862
 1330HOH      O 4176   0.616   0.585   3.830
 1330HOH     H1 4177   0.626   0.650   3.900
 1330HOH     H2 4178   0.582   0.636   3.756
 1331HOH      O 4179   0.540   1.154   2.756
 1331HOH     H1 4180   0.561   1.206   2.679
 1331HOH     H2 4181   0.449   1.176   2.776
 1332HOH      O 4182   0.114   2.562   2.374
 1332HOH     H1 4183   0.194   2.612   2.386
 1332HOH     H2 4184   0.092   2.530   2.461
 1333HOH      O 4185   0.921   2.716   3.815
 1333HOH     H1 4186   0.851   2.751   3.759
 1333HOH     H2 4187   0.971   2.657   3.757
 1334HOH      O 4188   1.983   2.072   1.919
 1334HOH     H1 4189   2.060   2.121   1.947
 1334HOH     H2 4190   1.950   2.121   1.844
 1335HOH      O 4191   2.985   0.660   0.276
 1335HOH     H1 4192   3.069   0.618   0.293
 1335HOH     H2 4193   2.923   0.587   0.268
 1336HOH      O 4194   3.769   1.343   2.951
 1336HOH     H1 4195   3.771   1.294   3.034
 1336HOH     H2 4196   3.695   1.403   2.960
 1337HOH      O 4197   1.911   2.860   2.086
 1337HOH     H1 4198   1.983   2.920   2.069
 1337HOH     H2 4199   1.947   2.773   2.070
 1338HOH      O 4200   0.053   1.253   3.371
 1338HOH     H1 4201   0.080   1.182   3.313
 1338HOH     H2 4202   0.112   1.325   3.350
 1339HOH      O 4203   2.821   1.435   1.234
 1339HOH     H1 4204   2.887   1.463   1.170
 1339HOH     H2 4205   2.738   1.455   1.191
 1340HOH      O 4206   2.144   3.438   1.646
 1340HOH     H1 4207   2.177   3.523   1.674
 1340HOH     H2 4208   2.191   3.375   1.701
 1341HOH      O 4209   3.460   1.786   2.195
 1341HOH     H1 4210   3.419   1.778   2.109
 1341HOH     H2 4211   3.391   1.766   2.257
 1342HOH      O 4212   1.601   2.581   3.812
 1342HOH     H1 4213   1.603   2.593   3.717
 1342HOH     H2 4214   1.522   2.531   3.829
 1343HOH      O 4215   0.826   2.654   1.641
 1343HOH     H1 4216   0.910   2.618   1.669
 1343HOH     H2 4217   0.793   2.591   1.577
 1344HOH      O 4218   0.388   2.694   2.627
 1344HOH     H1 4219   0.396   2.599   2.615
 1344HOH     H2 4220   0.389   2.729   2.538
 1345HOH      O 4221   2.632   2.988   1.416
 1345HOH     H1 4222   2.702   2.975   1.353
 1345HOH     H2 4223   2.613   2.901   1.450
 1346HOH      O 4224   2.953   1.967   3.584
 1346HOH     H1 4225   2.925   1.894   3.531
 1346HOH     H2 4226   2.987   2.032   3.522
 1347HOH      O 4227   3.117   2.789   2.940
 1347HOH     H1 4228   3.106   2.868   2.994
 1347HOH     H2 4229   3.126   2.823   2.851
 1348HOH      O 4230   0.715   2.563   0.131
 1348HOH     H1 4231   0.715   2.556   0.227
 1348HOH     H2 4232   0.725   2.473   0.100
 1349HOH      O 4233   0.554   2.905   2.775
 1349HOH     H1 4234   0.549   2.916   2.870
 1349HOH     H2 4235   0.499   2.829   2.757
 1350HOH      O 4236   3.616   1.546   2.597
 1350HOH     H1 4237   3.628   1.451   2.603
 1350HOH     H2 4238   3.521   1.558   2.601
 1351HOH      O 4239   1.328   2.979   1.642
 1351HOH     H1 4240   1.398   2.917   1.661
 1351HOH     H2 4241   1.370   3.051   1.595
 1352HOH      O 4242   1.802   0.478   1.506
 1352HOH     H1 4243   1.715   0.477   1.466
 1352HOH     H2 4244   1.792   0.535   1.582
 1353HOH      O 4245   2.989   1.940   1.707
 1353HOH     H1 4246   3.059   1.933   1.772
 1353HOH     H2 4247   2.947   2.024   1.727
 1354HOH      O 4248   0.854   3.917   2.444
 1354HOH     H1 4249   0.820   3.957   2.523
 1354HOH     H2 4250   0.910   3.846   2.475
 1355HOH      O 4251   0.101   3.248   0.943
 1355HOH     H1 4252   0.146   3.239   1.027
 1355HOH     H2 4253   0.069   3.338   0.943
 1356HOH      O 4254   0.781   3.153   2.017
 1356HOH     H1 4255   0.715   3.085   2.004
 1356HOH     H2 4256   0.754   3.197   2.098
 1357HOH      O 4257   3.345   2.591   2.921
 1357HOH     H1 4258   3.255   2.623   2.932
 1357HOH     H2 4259   3.334   2.502   2.887
 1358HOH      O 4260   3.951   1.684   3.539
 1358HOH     H1 4261   3.998   1.693   3.457
 1358HOH     H2 4262   4.000   1.618   3.588
 1359HOH      O 4263   3.721   0.974   2.639
 1359HOH     H1 4264   3.649   0.988   2.701
 1359HOH     H2 4265   3.798   0.958   2.693
 1360HOH      O 4266   3.049   1.575   0.181
 1360HOH     H1 4267   3.084   1.497   0.224
 1360HOH     H2 4268   3.007   1.625   0.252
 1361HOH      O 4269   0.089   3.731   1.951
 1361HOH     H1 4270   0.085   3.671   1.877
 1361HOH     H2 4271   0.056   3.681   2.025
 1362HOH      O 4272   0.785   3.454   3.353
 1362HOH     H1 4273   0.816   3.439   3.264
 1362HOH     H2 4274   0.690   3.440   3.347
 1363HOH      O 4275   2.029   0.431   3.841
 1363HOH     H1 4276   2.089   0.366   3.878
 1363HOH     H2 4277   1.999   0.392   3.760
 1364HOH      O 4278   0.541   1.853   1.270
 1364HOH     H1 4279   0.468   1.795   1.247
 1364HOH     H2 4280   0.593   1.802   1.332
 1365HOH      O 4281   1.541   0.704   0.129
 1365HOH     H1 4282   1.446   0.692   0.131
 1365HOH     H2 4283   1.555   0.792   0.163
 1366HOH      O 4284   0.513   0.036   0.055
 1366HOH     H1 4285   0.502   0.032   0.150
 1366HOH     H2 4286   0.432   0.001   0.019
 1367HOH      O 4287   0.162   1.110   2.351
 1367HOH     H1 4288   0.096   1.110   2.420
 1367HOH     H2 4289   0.238   1.152   2.391
 1368HOH      O 4290   2.822   1.409   3.205
 1368HOH     H1 4291   2.809   1.357   3.125
 1368HOH     H2 4292   2.910   1.386   3.234
 1369HOH      O 4293   2.950   2.644   1.224
 1369HOH     H1 4294   3.014   2.654   1.294
 1369HOH     H2 4295   2.999   2.604   1.152
 1370HOH      O 4296   1.597   2.433   2.118
 1370HOH     H1 4297   1.674   2.483   2.144
 1370HOH     H2 4298   1.595   2.359   2.179
 1371HOH      O 4299   0.913   2.853   0.607
 1371HOH     H1 4300   0.837   2.795   0.613
 1371HOH     H2 4301   0.980   2.801   0.562
 1372HOH      O 4302   0.607   0.220   2.951
 1372HOH     H1 4303   0.629   0.296   2.896
 1372HOH     H2 4304   0.548   0.256   3.018
 1373HOH      O 4305   2.888   0.065   0.684
 1373HOH     H1 4306   2.796   0.077   0.706
 1373HOH     H2 4307   2.931   0.144   0.717
 1374HOH      O 4308   2.581   1.876   3.780
 1374HOH     H1 4309   2.538   1.875   3.866
 1374HOH     H2 4310   2.654   1.937   3.791
 1375HOH      O 4311   0.321   1.093   2.125
 1375HOH     H1 4312   0.245   1.097   2.183
 1375HOH     H2 4313   0.396   1.085   2.184
 1376HOH      O 4314   2.442   3.425   3.693
 1376HOH     H1 4315   2.447   3.331   3.709
 1376HOH     H2 4316   2.475   3.464   3.774
 1377HOH      O 4317   1.371   1.466   3.557
 1377HOH     H1 4318   1.302   1.491   3.619
 1377HOH     H2 4319   1.436   1.420   3.610
 1378HOH      O 4320   1.116   0.006   3.935
 1378HOH     H1 4321   1.182  -0.026   3.996
 1378HOH     H2 4322   1.092   0.092   3.969
 1379HOH      O 4323   3.270   1.596   1.938
 1379HOH     H1 4324   3.266   1.513   1.891
 1379HOH     H2 4325   3.363   1.618   1.939
 1380HOH      O 4326   3.191   3.486   2.043
 1380HOH     H1 4327   3.201   3.574   2.080
 1380HOH     H2 4328   3.164   3.500   1.952
 1381HOH      O 4329   1.657   3.992   3.393
 1381HOH     H1 4330   1.731   3.940   3.364
 1381HOH     H2 4331   1.642   3.965   3.483
 1382HOH      O 4332   3.082   2.274   2.493
 1382HOH     H1 4333   3.128   2.309   2.417
 1382HOH     H2 4334   3.013   2.338   2.512
 1383HOH      O 4335   3.813   1.860   3.288
 1383HOH     H1 4336   3.761   1.934   3.321
 1383HOH     H2 4337   3.757   1.819   3.222
 1384HOH      O 4338   2.024   1.770   3.245
 1384HOH     H1 4339   1.969   1.693   3.232
 1384HOH     H2 4340   2.075   1.778   3.164
 1385HOH      O 4341   0.848   2.675   2.481
 1385HOH     H1 4342   0.872   2.584   2.498
 1385HOH     H2 4343   0.788   2.671   2.406
 1386HOH      O 4344   2.597   2.094   2.720
 1386HOH     H1 4345   2.595   2.044   2.802
 1386HOH     H2 4346   2.675   2.148   2.727
 1387HOH      O 4347   3.143   2.426   1.309
 1387HOH     H1 4348   3.172   2.349   1.358
 1387HOH     H2 4349   3.071   2.395   1.255
 1388HOH      O 4350   3.648   0.175   1.413
 1388HOH     H1 4351   3.743   0.174   1.409
 1388HOH     H2 4352   3.624   0.084   1.430
 1389HOH      O 4353   2.698   2.144   3.003
 1389HOH     H1 4354   2.723   2.176   3.090
 1389HOH     H2 4355   2.743   2.201   2.942
 1390HOH      O 4356   0.998   3.675   1.483
 1390HOH     H1 4357   1.073   3.695   1.539
 1390HOH     H2 4358   0.938   3.628   1.541
 1391HOH      O 4359   0.309   1.934   3.453
 1391HOH     H1 4360   0.280   1.858   3.505
 1391HOH     H2 4361   0.234   1.953   3.396
 1392HOH      O 4362   0.530   0.498   0.617
 1392HOH     H1 4363   0.585   0.543   0.553
 1392HOH     H2 4364   0.590   0.441   0.665
 1393HOH      O 4365   2.986   1.524   1.052
 1393HOH     H1 4366   2.922   1.587   1.019
 1393HOH     H2 4367   3.068   1.548   1.008
 1394HOH      O 4368   2.154   2.424   0.976
 1394HOH     H1 4369   2.192   2.474   1.048
 1394HOH     H2 4370   2.074   2.387   1.013
 1395HOH      O 4371   0.542   2.194   0.335
 1395HOH     H1 4372   0.604   2.264   0.355
 1395HOH     H2 4373   0.541   2.189   0.240
 1396HOH      O 4374   3.598   1.613   0.004
 1396HOH     H1 4375   3.643   1.621   0.089
 1396HOH     H2 4376   3.595   1.703  -0.029
 1397HOH      O 4377   2.104   3.771   0.227
 1397HOH     H1 4378   2.132   3.776   0.136
 1397HOH     H2 4379   2.143   3.690   0.259
 1398HOH      O 4380   3.219   2.361   2.244
 1398HOH     H1 4381   3.166   2.397   2.173
 1398HOH     H2 4382   3.291   2.424   2.254
 1399HOH      O 4383   3.401   1.906   3.682
 1399HOH     H1 4384   3.425   1.821   3.645
 1399HOH     H2 4385   3.326   1.888   3.738
 1400HOH      O 4386   3.163   0.537   2.410
 1400HOH     H1 4387   3.254   0.560   2.429
 1400HOH     H2 4388   3.166   0.493   2.325
 1401HOH      O 4389   3.877   1.713   2.067
 1401HOH     H1 4390   3.905   1.695   1.977
 1401HOH     H2 4391   3.956   1.698   2.120
 1402HOH      O 4392   3.487   2.834   1.570
 1402HOH     H1 4393   3.404   2.809   1.612
 1402HOH     H2 4394   3.514   2.757   1.521
 1403HOH      O 4395   0.094   2.755   2.172
 1403HOH     H1 4396   0.024   2.724   2.230
 1403HOH     H2 4397   0.050   2.817   2.114
 1404HOH      O 4398   3.022   2.922   2.449
 1404HOH     H1 4399   2.968   2.988   2.405
 1404HOH     H2 4400   3.035   2.854   2.383
 1405HOH      O 4401   1.696   3.175   2.276
 1405HOH     H1 4402   1.776   3.196   2.324
 1405HOH     H2 4403   1.697   3.235   2.201
 1406HOH      O 4404   3.142   2.456   0.517
 1406HOH     H1 4405   3.194   2.452   0.437
 1406HOH     H2 4406   3.141   2.366   0.549
 1407HOH      O 4407   3.354   3.988   2.054
 1407HOH     H1 4408   3.301   4.064   2.075
 1407HOH     H2 4409   3.380   3.953   2.139
 1408HOH      O 4410   3.862   2.673   1.917
 1408HOH     H1 4411   3.896   2.760   1.939
 1408HOH     H2 4412   3.794   2.691   1.852
 1409HOH      O 4413   0.701   3.962   1.251
 1409HOH     H1 4414   0.734   3.940   1.338
 1409HOH     H2 4415   0.730   4.052   1.237
 1410HOH      O 4416   3.836   0.547   0.788
 1410HOH     H1 4417   3.775   0.503   0.729
 1410HOH     H2 4418   3.823   0.640   0.771
 1411HOH      O 4419   2.148   2.018   3.381
 1411HOH     H1 4420   2.068   2.070   3.379
 1411HOH     H2 4421   2.121   1.932   3.350
 1412HOH      O 4422   0.493   3.392   0.815
 1412HOH     H1 4423   0.416   3.413   0.763
 1412HOH     H2 4424   0.566   3.432   0.767
 1413HOH      O 4425   3.460   0.799   1.545
 1413HOH     H1 4426   3.424   0.851   1.474
 1413HOH     H2 4427   3.508   0.729   1.501
 1414HOH      O 4428   2.433   0.385   2.510
 1414HOH     H1 4429   2.435   0.312   2.448
 1414HOH     H2 4430   2.429   0.463   2.455
 1415HOH      O 4431   3.929   2.053   0.742
 1415HOH     H1 4432   4.009   2.004   0.724
 1415HOH     H2 4433   3.932   2.126   0.680
 1416HOH      O 4434   1.848   0.903   3.963
 1416HOH     H1 4435   1.842   0.811   3.938
 1416HOH     H2 4436   1.842   0.951   3.880
 1417HOH      O 4437   0.899   2.993   3.049
 1417HOH     H1 4438   0.976   3.040   3.079
 1417HOH     H2 4439   0.934   2.916   3.005
 1418HOH      O 4440   2.115   1.743   2.968
 1418HOH     H1 4441   2.152   1.788   2.892
 1418HOH     H2 4442   2.081   1.661   2.933
 1419HOH      O 4443   3.598   0.951   1.206
 1419HOH     H1 4444   3.629   1.041   1.200
 1419HOH     H2 4445   3.519   0.956   1.259
 1420HOH      O 4446   1.438   0.840   1.636
 1420HOH     H1 4447   1.346   0.862   1.648
 1420HOH     H2 4448   1.438   0.776   1.565
 1421HOH      O 4449   2.961   1.980   3.066
 1421HOH     H1 4450   2.917   1.913   3.014
 1421HOH     H2 4451   2.954   2.060   3.013
 1422HOH      O 4452   0.442   2.192   3.172
 1422HOH     H1 4453   0.435   2.099   3.192
 1422HOH     H2 4454   0.370   2.233   3.220
 1423HOH      O 4455   2.479   3.166   1.284
 1423HOH     H1 4456   2.531   3.113   1.344
 1423HOH     H2 4457   2.460   3.246   1.333
 1424HOH      O 4458   1.448   1.315   1.130
 1424HOH     H1 4459   1.527   1.265   1.106
 1424HOH     H2 4460   1.481   1.401   1.154
 1425HOH      O 4461   2.226   2.132   2.296
 1425HOH     H1 4462   2.209   2.096   2.383
 1425HOH     H2 4463   2.202   2.225   2.304
 1426HOH      O 4464   1.220   0.646   2.999
 1426HOH     H1 4465   1.135   0.652   2.955
 1426HOH     H2 4466   1.208   0.579   3.065
 1427HOH      O 4467   3.328   3.399   3.383
 1427HOH     H1 4468   3.241   3.362   3.372
 1427HOH     H2 4469   3.356   3.424   3.295
 1428HOH      O 4470   2.689   1.150   0.696
 1428HOH     H1 4471   2.761   1.090   0.717
 1428HOH     H2 4472   2.711   1.231   0.742
 1429HOH      O 4473   3.724   2.709   2.857
 1429HOH     H1 4474   3.683   2.690   2.772
 1429HOH     H2 4475   3.651   2.711   2.919
 1430HOH      O 4476   2.257   2.934   3.026
 1430HOH     H1 4477   2.273   2.901   3.115
 1430HOH     H2 4478   2.208   3.015   3.039
 1431HOH      O 4479   1.758   0.557   0.995
 1431HOH     H1 4480   1.736   0.464   1.007
 1431HOH     H2 4481   1.843   0.556   0.952
 1432HOH      O 4482   3.021   3.093   1.148
 1432HOH     H1 4483   3.117   3.097   1.144
 1432HOH     H2 4484   2.992   3.169   1.098
 1433HOH      O 4485   1.160   2.193   3.744
 1433HOH     H1 4486   1.069   2.202   3.773
 1433HOH     H2 4487   1.200   2.138   3.812
 1434HOH      O 4488   0.009   2.533   2.612
 1434HOH     H1 4489  -0.011   2.577   2.694
 1434HOH     H2 4490  -0.049   2.457   2.610
 1435HOH      O 4491   3.745   2.885   3.374
 1435HOH     H1 4492   3.668   2.859   3.425
 1435HOH     H2 4493   3.817   2.888   3.437
 1436HOH      O 4494   1.326   2.760   3.739
 1436HOH     H1 4495   1.316   2.677   3.691
 1436HOH     H2 4496   1.365   2.734   3.823
 1437HOH      O 4497   0.813   3.482   0.822
 1437HOH     H1 4498   0.767   3.492   0.738
 1437HOH     H2 4499   0.894   3.436   0.798
 1438HOH      O 4500   2.799   1.373   3.825
 1438HOH     H1 4501   2.872   1.353   3.883
 1438HOH     H2 4502   2.794   1.468   3.824
 1439HOH      O 4503   0.671   1.831   2.885
 1439HOH     H1 4504   0.758   1.861   2.912
 1439HOH     H2 4505   0.656   1.751   2.935
 1440HOH      O 4506   3.834   0.476   3.858
 1440HOH     H1 4507   3.772   0.453   3.790
 1440HOH     H2 4508   3.811   0.566   3.882
 1441HOH      O 4509   3.256   2.337   3.119
 1441HOH     H1 4510   3.278   2.300   3.033
 1441HOH     H2 4511   3.328   2.396   3.139
 1442HOH      O 4512   3.194   1.114   3.059
 1442HOH     H1 4513   3.187   1.062   2.978
 1442HOH     H2 4514   3.134   1.071   3.120
 1443HOH      O 4515   2.934   0.815   0.628
 1443HOH     H1 4516   2.915   0.821   0.722
 1443HOH     H2 4517   2.878   0.744   0.597
 1444HOH      O 4518   2.521   1.756   2.149
 1444HOH     H1 4519   2.480   1.842   2.159
 1444HOH     H2 4520   2.615   1.774   2.149
 1445HOH      O 4521   3.216   2.529   3.879
 1445HOH     H1 4522   3.173   2.452   3.841
 1445HOH     H2 4523   3.180   2.534   3.968
 1446HOH      O 4524   0.925   1.981   2.071
 1446HOH     H1 4525   0.921   1.917   2.000
 1446HOH     H2 4526   0.845   2.033   2.060
 1447HOH      O 4527   1.128   2.098   0.205
 1447HOH     H1 4528   1.037   2.128   0.215
 1447HOH     H2 4529   1.130   2.014   0.250
 1448HOH      O 4530   1.857   2.215   0.439
 1448HOH     H1 4531   1.789   2.165   0.393
 1448HOH     H2 4532   1.910   2.253   0.369
 1449HOH      O 4533   0.170   2.914   3.687
 1449HOH     H1 4534   0.189   2.853   3.758
 1449HOH     H2 4535   0.251   2.916   3.635
 1450HOH      O 4536   1.880   3.980   1.921
 1450HOH     H1 4537   1.939   4.010   1.851
 1450HOH     H2 4538   1.900   4.037   1.995
 1451HOH      O 4539   3.381   3.087   3.361
 1451HOH     H1 4540   3.368   3.102   3.454
 1451HOH     H2 4541   3.450   3.150   3.336
 1452HOH      O 4542   0.514   2.052   3.617
 1452HOH     H1 4543   0.480   1.986   3.678
 1452HOH     H2 4544   0.446   2.058   3.549
 1453HOH      O 4545   3.874   3.789   1.131
 1453HOH     H1 4546   3.880   3.877   1.168
 1453HOH     H2 4547   3.962   3.771   1.097
 1454HOH      O 4548   2.587   1.721   2.745
 1454HOH     H1 4549   2.613   1.642   2.793
 1454HOH     H2 4550   2.549   1.778   2.811
 1455HOH      O 4551   4.027   3.057   1.400
 1455HOH     H1 4552   3.947   3.036   1.448
 1455HOH     H2 4553   4.055   3.141   1.436
 1456HOH      O 4554   0.910   3.450   1.070
 1456HOH     H1 4555   0.955   3.534   1.082
 1456HOH     H2 4556   0.859   3.462   0.990
 1457HOH      O 4557   3.672   2.392   0.629
 1457HOH     H1 4558   3.671   2.483   0.600
 1457HOH     H2 4559   3.752   2.356   0.593
 1458HOH      O 4560   2.264   1.088   3.333
 1458HOH     H1 4561   2.248   1.180   3.311
 1458HOH     H2 4562   2.340   1.064   3.281
 1459HOH      O 4563   3.636   1.655   0.546
 1459HOH     H1 4564   3.653   1.722   0.612
 1459HOH     H2 4565   3.707   1.592   0.557
 1460HOH      O 4566   1.343   0.285   0.980
 1460HOH     H1 4567   1.288   0.277   1.058
 1460HOH     H2 4568   1.355   0.380   0.969
 1461HOH      O 4569   2.770   1.675   0.943
 1461HOH     H1 4570   2.766   1.760   0.899
 1461HOH     H2 4571   2.678   1.651   0.958
 1462HOH      O 4572   0.897   3.434   3.088
 1462HOH     H1 4573   0.974   3.474   3.127
 1462HOH     H2 4574   0.865   3.498   3.025
 1463HOH      O 4575   2.197   2.412   2.349
 1463HOH     H1 4576   2.104   2.402   2.330
 1463HOH     H2 4577   2.205   2.498   2.390
 1464HOH      O 4578   2.184   2.635   3.973
 1464HOH     H1 4579   2.258   2.618   3.914
 1464HOH     H2 4580   2.211   2.714   4.022
 1465HOH      O 4581   3.651   2.158   3.179
 1465HOH     H1 4582   3.697   2.241   3.188
 1465HOH     H2 4583   3.577   2.165   3.240
 1466HOH      O 4584   1.637   3.244   2.872
 1466HOH     H1 4585   1.691   3.169   2.848
 1466HOH     H2 4586   1.596   3.219   2.955
 1467HOH      O 4587   3.403   3.762   3.346
 1467HOH     H1 4588   3.321   3.725   3.312
 1467HOH     H2 4589   3.424   3.708   3.422
 1468HOH      O 4590   2.164   0.723   3.892
 1468HOH     H1 4591   2.134   0.770   3.969
 1468HOH     H2 4592   2.135   0.633   3.906
 1469HOH      O 4593   0.063   2.106   3.573
 1469HOH     H1 4594  -0.032   2.096   3.563
 1469HOH     H2 4595   0.099   2.021   3.546
 1470HOH      O 4596   2.833   0.309   3.225
 1470HOH     H1 4597   2.838   0.214   3.241
 1470HOH     H2 4598   2.923   0.335   3.208
 1471HOH      O 4599   1.961   2.712   3.407
 1471HOH     H1 4600   2.013   2.711   3.327
 1471HOH     H2 4601   1.981   2.628   3.449
 1472HOH      O 4602   0.450   3.444   2.384
 1472HOH     H1 4603   0.506   3.366   2.383
 1472HOH     H2 4604   0.488   3.500   2.451
 1473HOH      O 4605   1.399   3.423   0.758
 1473HOH     H1 4606   1.479   3.385   0.722
 1473HOH     H2 4607   1.410   3.518   0.746
 1474HOH      O 4608   2.021   2.618   2.019
 1474HOH     H1 4609   2.100   2.576   1.985
 1474HOH     H2 4610   1.962   2.623   1.943
 1475HOH      O 4611   1.569   1.355   1.416
 1475HOH     H1 4612   1.649   1.391   1.453
 1475HOH     H2 4613   1.535   1.425   1.360
 1476HOH      O 4614   2.072   2.037   1.238
 1476HOH     H1 4615   2.005   2.104   1.223
 1476HOH     H2 4616   2.067   2.019   1.332
 1477HOH      O 4617   2.070   0.406   2.862
 1477HOH     H1 4618   2.124   0.327   2.867
 1477HOH     H2 4619   2.084   0.449   2.947
 1478HOH      O 4620   1.332   0.822   2.810
 1478HOH     H1 4621   1.318   0.796   2.902
 1478HOH     H2 4622   1.284   0.756   2.760
 1479HOH      O 4623   1.780   3.570   2.346
 1479HOH     H1 4624   1.715   3.568   2.276
 1479HOH     H2 4625   1.782   3.661   2.374
 1480HOH      O 4626   1.826   1.293   2.827
 1480HOH     H1 4627   1.749   1.259   2.782
 1480HOH     H2 4628   1.880   1.215   2.844
 1481HOH      O 4629   3.684   3.180   1.218
 1481HOH     H1 4630   3.658   3.091   1.194
 1481HOH     H2 4631   3.707   3.222   1.135
 1482HOH      O 4632   2.018   3.663   2.872
 1482HOH     H1 4633   1.972   3.581   2.889
 1482HOH     H2 4634   2.092   3.639   2.817
 1483HOH      O 4635   3.024   3.787   0.581
 1483HOH     H1 4636   3.041   3.752   0.494
 1483HOH     H2 4637   3.111   3.800   0.620
 1484HOH      O 4638   1.986   1.440   0.472
 1484HOH     H1 4639   1.993   1.511   0.536
 1484HOH     H2 4640   1.980   1.485   0.387
 1485HOH      O 4641   1.232   2.684   1.573
 1485HOH     H1 4642   1.273   2.717   1.653
 1485HOH     H2 4643   1.247   2.590   1.576
 1486HOH      O 4644   0.795   1.421   1.804
 1486HOH     H1 4645   0.724   1.442   1.744
 1486HOH     H2 4646   0.784   1.328   1.822
 1487HOH      O 4647   3.652   0.771   2.480
 1487HOH     H1 4648   3.646   0.847   2.537
 1487HOH     H2 4649   3.737   0.731   2.502
 1488HOH      O 4650   2.238   3.012   3.819
 1488HOH     H1 4651   2.150   3.033   3.851
 1488HOH     H2 4652   2.225   2.935   3.763
 1489HOH      O 4653   3.604   2.096   0.068
 1489HOH     H1 4654   3.590   2.151  -0.009
 1489HOH     H2 4655   3.657   2.022   0.036
 1490HOH      O 4656   0.808   3.510   3.712
 1490HOH     H1 4657   0.742   3.452   3.750
 1490HOH     H2 4658   0.891   3.467   3.734
 1491HOH      O 4659   0.837   0.116   3.063
 1491HOH     H1 4660   0.760   0.132   3.008
 1491HOH     H2 4661   0.911   0.121   3.003
 1492HOH      O 4662   0.485   1.724   2.270
 1492HOH     H1 4663   0.541   1.648   2.285
 1492HOH     H2 4664   0.470   1.724   2.176
 1493HOH      O 4665   2.243   2.678   2.388
 1493HOH     H1 4666   2.313   2.658   2.449
 1493HOH     H2 4667   2.270   2.759   2.345
 1494HOH      O 4668   0.614   1.594   2.980
 1494HOH     H1 4669   0.589   1.536   2.908
 1494HOH     H2 4670   0.697   1.557   3.012
 1495HOH      O 4671   2.433   1.801   1.566
 1495HOH     H1 4672   2.467   1.798   1.655
 1495HOH     H2 4673   2.483   1.871   1.524
 1496HOH      O 4674   1.440   0.363   2.336
 1496HOH     H1 4675   1.345   0.363   2.342
 1496HOH     H2 4676   1.465   0.271   2.343
 1497HOH      O 4677   2.659   3.483   1.917
 1497HOH     H1 4678   2.722   3.417   1.889
 1497HOH     H2 4679   2.575   3.437   1.918
 1498HOH      O 4680   3.541   1.560   1.676
 1498HOH     H1 4681   3.532   1.473   1.715
 1498HOH     H2 4682   3.557   1.617   1.751
 1499HOH      O 4683   0.329   3.398   3.711
 1499HOH     H1 4684   0.354   3.310   3.741
 1499HOH     H2 4685   0.386   3.415   3.636
 1500HOH      O 4686   2.640   2.025   0.106
 1500HOH     H1 4687   2.700   1.955   0.079
 1500HOH     H2 4688   2.629   2.012   0.201
 1501HOH      O 4689   3.559   2.675   0.125
 1501HOH     H1 4690   3.588   2.590   0.092
 1501HOH     H2 4691   3.638   2.713   0.165
 1502HOH      O 4692   2.836   1.788   0.014
 1502HOH     H1 4693   2.912   1.745   0.055
 1502HOH     H2 4694   2.791   1.718  -0.033
 1503HOH      O 4695   3.816   0.684   2.869
 1503HOH     H1 4696   3.795   0.591   2.872
 1503HOH     H2 4697   3.735   0.725   2.839
 1504HOH      O 4698   3.161   3.989   0.991
 1504HOH     H1 4699   3.169   4.013   0.898
 1504HOH     H2 4700   3.068   3.996   1.009
 1505HOH      O 4701   1.197   1.828   0.102
 1505HOH     H1 4702   1.182   1.790   0.189
 1505HOH     H2 4703   1.290   1.850   0.102
 1506HOH      O 4704   1.931   1.507   2.970
 1506HOH     H1 4705   1.882   1.561   2.909
 1506HOH     H2 4706   1.929   1.419   2.932
 1507HOH      O 4707   3.729   2.671   1.094
 1507HOH     H1 4708   3.737   2.708   1.182
 1507HOH     H2 4709   3.773   2.586   1.100
 1508HOH      O 4710   1.346   3.748   3.109
 1508HOH     H1 4711   1.390   3.749   3.194
 1508HOH     H2 4712   1.383   3.821   3.061
 1509HOH      O 4713   0.945   0.676   2.968
 1509HOH     H1 4714   0.910   0.638   2.887
 1509HOH     H2 4715   0.920   0.769   2.963
 1510HOH      O 4716   0.308   3.694   0.902
 1510HOH     H1 4717   0.314   3.742   0.819
 1510HOH     H2 4718   0.399   3.687   0.932
 1511HOH      O 4719   0.731   3.742   3.828
 1511HOH     H1 4720   0.734   3.669   3.766
 1511HOH     H2 4721   0.715   3.819   3.774
 1512HOH      O 4722   3.639   3.166   2.678
 1512HOH     H1 4723   3.696   3.234   2.715
 1512HOH     H2 4724   3.646   3.093   2.739
 1513HOH      O 4725   0.646   3.479   2.173
 1513HOH     H1 4726   0.629   3.399   2.223
 1513HOH     H2 4727   0.725   3.515   2.213
 1514HOH      O 4728   2.892   0.060   4.026
 1514HOH     H1 4729   2.884  -0.028   3.992
 1514HOH     H2 4730   2.804   0.096   4.021
 1515HOH      O 4731   1.484   1.539   1.897
 1515HOH     H1 4732   1.513   1.626   1.922
 1515HOH     H2 4733   1.541   1.479   1.946
 1516HOH      O 4734   2.744   2.326   2.430
 1516HOH     H1 4735   2.781   2.403   2.473
 1516HOH     H2 4736   2.649   2.336   2.441
 1517HOH      O 4737   2.092   3.852   2.373
 1517HOH     H1 4738   2.132   3.856   2.286
 1517HOH     H2 4739   2.106   3.939   2.410
 1518HOH      O 4740   1.655   1.054   1.624
 1518HOH     H1 4741   1.649   1.070   1.530
 1518HOH     H2 4742   1.614   0.969   1.637
 1519HOH      O 4743   3.492   2.009   0.291
 1519HOH     H1 4744   3.475   1.915   0.280
 1519HOH     H2 4745   3.529   2.037   0.208
 1520HOH      O 4746   3.398   0.656   2.491
 1520HOH     H1 4747   3.435   0.609   2.565
 1520HOH     H2 4748   3.473   0.702   2.453
 1521HOH      O 4749   1.800   1.037   0.365
 1521HOH     H1 4750   1.864   0.969   0.384
 1521HOH     H2 4751   1.747   1.001   0.294
 1522HOH      O 4752   1.944   1.464   1.195
 1522HOH     H1 4753   1.953   1.371   1.176
 1522HOH     H2 4754   2.001   1.478   1.271
 1523HOH      O 4755   2.984   2.347   0.883
 1523HOH     H1 4756   2.938   2.427   0.860
 1523HOH     H2 4757   3.076   2.366   0.865
 1524HOH      O 4758   2.877   3.803   2.727
 1524HOH     H1 4759   2.873   3.723   2.779
 1524HOH     H2 4760   2.953   3.791   2.670
 1525HOH      O 4761   3.147   1.909   2.815
 1525HOH     H1 4762   3.183   1.904   2.727
 1525HOH     H2 4763   3.076   1.973   2.809
 1526HOH      O 4764   0.283   0.019   2.649
 1526HOH     H1 4765   0.282  -0.060   2.596
 1526HOH     H2 4766   0.283  -0.012   2.739
 1527HOH      O 4767   3.502   3.686   0.304
 1527HOH     H1 4768   3.469   3.751   0.242
 1527HOH     H2 4769   3.474   3.602   0.268
 1528HOH      O 4770   0.744   2.521   3.218
 1528HOH     H1 4771   0.670   2.516   3.158
 1528HOH     H2 4772   0.783   2.607   3.202
 1529HOH      O 4773   1.902   2.141   3.478
 1529HOH     H1 4774   1.862   2.054   3.473
 1529HOH     H2 4775   1.833   2.201   3.447
 1530HOH      O 4776   0.492   0.612   3.322
 1530HOH     H1 4777   0.529   0.699   3.339
 1530HOH     H2 4778   0.498   0.602   3.227
 1531HOH      O 4779   3.518   3.886   2.529
 1531HOH     H1 4780   3.502   3.949   2.599
 1531HOH     H2 4781   3.541   3.805   2.575
 1532HOH      O 4782   1.154   0.444   3.205
 1532HOH     H1 4783   1.066   0.464   3.236
 1532HOH     H2 4784   1.142   0.369   3.146
 1533HOH      O 4785   1.576   3.109   3.713
 1533HOH     H1 4786   1.480   3.119   3.710
 1533HOH     H2 4787   1.593   3.027   3.667
 1534HOH      O 4788   1.834   0.117   0.178
 1534HOH     H1 4789   1.830   0.155   0.266
 1534HOH     H2 4790   1.927   0.100   0.164
 1535HOH      O 4791   3.972   3.694   3.251
 1535HOH     H1 4792   4.048   3.750   3.234
 1535HOH     H2 4793   3.905   3.754   3.284
 1536HOH      O 4794   0.375   3.282   0.359
 1536HOH     H1 4795   0.410   3.356   0.410
 1536HOH     H2 4796   0.451   3.249   0.311
 1537HOH      O 4797   2.434   0.171   3.777
 1537HOH     H1 4798   2.388   0.247   3.812
 1537HOH     H2 4799   2.523   0.179   3.811
 1538HOH      O 4800   1.277   2.492   3.740
 1538HOH     H1 4801   1.188   2.522   3.720
 1538HOH     H2 4802   1.272   2.397   3.738
 1539HOH      O 4803   2.459   2.507   3.436
 1539HOH     H1 4804   2.550   2.495   3.407
 1539HOH     H2 4805   2.452   2.601   3.453
 1540HOH      O 4806   2.381   0.120   3.125
 1540HOH     H1 4807   2.455   0.181   3.119
 1540HOH     H2 4808   2.409   0.055   3.189
 1541HOH      O 4809   0.894   2.199   1.105
 1541HOH     H1 4810   0.909   2.145   1.182
 1541HOH     H2 4811   0.812   2.168   1.069
 1542HOH      O 4812   0.183   2.259   2.708
 1542HOH     H1 4813   0.173   2.185   2.648
 1542HOH     H2 4814   0.132   2.330   2.668
 1543HOH      O 4815   2.004   3.739   1.651
 1543HOH     H1 4816   1.976   3.763   1.562
 1543HOH     H2 4817   2.099   3.728   1.644
 1544HOH      O 4818   2.091   3.114   2.732
 1544HOH     H1 4819   2.171   3.163   2.717
 1544HOH     H2 4820   2.116   3.022   2.718
 1545HOH      O 4821   2.851   2.079   2.548
 1545HOH     H1 4822   2.908   2.022   2.496
 1545HOH     H2 4823   2.832   2.152   2.490
 1546HOH      O 4824   0.116   2.071   1.090
 1546HOH     H1 4825   0.037   2.042   1.044
 1546HOH     H2 4826   0.155   2.136   1.032
 1547HOH      O 4827   0.745   0.031   2.211
 1547HOH     H1 4828   0.804  -0.001   2.279
 1547HOH     H2 4829   0.763  -0.025   2.136
 1548HOH      O 4830   3.835   1.448   0.847
 1548HOH     H1 4831   3.910   1.391   0.833
 1548HOH     H2 4832   3.818   1.488   0.761
 1549HOH      O 4833   1.037   3.717   3.651
 1549HOH     H1 4834   0.960   3.757   3.691
 1549HOH     H2 4835   1.107   3.781   3.664
 1550HOH      O 4836   3.132   0.353   0.519
 1550HOH     H1 4837   3.149   0.260   0.501
 1550HOH     H2 4838   3.039   0.364   0.502
 1551HOH      O 4839   3.776   2.376   3.112
 1551HOH     H1 4840   3.814   2.358   3.027
 1551HOH     H2 4841   3.816   2.459   3.139
 1552HOH      O 4842   2.193   3.097   1.387
 1552HOH     H1 4843   2.288   3.100   1.371
 1552HOH     H2 4844   2.157   3.053   1.309
 1553HOH      O 4845   0.812   3.608   0.029
 1553HOH     H1 4846   0.782   3.651  -0.050
 1553HOH     H2 4847   0.890   3.657   0.056
 1554HOH      O 4848   0.970   3.141   1.147
 1554HOH     H1 4849   1.042   3.094   1.191
 1554HOH     H2 4850   0.895   3.082   1.156
 1555HOH      O 4851   0.512   0.904   2.367
 1555HOH     H1 4852   0.530   0.996   2.348
 1555HOH     H2 4853   0.558   0.887   2.449
 1556HOH      O 4854   2.522   3.935   3.310
 1556HOH     H1 4855   2.467   3.968   3.381
 1556HOH     H2 4856   2.541   3.845   3.335
 1557HOH      O 4857   1.673   0.303   0.626
 1557HOH     H1 4858   1.677   0.212   0.597
 1557HOH     H2 4859   1.606   0.303   0.695
 1558HOH      O 4860   0.485   0.345   1.840
 1558HOH     H1 4861   0.526   0.396   1.909
 1558HOH     H2 4862   0.466   0.409   1.771
 1559HOH      O 4863   2.979   2.488   2.986
 1559HOH     H1 4864   3.042   2.520   3.050
 1559HOH     H2 4865   3.033   2.444   2.920
 1560HOH      O 4866   0.128   3.584   0.067
 1560HOH     H1 4867   0.170   3.656   0.113
 1560HOH     H2 4868   0.036   3.610   0.058
 1561HOH      O 4869   2.500   1.065   1.733
 1561HOH     H1 4870   2.455   1.124   1.792
 1561HOH     H2 4871   2.535   1.122   1.664
 1562HOH      O 4872   4.020   1.020   1.392
 1562HOH     H1 4873   4.001   0.928   1.411
 1562HOH     H2 4874   4.052   1.020   1.302
 1563HOH      O 4875   0.860   3.243   2.917
 1563HOH     H1 4876   0.845   3.168   2.976
 1563HOH     H2 4877   0.881   3.316   2.976
 1564HOH      O 4878   3.581   2.198   2.778
 1564HOH     H1 4879   3.644   2.262   2.810
 1564HOH     H2 4880   3.611   2.115   2.814
 1565HOH      O 4881   0.957   0.047   0.853
 1565HOH     H1 4882   0.863   0.034   0.857
 1565HOH     H2 4883   0.968   0.129   0.804
 1566HOH      O 4884   2.834   0.133   2.465
 1566HOH     H1 4885   2.903   0.147   2.401
 1566HOH     H2 4886   2.878   0.091   2.539
 1567HOH      O 4887   3.738   1.080   0.770
 1567HOH     H1 4888   3.746   1.144   0.698
 1567HOH     H2 4889   3.666   1.023   0.743
 1568HOH      O 4890   0.765   0.562   0.427
 1568HOH     H1 4891   0.819   0.508   0.370
 1568HOH     H2 4892   0.782   0.529   0.515
 1569HOH      O 4893   1.446   3.389   3.175
 1569HOH     H1 4894   1.449   3.296   3.152
 1569HOH     H2 4895   1.354   3.414   3.162
 1570HOH      O 4896   2.149   0.391   0.255
 1570HOH     H1 4897   2.071   0.342   0.283
 1570HOH     H2 4898   2.207   0.389   0.331
 1571HOH      O 4899   0.265   0.865   3.111
 1571HOH     H1 4900   0.256   0.816   3.193
 1571HOH     H2 4901   0.356   0.853   3.086
 1572HOH      O 4902   1.343   3.805   1.900
 1572HOH     H1 4903   1.423   3.772   1.859
 1572HOH     H2 4904   1.374   3.851   1.978
 1573HOH      O 4905   0.060   2.169   2.452
 1573HOH     H1 4906   0.008   2.116   2.392
 1573HOH     H2 4907   0.144   2.182   2.407
 1574HOH      O 4908   0.257   3.248   1.567
 1574HOH     H1 4909   0.325   3.314   1.554
 1574HOH     H2 4910   0.184   3.278   1.513
 1575HOH      O 4911   1.609   3.585   2.122
 1575HOH     H1 4912   1.520   3.552   2.117
 1575HOH     H2 4913   1.659   3.528   2.064
 1576HOH      O 4914   3.856   1.988   1.288
 1576HOH     H1 4915   3.827   1.974   1.198
 1576HOH     H2 4916   3.927   2.052   1.281
 1577HOH      O 4917   2.819   3.086   0.689
 1577HOH     H1 4918   2.906   3.096   0.727
 1577HOH     H2 4919   2.828   3.119   0.599
 1578HOH      O 4920   0.248   0.574   3.689
 1578HOH     H1 4921   0.257   0.604   3.780
 1578HOH     H2 4922   0.177   0.510   3.692
 1579HOH      O 4923   2.960   2.316   1.157
 1579HOH     H1 4924   2.940   2.223   1.169
 1579HOH     H2 4925   2.965   2.327   1.062
 1580HOH      O 4926   2.004   0.857   3.596
 1580HOH     H1 4927   1.915   0.841   3.625
 1580HOH     H2 4928   2.005   0.827   3.505
 1581HOH      O 4929   3.858   2.185   0.304
 1581HOH     H1 4930   3.875   2.119   0.237
 1581HOH     H2 4931   3.794   2.144   0.362
 1582HOH      O 4932   2.999   2.997   1.732
 1582HOH     H1 4933   2.970   2.963   1.647
 1582HOH     H2 4934   3.038   3.082   1.712
 1583HOH      O 4935   3.226   3.735   0.934
 1583HOH     H1 4936   3.252   3.737   0.842
 1583HOH     H2 4937   3.237   3.825   0.964
 1584HOH      O 4938   1.972   1.490   1.734
 1584HOH     H1 4939   1.919   1.455   1.805
 1584HOH     H2 4940   2.022   1.561   1.774
 1585HOH      O 4941   1.984   2.674   2.308
 1585HOH     H1 4942   2.077   2.679   2.331
 1585HOH     H2 4943   1.982   2.622   2.228
 1586HOH      O 4944   3.877   2.633   2.336
 1586HOH     H1 4945   3.963   2.627   2.378
 1586HOH     H2 4946   3.834   2.550   2.357
 1587HOH      O 4947   3.097   3.427   0.314
 1587HOH     H1 4948   3.070   3.513   0.346
 1587HOH     H2 4949   3.021   3.371   0.330
 1588HOH      O 4950   2.467   0.194   2.298
 1588HOH     H1 4951   2.545   0.249   2.301
 1588HOH     H2 4952   2.494   0.115   2.251
 1589HOH      O 4953   2.642   1.305   1.616
 1589HOH     H1 4954   2.576   1.272   1.554
 1589HOH     H2 4955   2.629   1.400   1.614
 1590HOH      O 4956   2.865   3.116   2.325
 1590HOH     H1 4957   2.864   3.194   2.382
 1590HOH     H2 4958   2.886   3.151   2.238
 1591HOH      O 4959   2.597   2.065   1.160
 1591HOH     H1 4960   2.586   2.156   1.187
 1591HOH     H2 4961   2.508   2.029   1.162
 1592HOH      O 4962   1.746   1.403   2.517
 1592HOH     H1 4963   1.734   1.309   2.524
 1592HOH     H2 4964   1.833   1.419   2.554
 1593HOH      O 4965   2.620   2.528   0.511
 1593HOH     H1 4966   2.613   2.467   0.585
 1593HOH     H2 4967   2.713   2.548   0.505
 1594HOH      O 4968   1.506   0.960   3.765
 1594HOH     H1 4969   1.448   1.034   3.748
 1594HOH     H2 4970   1.449   0.892   3.801
 1595HOH      O 4971   3.179   0.112   3.194
 1595HOH     H1 4972   3.220   0.047   3.250
 1595HOH     H2 4973   3.222   0.194   3.218
 1596HOH      O 4974   3.890   0.397   0.519
 1596HOH     H1 4975   3.828   0.323   0.520
 1596HOH     H2 4976   3.968   0.363   0.562
 1597HOH      O 4977   2.831   3.443   0.588
 1597HOH     H1 4978   2.832   3.530   0.548
 1597HOH     H2 4979   2.828   3.382   0.514
 1598HOH      O 4980   3.059   3.885   1.273
 1598HOH     H1 4981   3.104   3.802   1.288
 1598HOH     H2 4982   3.086   3.911   1.185
 1599HOH      O 4983   3.329   1.514   3.359
 1599HOH     H1 4984   3.412   1.507   3.311
 1599HOH     H2 4985   3.289   1.428   3.351
 1600HOH      O 4986   2.393   3.309   2.000
 1600HOH     H1 4987   2.354   3.384   2.045
 1600HOH     H2 4988   2.381   3.236   2.060
 1601HOH      O 4989   3.302   3.447   1.458
 1601HOH     H1 4990   3.286   3.477   1.368
 1601HOH     H2 4991   3.394   3.466   1.473
 1602HOH      O 4992   1.674   0.982   0.108
 1602HOH     H1 4993   1.623   1.038   0.049
 1602HOH     H2 4994   1.733   0.934   0.051
 1603HOH      O 4995   3.348   1.925   2.979
 1603HOH     H1 4996   3.264   1.922   2.933
 1603HOH     H2 4997   3.401   1.857   2.938
 1604HOH      O 4998   1.681   0.800   3.281
 1604HOH     H1 4999   1.712   0.792   3.191
 1604HOH     H2 5000   1.643   0.715   3.301
 1605HOH      O 5001   0.309   1.727   1.169
 1605HOH     H1 5002   0.252   1.672   1.115
 1605HOH     H2 5003   0.270   1.814   1.164
 1606HOH      O 5004   2.228   1.505   0.942
 1606HOH     H1 5005   2.191   1.423   0.911
 1606HOH     H2 5006   2.196   1.571   0.880
 1607HOH      O 5007   2.985   3.706   1.826
 1607HOH     H1 5008   3.043   3.776   1.856
 1607HOH     H2 5009   2.925   3.692   1.900
 1608HOH      O 5010   2.767   2.361   3.600
 1608HOH     H1 5011   2.693   2.308   3.630
 1608HOH     H2 5012   2.796   2.408   3.678
 1609HOH      O 5013   3.578   3.673   2.970
 1609HOH     H1 5014   3.558   3.590   3.014
 1609HOH     H2 5015   3.662   3.657   2.927
 1610HOH      O 5016   2.543   0.020   2.813
 1610HOH     H1 5017   2.525   0.113   2.803
 1610HOH     H2 5018   2.619   0.015   2.870
 1611HOH      O 5019   0.446   2.031   2.955
 1611HOH     H1 5020   0.513   2.095   2.978
 1611HOH     H2 5021   0.468   1.953   3.006
 1612HOH      O 5022   3.631   2.658   0.833
 1612HOH     H1 5023   3.699   2.680   0.769
 1612HOH     H2 5024   3.679   2.640   0.913
 1613HOH      O 5025   1.763   3.509   1.072
 1613HOH     H1 5026   1.834   3.532   1.132
 1613HOH     H2 5027   1.684   3.535   1.118
 1614HOH      O 5028   1.219   0.015   3.263
 1614HOH     H1 5029   1.208   0.085   3.198
 1614HOH     H2 5030   1.137  -0.033   3.258
 1615HOH      O 5031   3.054   0.293   2.232
 1615HOH     H1 5032   3.022   0.205   2.213
 1615HOH     H2 5033   2.986   0.352   2.198
 1616HOH      O 5034   0.622   0.145   2.500
 1616HOH     H1 5035   0.707   0.173   2.535
 1616HOH     H2 5036   0.592   0.078   2.562
 1617HOH      O 5037   3.619   0.324   1.651
 1617HOH     H1 5038   3.714   0.315   1.662
 1617HOH     H2 5039   3.603   0.297   1.561
 1618HOH      O 5040   1.664   3.838   0.858
 1618HOH     H1 5041   1.681   3.864   0.949
 1618HOH     H2 5042   1.569   3.826   0.855
 1619HOH      O 5043   1.159   3.844   1.685
 1619HOH     H1 5044   1.227   3.863   1.621
 1619HOH     H2 5045   1.206   3.823   1.766
 1620HOH      O 5046   3.530   3.590   0.990
 1620HOH     H1 5047   3.547   3.624   0.902
 1620HOH     H2 5048   3.437   3.567   0.989
 1621HOH      O 5049   1.120   1.370   3.134
 1621HOH     H1 5050   1.083   1.285   3.109
 1621HOH     H2 5051   1.107   1.374   3.229
 1622HOH      O 5052   0.640   0.920   2.822
 1622HOH     H1 5053   0.599   0.871   2.751
 1622HOH     H2 5054   0.606   1.009   2.812
 1623HOH      O 5055   0.538   0.576   0.277
 1623HOH     H1 5056   0.598   0.578   0.352
 1623HOH     H2 5057   0.490   0.659   0.283
 1624HOH      O 5058   2.990   0.304   0.815
 1624HOH     H1 5059   2.972   0.397   0.831
 1624HOH     H2 5060   3.072   0.287   0.861
 1625HOH      O 5061   1.774   1.990   2.781
 1625HOH     H1 5062   1.779   1.930   2.855
 1625HOH     H2 5063   1.688   1.975   2.744
 1626HOH      O 5064   3.760   2.792   1.364
 1626HOH     H1 5065   3.787   2.719   1.420
 1626HOH     H2 5066   3.778   2.870   1.416
 1627HOH      O 5067   0.892   0.102   1.664
 1627HOH     H1 5068   0.906   0.196   1.651
 1627HOH     H2 5069   0.831   0.097   1.738
 1628HOH      O 5070   3.858   3.936   3.484
 1628HOH     H1 5071   3.854   3.985   3.566
 1628HOH     H2 5072   3.935   3.880   3.493
 1629HOH      O 5073   0.044   2.436   3.317
 1629HOH     H1 5074   0.027   2.493   3.242
 1629HOH     H2 5075  -0.020   2.462   3.383
 1630HOH      O 5076   1.231   1.331   1.922
 1630HOH     H1 5077   1.251   1.410   1.872
 1630HOH     H2 5078   1.298   1.268   1.895
 1631HOH      O 5079   1.388   1.240   3.229
 1631HOH     H1 5080   1.323   1.178   3.262
 1631HOH     H2 5081   1.370   1.245   3.135
 1632HOH      O 5082   0.561   0.810   0.694
 1632HOH     H1 5083   0.502   0.865   0.746
 1632HOH     H2 5084   0.522   0.810   0.606
 1633HOH      O 5085   1.037   2.275   2.119
 1633HOH     H1 5086   0.988   2.193   2.122
 1633HOH     H2 5087   1.123   2.250   2.083
 1634HOH      O 5088   0.919   0.513   2.434
 1634HOH     H1 5089   0.929   0.425   2.397
 1634HOH     H2 5090   0.999   0.559   2.407
 1635HOH      O 5091   2.898   1.675   1.955
 1635HOH     H1 5092   2.873   1.758   1.996
 1635HOH     H2 5093   2.849   1.608   2.004
 1636HOH      O 5094   2.958   0.555   2.927
 1636HOH     H1 5095   2.910   0.608   2.991
 1636HOH     H2 5096   3.047   0.550   2.962
 1637HOH      O 5097   3.558   3.082   1.685
 1637HOH     H1 5098   3.467   3.111   1.693
 1637HOH     H2 5099   3.555   3.011   1.621
 1638HOH      O 5100   3.215   2.917   3.931
 1638HOH     H1 5101   3.307   2.898   3.949
 1638HOH     H2 5102   3.177   2.934   4.017
 1639HOH      O 5103   1.104   2.398   2.357
 1639HOH     H1 5104   1.081   2.338   2.286
 1639HOH     H2 5105   1.104   2.484   2.316
 1640HOH      O 5106   3.260   1.283   1.861
 1640HOH     H1 5107   3.261   1.188   1.874
 1640HOH     H2 5108   3.201   1.296   1.786
 1641HOH      O 5109   2.745   0.235   3.500
 1641HOH     H1 5110   2.747   0.166   3.435
 1641HOH     H2 5111   2.788   0.197   3.577
 1642HOH      O 5112   0.974   2.884   2.012
 1642HOH     H1 5113   0.887   2.846   2.027
 1642HOH     H2 5114   1.028   2.810   1.986
 1643HOH      O 5115   1.810   2.501   1.770
 1643HOH     H1 5116   1.807   2.539   1.682
 1643HOH     H2 5117   1.718   2.483   1.792
 1644HOH      O 5118   1.091   2.859   2.397
 1644HOH     H1 5119   1.001   2.841   2.368
 1644HOH     H2 5120   1.082   2.887   2.488
 1645HOH      O 5121   1.279   3.894   3.783
 1645HOH     H1 5122   1.229   3.958   3.834
 1645HOH     H2 5123   1.265   3.920   3.692
 1646HOH      O 5124   3.261   1.932   1.460
 1646HOH     H1 5125   3.179   1.900   1.423
 1646HOH     H2 5126   3.327   1.913   1.394
 1647HOH      O 5127   3.748   2.641   0.508
 1647HOH     H1 5128   3.774   2.718   0.558
 1647HOH     H2 5129   3.756   2.668   0.416
 1648HOH      O 5130   0.606   3.220   2.282
 1648HOH     H1 5131   0.602   3.142   2.337
 1648HOH     H2 5132   0.551   3.200   2.206
 1649HOH      O 5133   1.754   0.185   3.758
 1649HOH     H1 5134   1.768   0.092   3.744
 1649HOH     H2 5135   1.714   0.191   3.845
 1650HOH      O 5136   0.906   1.426   2.714
 1650HOH     H1 5137   0.937   1.452   2.628
 1650HOH     H2 5138   0.965   1.470   2.775
 1651HOH      O 5139   0.389   2.903   1.197
 1651HOH     H1 5140   0.406   2.927   1.106
 1651HOH     H2 5141   0.459   2.946   1.246
 1652HOH      O 5142   0.428   3.155   3.813
 1652HOH     H1 5143   0.407   3.091   3.745
 1652HOH     H2 5144   0.361   3.142   3.880
 1653HOH      O 5145   3.939   0.928   2.836
 1653HOH     H1 5146   3.906   0.845   2.872
 1653HOH     H2 5147   3.896   0.996   2.887
 1654HOH      O 5148   2.056   1.791   2.613
 1654HOH     H1 5149   2.097   1.755   2.534
 1654HOH     H2 5150   1.962   1.776   2.601
 1655HOH      O 5151   1.040   1.586   3.969
 1655HOH     H1 5152   1.097   1.616   4.039
 1655HOH     H2 5153   0.957   1.631   3.984
 1656HOH      O 5154   1.745   0.842   2.965
 1656HOH     H1 5155   1.682   0.914   2.958
 1656HOH     H2 5156   1.830   0.885   2.963
 1657HOH      O 5157   0.932   1.169   2.551
 1657HOH     H1 5158   1.003   1.174   2.615
 1657HOH     H2 5159   0.865   1.228   2.584
 1658HOH      O 5160   1.192   0.389   2.167
 1658HOH     H1 5161   1.111   0.354   2.129
 1658HOH     H2 5162   1.261   0.334   2.130
 1659HOH      O 5163   2.577   2.423   1.993
 1659HOH     H1 5164   2.505   2.361   1.978
 1659HOH     H2 5165   2.638   2.375   2.050
 1660HOH      O 5166   0.782   2.903   2.638
 1660HOH     H1 5167   0.793   2.816   2.599
 1660HOH     H2 5168   0.695   2.900   2.677
 1661HOH      O 5169   3.816   2.833   0.658
 1661HOH     H1 5170   3.892   2.799   0.705
 1661HOH     H2 5171   3.775   2.894   0.719
 1662HOH      O 5172   2.994   2.118   2.780
 1662HOH     H1 5173   2.926   2.127   2.714
 1662HOH     H2 5174   3.044   2.200   2.775
 1663HOH      O 5175   0.227   1.817   1.951
 1663HOH     H1 5176   0.184   1.867   2.020
 1663HOH     H2 5177   0.162   1.811   1.881
 1664HOH      O 5178   2.736   1.442   0.762
 1664HOH     H1 5179   2.652   1.413   0.798
 1664HOH     H2 5180   2.780   1.484   0.836
 1665HOH      O 5181   0.922   1.835   3.461
 1665HOH     H1 5182   0.958   1.839   3.550
 1665HOH     H2 5183   0.984   1.885   3.408
 1666HOH      O 5184   1.344   0.585   0.619
 1666HOH     H1 5185   1.370   0.547   0.535
 1666HOH     H2 5186   1.286   0.657   0.596
 1667HOH      O 5187   3.698   3.044   1.906
 1667HOH     H1 5188   3.642   3.092   1.968
 1667HOH     H2 5189   3.657   3.060   1.821
 1668HOH      O 5190   2.913   1.543   1.662
 1668HOH     H1 5191   2.894   1.594   1.740
 1668HOH     H2 5192   2.836   1.555   1.605
 1669HOH      O 5193   3.042   1.304   3.329
 1669HOH     H1 5194   3.130   1.284   3.298
 1669HOH     H2 5195   3.051   1.314   3.423
 1670HOH      O 5196   2.621   1.220   2.052
 1670HOH     H1 5197   2.561   1.243   2.123
 1670HOH     H2 5198   2.564   1.191   1.981
 1671HOH      O 5199   3.982   0.893   3.810
 1671HOH     H1 5200   3.983   0.940   3.727
 1671HOH     H2 5201   4.049   0.935   3.863
 1672HOH      O 5202   2.036   4.006   2.753
 1672HOH     H1 5203   2.116   3.953   2.764
 1672HOH     H2 5204   2.032   4.024   2.659
 1673HOH      O 5205   3.723   1.818   1.594
 1673HOH     H1 5206   3.679   1.864   1.522
 1673HOH     H2 5207   3.652   1.794   1.653
 1674HOH      O 5208   1.246   3.910   0.167
 1674HOH     H1 5209   1.200   3.975   0.221
 1674HOH     H2 5210   1.315   3.877   0.225
 1675HOH      O 5211   1.931   0.251   0.918
 1675HOH     H1 5212   1.915   0.314   0.848
 1675HOH     H2 5213   1.858   0.264   0.979
 1676HOH      O 5214   3.116   2.962   3.555
 1676HOH     H1 5215   3.149   3.034   3.609
 1676HOH     H2 5216   3.131   2.883   3.607
 1677HOH      O 5217   2.092   1.050   1.772
 1677HOH     H1 5218   2.162   1.099   1.815
 1677HOH     H2 5219   2.038   1.118   1.730
 1678HOH      O 5220   1.766   3.714   3.297
 1678HOH     H1 5221   1.742   3.622   3.288
 1678HOH     H2 5222   1.830   3.729   3.227
 1679HOH      O 5223   1.527   3.085   3.099
 1679HOH     H1 5224   1.574   3.086   3.182
 1679HOH     H2 5225   1.591   3.051   3.036
 1680HOH      O 5226   1.577   0.490   1.367
 1680HOH     H1 5227   1.539   0.405   1.343
 1680HOH     H2 5228   1.537   0.552   1.306
 1681HOH      O 5229   2.664   3.072   3.945
 1681HOH     H1 5230   2.726   3.071   3.871
 1681HOH     H2 5231   2.659   2.981   3.974
 1682HOH      O 5232   2.188   1.519   3.804
 1682HOH     H1 5233   2.161   1.578   3.875
 1682HOH     H2 5234   2.167   1.431   3.836
 1683HOH      O 5235   3.971   0.378   1.927
 1683HOH     H1 5236   3.993   0.290   1.958
 1683HOH     H2 5237   3.911   0.364   1.855
 1684HOH      O 5238   3.531   0.819   3.157
 1684HOH     H1 5239   3.439   0.830   3.183
 1684HOH     H2 5240   3.576   0.798   3.239
 1685HOH      O 5241   3.732   1.633   2.383
 1685HOH     H1 5242   3.662   1.643   2.319
 1685HOH     H2 5243   3.689   1.601   2.462
 1686HOH      O 5244   0.592   2.303   3.833
 1686HOH     H1 5245   0.513   2.301   3.778
 1686HOH     H2 5246   0.621   2.394   3.830
 1687HOH      O 5247   2.707   0.687   2.658
 1687HOH     H1 5248   2.714   0.591   2.652
 1687HOH     H2 5249   2.724   0.706   2.750
 1688HOH      O 5250   3.531   1.336   1.189
 1688HOH     H1 5251   3.512   1.396   1.261
 1688HOH     H2 5252   3.619   1.304   1.207
 1689HOH      O 5253   2.410   2.210   1.790
 1689HOH     H1 5254   2.452   2.125   1.793
 1689HOH     H2 5255   2.319   2.191   1.766
 1690HOH      O 5256   0.430   3.106   2.515
 1690HOH     H1 5257   0.492   3.129   2.583
 1690HOH     H2 5258   0.346   3.138   2.547
 1691HOH      O 5259   2.730   3.213   1.561
 1691HOH     H1 5260   2.696   3.137   1.514
 1691HOH     H2 5261   2.794   3.253   1.501
 1692HOH      O 5262   1.764   1.020   3.728
 1692HOH     H1 5263   1.762   1.111   3.699
 1692HOH     H2 5264   1.674   1.001   3.754
 1693HOH      O 5265   3.112   1.677   3.261
 1693HOH     H1 5266   3.191   1.647   3.307
 1693HOH     H2 5267   3.128   1.653   3.170
 1694HOH      O 5268   1.851   1.231   0.055
 1694HOH     H1 5269   1.811   1.195   0.134
 1694HOH     H2 5270   1.905   1.160   0.021
 1695HOH      O 5271   1.355   2.726   3.194
 1695HOH     H1 5272   1.332   2.798   3.252
 1695HOH     H2 5273   1.410   2.669   3.248
 1696HOH      O 5274   1.411   2.720   4.005
 1696HOH     H1 5275   1.379   2.793   4.058
 1696HOH     H2 5276   1.504   2.712   4.028
 1697HOH      O 5277   1.500   2.994   0.961
 1697HOH     H1 5278   1.454   2.938   1.024
 1697HOH     H2 5279   1.592   2.974   0.974
 1698HOH      O 5280   0.510   0.701   1.383
 1698HOH     H1 5281   0.444   0.767   1.403
 1698HOH     H2 5282   0.480   0.660   1.302
 1699HOH      O 5283   1.622   1.711   2.265
 1699HOH     H1 5284   1.696   1.734   2.321
 1699HOH     H2 5285   1.639   1.620   2.240
 1700HOH      O 5286   2.768   3.687   1.014
 1700HOH     H1 5287   2.801   3.732   0.937
 1700HOH     H2 5288   2.677   3.666   0.992
 1701HOH      O 5289   1.599   0.013   1.536
 1701HOH     H1 5290   1.639   0.097   1.513
 1701HOH     H2 5291   1.592  -0.033   1.453
 1702HOH      O 5292   2.861   2.666   2.773
 1702HOH     H1 5293   2.923   2.638   2.840
 1702HOH     H2 5294   2.847   2.759   2.791
 1703HOH      O 5295   0.872   2.393   3.440
 1703HOH     H1 5296   0.809   2.435   3.381
 1703HOH     H2 5297   0.823   2.320   3.480
 1704HOH      O 5298   0.181   2.039   3.057
 1704HOH     H1 5299   0.153   1.963   3.005
 1704HOH     H2 5300   0.275   2.045   3.041
 1705HOH      O 5301   2.251   3.053   0.171
 1705HOH     H1 5302   2.183   3.083   0.111
 1705HOH     H2 5303   2.273   2.965   0.140
 1706HOH      O 5304   0.382   0.902   1.490
 1706HOH     H1 5305   0.373   0.953   1.571
 1706HOH     H2 5306   0.334   0.953   1.425
 1707HOH      O 5307   0.008   3.971   3.058
 1707HOH     H1 5308  -0.049   3.995   3.131
 1707HOH     H2 5309   0.020   4.053   3.010
 1708HOH      O 5310   3.423   1.460   0.317
 1708HOH     H1 5311   3.518   1.464   0.310
 1708HOH     H2 5312   3.405   1.470   0.410
 1709HOH      O 5313   2.212   3.365   3.144
 1709HOH     H1 5314   2.277   3.325   3.202
 1709HOH     H2 5315   2.169   3.290   3.102
 1710HOH      O 5316   0.723   2.803   3.669
 1710HOH     H1 5317   0.713   2.796   3.574
 1710HOH     H2 5318   0.717   2.897   3.686
 1711HOH      O 5319   0.534   0.848   3.077
 1711HOH     H1 5320   0.551   0.837   2.983
 1711HOH     H2 5321   0.621   0.854   3.116
 1712HOH      O 5322   0.468   2.512   0.507
 1712HOH     H1 5323   0.400   2.487   0.444
 1712HOH     H2 5324   0.476   2.435   0.565
 1713HOH      O 5325   0.985   0.248   2.350
 1713HOH     H1 5326   0.918   0.235   2.417
 1713HOH     H2 5327   1.061   0.199   2.382
 1714HOH      O 5328   3.626   1.874   3.900
 1714HOH     H1 5329   3.700   1.835   3.854
 1714HOH     H2 5330   3.566   1.901   3.831
 1715HOH      O 5331   1.021   3.721   0.645
 1715HOH     H1 5332   1.014   3.649   0.582
 1715HOH     H2 5333   1.033   3.677   0.729
 1716HOH      O 5334   2.121   3.365   3.874
 1716HOH     H1 5335   2.176   3.387   3.799
 1716HOH     H2 5336   2.036   3.403   3.854
 1717HOH      O 5337   1.917   3.140   0.783
 1717HOH     H1 5338   1.853   3.193   0.830
 1717HOH     H2 5339   2.001   3.166   0.818
 1718HOH      O 5340   1.373   3.137   0.406
 1718HOH     H1 5341   1.292   3.096   0.435
 1718HOH     H2 5342   1.442   3.095   0.457
 1719HOH      O 5343   0.166   2.300   2.229
 1719HOH     H1 5344   0.180   2.357   2.304
 1719HOH     H2 5345   0.154   2.359   2.155
 1720HOH      O 5346   2.908   3.834   3.945
 1720HOH     H1 5347   2.831   3.798   3.987
 1720HOH     H2 5348   2.937   3.767   3.883
 1721HOH      O 5349   0.746   3.574   1.929
 1721HOH     H1 5350   0.726   3.510   1.861
 1721HOH     H2 5351   0.694   3.546   2.005
 1722HOH      O 5352   3.463   1.153   3.636
 1722HOH     H1 5353   3.472   1.156   3.731
 1722HOH     H2 5354   3.368   1.153   3.621
 1723HOH      O 5355   2.960   1.432   2.330
 1723HOH     H1 5356   2.904   1.496   2.374
 1723HOH     H2 5357   2.996   1.379   2.401
 1724HOH      O 5358   1.140   0.237   2.671
 1724HOH     H1 5359   1.163   0.172   2.605
 1724HOH     H2 5360   1.205   0.306   2.660
 1725HOH      O 5361   0.669   0.691   0.061
 1725HOH     H1 5362   0.637   0.639   0.134
 1725HOH     H2 5363   0.655   0.782   0.089
 1726HOH      O 5364   2.252   2.255   0.393
 1726HOH     H1 5365   2.343   2.285   0.388
 1726HOH     H2 5366   2.257   2.167   0.428
 1727HOH      O 5367   1.317   2.774   0.780
 1727HOH     H1 5368   1.349   2.694   0.739
 1727HOH     H2 5369   1.333   2.842   0.715
 1728HOH      O 5370   0.751   0.708   3.420
 1728HOH     H1 5371   0.716   0.796   3.430
 1728HOH     H2 5372   0.776   0.682   3.509
 1729HOH      O 5373   1.887   3.245   3.224
 1729HOH     H1 5374   1.836   3.172   3.258
 1729HOH     H2 5375   1.946   3.269   3.295
 1730HOH      O 5376   2.429   2.160   0.897
 1730HOH     H1 5377   2.434   2.082   0.841
 1730HOH     H2 5378   2.454   2.128   0.984
 1731HOH      O 5379   1.752   1.414   2.220
 1731HOH     H1 5380   1.693   1.346   2.186
 1731HOH     H2 5381   1.752   1.401   2.315
 1732HOH      O 5382   0.826   0.004   3.309
 1732HOH     H1 5383   0.850   0.029   3.220
 1732HOH     H2 5384   0.734   0.028   3.317
 1733HOH      O 5385   0.007   0.180   0.353
 1733HOH     H1 5386  -0.047   0.201   0.277
 1733HOH     H2 5387   0.026   0.266   0.393
 1734HOH      O 5388   2.170   2.414   3.207
 1734HOH     H1 5389   2.222   2.364   3.269
 1734HOH     H2 5390   2.194   2.378   3.121
 1735HOH      O 5391   1.132   3.242   3.433
 1735HOH     H1 5392   1.108   3.334   3.439
 1735HOH     H2 5393   1.126   3.209   3.522
 1736HOH      O 5394   2.593   2.983   1.971
 1736HOH     H1 5395   2.619   2.924   2.042
 1736HOH     H2 5396   2.595   3.070   2.010
 1737HOH      O 5397   0.390   0.774   2.040
 1737HOH     H1 5398   0.354   0.771   1.952
 1737HOH     H2 5399   0.482   0.749   2.030
 1738HOH      O 5400   2.768   0.052   3.304
 1738HOH     H1 5401   2.686   0.008   3.282
 1738HOH     H2 5402   2.822  -0.016   3.344
 1739HOH      O 5403   2.973   1.338   0.009
 1739HOH     H1 5404   3.040   1.405   0.024
 1739HOH     H2 5405   2.908   1.355   0.077
 1740HOH      O 5406   1.588   0.300   3.553
 1740HOH     H1 5407   1.563   0.386   3.587
 1740HOH     H2 5408   1.624   0.254   3.628
 1741HOH      O 5409   3.164   2.903   0.183
 1741HOH     H1 5410   3.174   2.823   0.234
 1741HOH     H2 5411   3.214   2.969   0.232
 1742HOH      O 5412   3.115   3.199   1.557
 1742HOH     H1 5413   3.027   3.236   1.562
 1742HOH     H2 5414   3.161   3.255   1.494
 1743HOH      O 5415   3.547   1.957   1.893
 1743HOH     H1 5416   3.609   2.030   1.905
 1743HOH     H2 5417   3.477   1.994   1.840
 1744HOH      O 5418   1.782   2.886   0.305
 1744HOH     H1 5419   1.737   2.896   0.389
 1744HOH     H2 5420   1.875   2.883   0.328
 1745HOH      O 5421   1.088   3.017   0.420
 1745HOH     H1 5422   1.027   3.023   0.347
 1745HOH     H2 5423   1.039   2.970   0.488
 1746HOH      O 5424   1.969   1.825   0.383
 1746HOH     H1 5425   1.888   1.775   0.394
 1746HOH     H2 5426   1.954   1.878   0.305
 1747HOH      O 5427   1.786   0.213   1.587
 1747HOH     H1 5428   1.800   0.298   1.545
 1747HOH     H2 5429   1.870   0.168   1.580
 1748HOH      O 5430   3.282   0.310   0.920
 1748HOH     H1 5431   3.352   0.248   0.898
 1748HOH     H2 5432   3.304   0.340   1.009
 1749HOH      O 5433   0.510   2.929   0.158
 1749HOH     H1 5434   0.559   2.981   0.095
 1749HOH     H2 5435   0.576   2.894   0.217
 1750HOH      O 5436   1.970   1.168   3.269
 1750HOH     H1 5437   1.975   1.170   3.365
 1750HOH     H2 5438   2.049   1.214   3.240
 1751HOH      O 5439   1.592   2.660   2.533
 1751HOH     H1 5440   1.580   2.755   2.540
 1751HOH     H2 5441   1.597   2.630   2.624
 1752HOH      O 5442   0.117   0.234   2.282
 1752HOH     H1 5443   0.052   0.207   2.217
 1752HOH     H2 5444   0.065   0.270   2.354
 1753HOH      O 5445   2.238   1.816   0.406
 1753HOH     H1 5446   2.145   1.802   0.387
 1753HOH     H2 5447   2.284   1.759   0.344
 1754HOH      O 5448   3.436   2.964   2.333
 1754HOH     H1 5449   3.521   2.967   2.290
 1754HOH     H2 5450   3.373   2.982   2.263
 1755HOH      O 5451   1.758   0.524   3.453
 1755HOH     H1 5452   1.795   0.450   3.500
 1755HOH     H2 5453   1.674   0.540   3.495
 1756HOH      O 5454   3.501   2.912   2.586
 1756HOH     H1 5455   3.595   2.923   2.582
 1756HOH     H2 5456   3.470   2.933   2.498
 1757HOH      O 5457   1.867   3.172   3.545
 1757HOH     H1 5458   1.778   3.188   3.578
 1757HOH     H2 5459   1.875   3.077   3.542
 1758HOH      O 5460   0.474   1.911   1.782
 1758HOH     H1 5461   0.436   1.856   1.713
 1758HOH     H2 5462   0.427   1.886   1.861
 1759HOH      O 5463   0.041   0.413   3.723
 1759HOH     H1 5464  -0.038   0.436   3.771
 1759HOH     H2 5465   0.042   0.317   3.722
 1760HOH      O 5466   1.653   0.259   1.844
 1760HOH     H1 5467   1.619   0.346   1.821
 1760HOH     H2 5468   1.706   0.233   1.768
 1761HOH      O 5469   2.959   2.495   2.549
 1761HOH     H1 5470   2.900   2.557   2.592
 1761HOH     H2 5471   3.036   2.547   2.525
 1762HOH      O 5472   2.127   0.099   0.144
 1762HOH     H1 5473   2.137   0.189   0.111
 1762HOH     H2 5474   2.161   0.044   0.073
 1763HOH      O 5475   3.151   0.667   3.143
 1763HOH     H1 5476   3.109   0.741   3.099
 1763HOH     H2 5477   3.235   0.701   3.172
 1764HOH      O 5478   2.512   1.011   3.215
 1764HOH     H1 5479   2.604   1.010   3.244
 1764HOH     H2 5480   2.513   0.963   3.132
 1765HOH      O 5481   0.114   2.808   0.132
 1765HOH     H1 5482   0.201   2.846   0.142
 1765HOH     H2 5483   0.120   2.722   0.172
 1766HOH      O 5484   3.938   1.295   1.397
 1766HOH     H1 5485   3.968   1.204   1.400
 1766HOH     H2 5486   3.986   1.338   1.468
 1767HOH      O 5487   2.611   3.526   3.899
 1767HOH     H1 5488   2.545   3.539   3.967
 1767HOH     H2 5489   2.690   3.501   3.948
 1768HOH      O 5490   3.616   0.585   1.404
 1768HOH     H1 5491   3.572   0.595   1.320
 1768HOH     H2 5492   3.622   0.491   1.417
 1769HOH      O 5493   3.874   1.273   2.463
 1769HOH     H1 5494   3.797   1.286   2.518
 1769HOH     H2 5495   3.849   1.202   2.403
 1770HOH      O 5496   1.905   0.875   1.047
 1770HOH     H1 5497   1.954   0.805   1.089
 1770HOH     H2 5498   1.970   0.941   1.025
 1771HOH      O 5499   3.616   3.684   0.728
 1771HOH     H1 5500   3.659   3.770   0.729
 1771HOH     H2 5501   3.664   3.635   0.661
 1772HOH      O 5502   3.614   2.657   2.626
 1772HOH     H1 5503   3.659   2.664   2.541
 1772HOH     H2 5504   3.521   2.662   2.604
 1773HOH      O 5505   3.551   1.691   1.928
 1773HOH     H1 5506   3.611   1.690   2.002
 1773HOH     H2 5507   3.539   1.784   1.908
 1774HOH      O 5508   3.929   1.978   1.694
 1774HOH     H1 5509   3.868   1.915   1.654
 1774HOH     H2 5510   3.892   2.064   1.674
 1775HOH      O 5511   2.607   1.555   3.335
 1775HOH     H1 5512   2.587   1.592   3.421
 1775HOH     H2 5513   2.702   1.542   3.336
 1776HOH      O 5514   0.090   1.667   2.196
 1776HOH     H1 5515   0.136   1.584   2.180
 1776HOH     H2 5516   0.157   1.725   2.232
 1777HOH      O 5517   0.134   0.105   3.710
 1777HOH     H1 5518   0.181   0.060   3.640
 1777HOH     H2 5519   0.200   0.118   3.778
 1778HOH      O 5520   2.621   2.824   0.026
 1778HOH     H1 5521   2.621   2.746  -0.030
 1778HOH     H2 5522   2.702   2.817   0.076
 1779HOH      O 5523   3.937   1.780   0.339
 1779HOH     H1 5524   3.947   1.875   0.343
 1779HOH     H2 5525   4.009   1.750   0.284
 1780HOH      O 5526   1.130   1.938   2.241
 1780HOH     H1 5527   1.072   1.941   2.165
 1780HOH     H2 5528   1.085   1.881   2.303
 1781HOH      O 5529   2.108   2.240   3.626
 1781HOH     H1 5530   2.036   2.197   3.580
 1781HOH     H2 5531   2.124   2.184   3.703
 1782HOH      O 5532   1.013   0.565   3.861
 1782HOH     H1 5533   0.947   0.570   3.791
 1782HOH     H2 5534   0.974   0.615   3.933
 1783HOH      O 5535   2.808   2.529   0.812
 1783HOH     H1 5536   2.720   2.492   0.823
 1783HOH     H2 5537   2.798   2.620   0.840
 1784HOH      O 5538   1.681   1.806   1.778
 1784HOH     H1 5539   1.650   1.843   1.860
 1784HOH     H2 5540   1.699   1.882   1.722
 1785HOH      O 5541   1.458   1.870   0.203
 1785HOH     H1 5542   1.517   1.881   0.277
 1785HOH     H2 5543   1.513   1.883   0.126
 1786HOH      O 5544   3.161   2.845   2.692
 1786HOH     H1 5545   3.124   2.877   2.610
 1786HOH     H2 5546   3.197   2.759   2.670
 1787HOH      O 5547   3.653   3.344   0.952
 1787HOH     H1 5548   3.612   3.430   0.959
 1787HOH     H2 5549   3.686   3.341   0.862
 1788HOH      O 5550   0.595   1.388   2.035
 1788HOH     H1 5551   0.642   1.306   2.020
 1788HOH     H2 5552   0.611   1.439   1.956
 1789HOH      O 5553   1.944   0.874   3.344
 1789HOH     H1 5554   1.939   0.964   3.311
 1789HOH     H2 5555   1.853   0.845   3.351
 1790HOH      O 5556   2.223   3.772   3.413
 1790HOH     H1 5557   2.236   3.678   3.414
 1790HOH     H2 5558   2.268   3.804   3.491
 1791HOH      O 5559   2.171   2.463   1.745
 1791HOH     H1 5560   2.185   2.417   1.828
 1791HOH     H2 5561   2.155   2.393   1.682
 1792HOH      O 5562   3.126   0.283   2.541
 1792HOH     H1 5563   3.200   0.307   2.595
 1792HOH     H2 5564   3.104   0.362   2.492
 1793HOH      O 5565   2.901   1.811   0.615
 1793HOH     H1 5566   2.950   1.836   0.693
 1793HOH     H2 5567   2.959   1.748   0.570
 1794HOH      O 5568   1.156   0.582   2.355
 1794HOH     H1 5569   1.181   0.517   2.290
 1794HOH     H2 5570   1.201   0.661   2.329
 1795HOH      O 5571   2.556   2.283   1.324
 1795HOH     H1 5572   2.463   2.304   1.314
 1795HOH     H2 5573   2.601   2.364   1.301
 1796HOH      O 5574   3.414   3.258   2.934
 1796HOH     H1 5575   3.323   3.271   2.907
 1796HOH     H2 5576   3.439   3.174   2.897
 1797HOH      O 5577   3.073   1.309   1.647
 1797HOH     H1 5578   3.009   1.250   1.686
 1797HOH     H2 5579   3.029   1.394   1.644
 1798HOH      O 5580   0.019   2.489   2.071
 1798HOH     H1 5581  -0.031   2.546   2.013
 1798HOH     H2 5582   0.078   2.549   2.118
 1799HOH      O 5583   0.131   1.601   3.189
 1799HOH     H1 5584   0.050   1.592   3.139
 1799HOH     H2 5585   0.199   1.610   3.122
 1800HOH      O 5586   0.877   2.003   2.985
 1800HOH     H1 5587   0.902   1.999   3.077
 1800HOH     H2 5588   0.782   2.016   2.986
 1801HOH      O 5589   2.841   3.090   3.672
 1801HOH     H1 5590   2.912   3.057   3.617
 1801HOH     H2 5591   2.819   3.175   3.635
 1802HOH      O 5592   3.543   2.921   1.217
 1802HOH     H1 5593   3.467   2.870   1.245
 1802HOH     H2 5594   3.617   2.883   1.264
 1803HOH      O 5595   2.204   2.459   2.853
 1803HOH     H1 5596   2.267   2.415   2.794
 1803HOH     H2 5597   2.118   2.432   2.820
 1804HOH      O 5598   3.873   0.281   1.685
 1804HOH     H1 5599   3.884   0.188   1.707
 1804HOH     H2 5600   3.911   0.289   1.597
 1805HOH      O 5601   3.619   0.900   3.591
 1805HOH     H1 5602   3.699   0.848   3.599
 1805HOH     H2 5603   3.589   0.911   3.681
 1806HOH      O 5604   0.970   0.103   1.137
 1806HOH     H1 5605   0.955   0.084   1.044
 1806HOH     H2 5606   1.037   0.039   1.163
 1807HOH      O 5607   0.754   3.490   2.452
 1807HOH     H1 5608   0.766   3.450   2.538
 1807HOH     H2 5609   0.689   3.559   2.466
 1808HOH      O 5610   1.619   3.628   3.659
 1808HOH     H1 5611   1.549   3.600   3.600
 1808HOH     H2 5612   1.597   3.590   3.743
 1809HOH      O 5613   1.951   3.273   0.352
 1809HOH     H1 5614   1.947   3.288   0.447
 1809HOH     H2 5615   2.025   3.213   0.341
 1810HOH      O 5616   1.734   1.580   1.014
 1810HOH     H1 5617   1.800   1.547   1.075
 1810HOH     H2 5618   1.777   1.577   0.929
 1811HOH      O 5619   2.624   1.739   0.558
 1811HOH     H1 5620   2.718   1.728   0.543
 1811HOH     H2 5621   2.615   1.732   0.653
 1812HOH      O 5622   3.984   3.075   2.548
 1812HOH     H1 5623   3.932   3.012   2.498
 1812HOH     H2 5624   4.070   3.036   2.554
 1813HOH      O 5625   1.689   0.307   4.027
 1813HOH     H1 5626   1.743   0.261   4.090
 1813HOH     H2 5627   1.696   0.399   4.052
 1814HOH      O 5628   3.408   1.237   0.082
 1814HOH     H1 5629   3.431   1.159   0.133
 1814HOH     H2 5630   3.407   1.308   0.146
 1815HOH      O 5631   1.947   0.348   1.269
 1815HOH     H1 5632   1.876   0.387   1.217
 1815HOH     H2 5633   1.916   0.353   1.359
 1816HOH      O 5634   2.317   2.032   0.539
 1816HOH     H1 5635   2.295   1.946   0.503
 1816HOH     H2 5636   2.287   2.028   0.630
 1817HOH      O 5637   2.359   0.986   0.103
 1817HOH     H1 5638   2.440   1.034   0.120
 1817HOH     H2 5639   2.379   0.896   0.128
 1818HOH      O 5640   0.681   3.636   0.270
 1818HOH     H1 5641   0.725   3.717   0.296
 1818HOH     H2 5642   0.702   3.626   0.177
 1819HOH      O 5643   3.248   1.905   3.255
 1819HOH     H1 5644   3.191   1.828   3.253
 1819HOH     H2 5645   3.259   1.928   3.163
 1820HOH      O 5646   2.226   0.759   1.368
 1820HOH     H1 5647   2.307   0.809   1.379
 1820HOH     H2 5648   2.225   0.697   1.441
 1821HOH      O 5649   2.233   2.686   3.242
 1821HOH     H1 5650   2.309   2.714   3.292
 1821HOH     H2 5651   2.233   2.590   3.251
 1822HOH      O 5652   1.817   1.331   0.864
 1822HOH     H1 5653   1.848   1.267   0.801
 1822HOH     H2 5654   1.893   1.351   0.919
 1823HOH      O 5655   0.415   1.673   0.031
 1823HOH     H1 5656   0.420   1.621   0.111
 1823HOH     H2 5657   0.503   1.667  -0.007
 1824HOH      O 5658   3.558   1.484   3.035
 1824HOH     H1 5659   3.580   1.438   3.115
 1824HOH     H2 5660   3.477   1.442   3.005
 1825HOH      O 5661   0.350   0.362   0.403
 1825HOH     H1 5662   0.395   0.399   0.479
 1825HOH     H2 5663   0.285   0.429   0.380
 1826HOH      O 5664   0.167   2.830   1.743
 1826HOH     H1 5665   0.144   2.827   1.650
 1826HOH     H2 5666   0.187   2.739   1.765
 1827HOH      O 5667   0.482   3.587   3.326
 1827HOH     H1 5668   0.455   3.630   3.245
 1827HOH     H2 5669   0.417   3.615   3.391
 1828HOH      O 5670   3.612   3.911   3.856
 1828HOH     H1 5671   3.616   4.000   3.822
 1828HOH     H2 5672   3.662   3.915   3.938
 1829HOH      O 5673   2.734   1.629   3.824
 1829HOH     H1 5674   2.641   1.612   3.833
 1829HOH     H2 5675   2.739   1.721   3.797
 1830HOH      O 5676   2.187   3.355   2.403
 1830HOH     H1 5677   2.169   3.437   2.449
 1830HOH     H2 5678   2.215   3.295   2.472
 1831HOH      O 5679   2.748   2.650   3.065
 1831HOH     H1 5680   2.726   2.624   3.155
 1831HOH     H2 5681   2.822   2.594   3.042
 1832HOH      O 5682   2.352   3.477   2.203
 1832HOH     H1 5683   2.283   3.419   2.233
 1832HOH     H2 5684   2.331   3.562   2.241
 1833HOH      O 5685   0.323   3.745   1.765
 1833HOH     H1 5686   0.379   3.818   1.790
 1833HOH     H2 5687   0.250   3.748   1.827
 1834HOH      O 5688   1.575   1.236   2.148
 1834HOH     H1 5689   1.596   1.219   2.056
 1834HOH     H2 5690   1.482   1.212   2.156
 1835HOH      O 5691   1.708   3.317   0.255
 1835HOH     H1 5692   1.766   3.294   0.328
 1835HOH     H2 5693   1.732   3.257   0.185
 1836HOH      O 5694   0.164   0.718   1.093
 1836HOH     H1 5695   0.094   0.669   1.136
 1836HOH     H2 5696   0.142   0.810   1.108
 1837HOH      O 5697   2.752   2.225   3.264
 1837HOH     H1 5698   2.843   2.251   3.277
 1837HOH     H2 5699   2.702   2.307   3.272
 1838HOH      O 5700   2.505   2.357   0.326
 1838HOH     H1 5701   2.505   2.433   0.384
 1838HOH     H2 5702   2.552   2.290   0.375
 1839HOH      O 5703   1.269   0.189   3.708
 1839HOH     H1 5704   1.333   0.208   3.777
 1839HOH     H2 5705   1.188   0.229   3.739
 1840HOH      O 5706   0.304   2.635   3.144
 1840HOH     H1 5707   0.256   2.702   3.193
 1840HOH     H2 5708   0.241   2.564   3.131
 1841HOH      O 5709   3.719   0.273   0.749
 1841HOH     H1 5710   3.795   0.228   0.784
 1841HOH     H2 5711   3.718   0.251   0.656
 1842HOH      O 5712   3.306   1.076   3.923
 1842HOH     H1 5713   3.334   1.126   3.999
 1842HOH     H2 5714   3.307   0.985   3.952
 1843HOH      O 5715   0.399   1.690   0.409
 1843HOH     H1 5716   0.399   1.785   0.405
 1843HOH     H2 5717   0.323   1.668   0.463
 1844HOH      O 5718   1.407   1.154   1.825
 1844HOH     H1 5719   1.390   1.194   1.740
 1844HOH     H2 5720   1.502   1.142   1.828
 1845HOH      O 5721   1.348   0.392   2.631
 1845HOH     H1 5722   1.385   0.399   2.720
 1845HOH     H2 5723   1.412   0.339   2.583
 1846HOH      O 5724   2.763   0.558   3.696
 1846HOH     H1 5725   2.814   0.568   3.777
 1846HOH     H2 5726   2.828   0.532   3.630
 1847HOH      O 5727   0.249   1.243   3.103
 1847HOH     H1 5728   0.339   1.212   3.109
 1847HOH     H2 5729   0.251   1.329   3.145
 1848HOH      O 5730   0.670   1.325   2.587
 1848HOH     H1 5731   0.718   1.379   2.649
 1848HOH     H2 5732   0.601   1.382   2.553
 1849HOH      O 5733   0.762   0.586   1.648
 1849HOH     H1 5734   0.801   0.576   1.734
 1849HOH     H2 5735   0.827   0.550   1.587
 1850HOH      O 5736   0.939   0.700   0.094
 1850HOH     H1 5737   0.853   0.703   0.052
 1850HOH     H2 5738   0.929   0.633   0.162
 1851HOH      O 5739   0.854   1.585   3.411
 1851HOH     H1 5740   0.876   1.676   3.431
 1851HOH     H2 5741   0.761   1.578   3.429
 1852HOH      O 5742   2.236   2.007   1.647
 1852HOH     H1 5743   2.220   1.931   1.591
 1852HOH     H2 5744   2.229   1.974   1.736
 1853HOH      O 5745   1.818   2.904   3.526
 1853HOH     H1 5746   1.885   2.857   3.476
 1853HOH     H2 5747   1.786   2.840   3.589
 1854HOH      O 5748   1.308   3.874   2.777
 1854HOH     H1 5749   1.261   3.793   2.796
 1854HOH     H2 5750   1.337   3.863   2.686
 1855HOH      O 5751   3.711   1.897   2.552
 1855HOH     H1 5752   3.623   1.865   2.572
 1855HOH     H2 5753   3.745   1.835   2.487
 1856HOH      O 5754   2.534   1.693   3.560
 1856HOH     H1 5755   2.527   1.608   3.604
 1856HOH     H2 5756   2.560   1.754   3.629
 1857HOH      O 5757   3.296   0.199   2.193
 1857HOH     H1 5758   3.204   0.224   2.192
 1857HOH     H2 5759   3.340   0.273   2.235
 1858HOH      O 5760   3.645   3.357   1.782
 1858HOH     H1 5761   3.565   3.406   1.799
 1858HOH     H2 5762   3.616   3.278   1.736
 1859HOH      O 5763   2.788   1.442   2.083
 1859HOH     H1 5764   2.742   1.359   2.094
 1859HOH     H2 5765   2.858   1.440   2.147
 1860HOH      O 5766   3.833   0.713   3.615
 1860HOH     H1 5767   3.856   0.735   3.705
 1860HOH     H2 5768   3.913   0.727   3.565
 1861HOH      O 5769   0.761   0.497   1.144
 1861HOH     H1 5770   0.735   0.496   1.051
 1861HOH     H2 5771   0.839   0.552   1.146
 1862HOH      O 5772   1.123   1.930   1.640
 1862HOH     H1 5773   1.108   1.910   1.547
 1862HOH     H2 5774   1.054   1.884   1.686
 1863HOH      O 5775   1.243   0.043   0.900
 1863HOH     H1 5776   1.148   0.046   0.886
 1863HOH     H2 5777   1.267   0.134   0.917
 1864HOH      O 5778   1.835   2.998   1.832
 1864HOH     H1 5779   1.767   2.942   1.868
 1864HOH     H2 5780   1.909   2.987   1.892
 1865HOH      O 5781   2.391   0.028   3.529
 1865HOH     H1 5782   2.301   0.023   3.560
 1865HOH     H2 5783   2.441   0.063   3.602
 1866HOH      O 5784   0.764   3.209   1.444
 1866HOH     H1 5785   0.779   3.255   1.527
 1866HOH     H2 5786   0.825   3.249   1.383
 1867HOH      O 5787   0.311   0.698   3.958
 1867HOH     H1 5788   0.295   0.728   4.047
 1867HOH     H2 5789   0.368   0.764   3.920
 1868HOH      O 5790   2.836   0.705   1.453
 1868HOH     H1 5791   2.855   0.666   1.539
 1868HOH     H2 5792   2.789   0.787   1.474
 1869HOH      O 5793   1.563   3.906   2.347
 1869HOH     H1 5794   1.656   3.900   2.369
 1869HOH     H2 5795   1.558   3.873   2.257
 1870HOH      O 5796   1.304   0.295   1.337
 1870HOH     H1 5797   1.258   0.265   1.416
 1870HOH     H2 5798   1.248   0.364   1.303
 1871HOH      O 5799   2.255   0.188   1.927
 1871HOH     H1 5800   2.220   0.218   2.011
 1871HOH     H2 5801   2.345   0.162   1.946
 1872HOH      O 5802   0.326   0.249   3.362
 1872HOH     H1 5803   0.393   0.253   3.430
 1872HOH     H2 5804   0.256   0.306   3.394
 1873HOH      O 5805   0.337   3.007   1.928
 1873HOH     H1 5806   0.356   2.923   1.970
 1873HOH     H2 5807   0.273   2.985   1.860
 1874HOH      O 5808   2.510   3.445   0.615
 1874HOH     H1 5809   2.589   3.437   0.668
 1874HOH     H2 5810   2.505   3.362   0.567
 1875HOH      O 5811   0.736   0.959   3.547
 1875HOH     H1 5812   0.786   1.029   3.591
 1875HOH     H2 5813   0.649   0.996   3.536
 1876HOH      O 5814   1.498   2.110   3.591
 1876HOH     H1 5815   1.572   2.085   3.647
 1876HOH     H2 5816   1.421   2.096   3.646
 1877HOH      O 5817   3.767   3.273   2.999
 1877HOH     H1 5818   3.741   3.188   2.962
 1877HOH     H2 5819   3.726   3.274   3.086
 1878HOH      O 5820   3.057   3.651   3.768
 1878HOH     H1 5821   3.114   3.593   3.818
 1878HOH     H2 5822   3.079   3.632   3.676
 1879HOH      O 5823   1.923   1.805   2.000
 1879HOH     H1 5824   1.835   1.823   2.033
 1879HOH     H2 5825   1.960   1.892   1.983
 1880HOH      O 5826   2.204   1.163   2.618
 1880HOH     H1 5827   2.289   1.118   2.618
 1880HOH     H2 5828   2.168   1.144   2.531
 1881HOH      O 5829   2.879   3.439   0.007
 1881HOH     H1 5830   2.958   3.479   0.044
 1881HOH     H2 5831   2.906   3.348  -0.011
 1882HOH      O 5832   1.404   0.072   2.888
 1882HOH     H1 5833   1.362  -0.006   2.854
 1882HOH     H2 5834   1.482   0.040   2.933
 1883HOH      O 5835   0.457   1.458   2.791
 1883HOH     H1 5836   0.435   1.366   2.807
 1883HOH     H2 5837   0.465   1.464   2.696
 1884HOH      O 5838   3.381   3.430   0.245
 1884HOH     H1 5839   3.292   3.436   0.277
 1884HOH     H2 5840   3.371   3.402   0.153
 1885HOH      O 5841   3.411   2.445   2.572
 1885HOH     H1 5842   3.502   2.423   2.587
 1885HOH     H2 5843   3.375   2.367   2.529
 1886HOH      O 5844   1.633   0.121   2.077
 1886HOH     H1 5845   1.616   0.029   2.060
 1886HOH     H2 5846   1.650   0.159   1.991
 1887HOH      O 5847   1.739   0.523   0.144
 1887HOH     H1 5848   1.663   0.576   0.167
 1887HOH     H2 5849   1.793   0.522   0.223
 1888HOH      O 5850   2.993   1.851   1.405
 1888HOH     H1 5851   3.032   1.764   1.396
 1888HOH     H2 5852   2.993   1.868   1.500
 1889HOH      O 5853   1.586   1.853   2.035
 1889HOH     H1 5854   1.495   1.881   2.051
 1889HOH     H2 5855   1.609   1.801   2.112
 1890HOH      O 5856   3.236   3.439   1.173
 1890HOH     H1 5857   3.248   3.348   1.199
 1890HOH     H2 5858   3.238   3.438   1.078
 1891HOH      O 5859   2.178   2.284   1.570
 1891HOH     H1 5860   2.212   2.195   1.577
 1891HOH     H2 5861   2.108   2.278   1.504
 1892HOH      O 5862   0.205   2.587   0.690
 1892HOH     H1 5863   0.202   2.492   0.679
 1892HOH     H2 5864   0.292   2.604   0.727
 1893HOH      O 5865   3.376   0.645   2.151
 1893HOH     H1 5866   3.327   0.624   2.071
 1893HOH     H2 5867   3.398   0.738   2.141
 1894HOH      O 5868   3.741   0.182   2.447
 1894HOH     H1 5869   3.782   0.096   2.456
 1894HOH     H2 5870   3.652   0.164   2.417
 1895HOH      O 5871   2.206   1.273   1.625
 1895HOH     H1 5872   2.232   1.195   1.575
 1895HOH     H2 5873   2.150   1.322   1.564
 1896HOH      O 5874   0.938   2.871   1.008
 1896HOH     H1 5875   0.855   2.909   1.036
 1896HOH     H2 5876   0.994   2.947   0.992
 1897HOH      O 5877   2.335   3.597   3.038
 1897HOH     H1 5878   2.290   3.672   3.076
 1897HOH     H2 5879   2.272   3.525   3.043
 1898HOH      O 5880   3.774   1.382   3.827
 1898HOH     H1 5881   3.751   1.364   3.736
 1898HOH     H2 5882   3.734   1.467   3.846
 1899HOH      O 5883   1.389   1.732   3.492
 1899HOH     H1 5884   1.390   1.645   3.533
 1899HOH     H2 5885   1.441   1.787   3.551
 1900HOH      O 5886   2.680   1.283   2.444
 1900HOH     H1 5887   2.695   1.377   2.453
 1900HOH     H2 5888   2.604   1.277   2.386
 1901HOH      O 5889   0.183   2.929   2.543
 1901HOH     H1 5890   0.243   2.904   2.473
 1901HOH     H2 5891   0.209   2.876   2.618
 1902HOH      O 5892   3.387   0.997   1.375
 1902HOH     H1 5893   3.461   1.039   1.418
 1902HOH     H2 5894   3.314   1.057   1.389
 1903HOH      O 5895   3.358   1.735   0.504
 1903HOH     H1 5896   3.327   1.728   0.414
 1903HOH     H2 5897   3.452   1.718   0.498
 1904HOH      O 5898   1.043   0.285   3.840
 1904HOH     H1 5899   0.955   0.261   3.810
 1904HOH     H2 5900   1.037   0.380   3.856
 1905HOH      O 5901   0.995   1.138   3.905
 1905HOH     H1 5902   1.027   1.179   3.824
 1905HOH     H2 5903   1.003   1.208   3.970
 1906HOH      O 5904   1.528   1.320   2.971
 1906HOH     H1 5905   1.555   1.347   3.059
 1906HOH     H2 5906   1.490   1.399   2.932
 1907HOH      O 5907   1.578   3.086   1.718
 1907HOH     H1 5908   1.591   3.037   1.637
 1907HOH     H2 5909   1.663   3.084   1.761
 1908HOH      O 5910   1.166   3.964   1.229
 1908HOH     H1 5911   1.207   3.980   1.314
 1908HOH     H2 5912   1.232   3.992   1.166
 1909HOH      O 5913   1.866   1.734   0.694
 1909HOH     H1 5914   1.787   1.727   0.640
 1909HOH     H2 5915   1.892   1.826   0.687
 1910HOH      O 5916   2.749   2.465   1.273
 1910HOH     H1 5917   2.801   2.545   1.275
 1910HOH     H2 5918   2.789   2.412   1.203
 1911HOH      O 5919   1.026   1.511   2.476
 1911HOH     H1 5920   1.100   1.559   2.514
 1911HOH     H2 5921   1.066   1.452   2.412
 1912HOH      O 5922   0.790   2.934   1.694
 1912HOH     H1 5923   0.747   2.861   1.739
 1912HOH     H2 5924   0.869   2.895   1.656
 1913HOH      O 5925   0.392   1.749   1.587
 1913HOH     H1 5926   0.464   1.696   1.553
 1913HOH     H2 5927   0.313   1.697   1.568
 1914HOH      O 5928   1.427   3.560   3.481
 1914HOH     H1 5929   1.476   3.481   3.459
 1914HOH     H2 5930   1.338   3.530   3.499
 1915HOH      O 5931   3.590   1.743   3.136
 1915HOH     H1 5932   3.593   1.657   3.094
 1915HOH     H2 5933   3.586   1.805   3.063
 1916HOH      O 5934   0.841   2.104   3.297
 1916HOH     H1 5935   0.822   2.132   3.386
 1916HOH     H2 5936   0.773   2.144   3.243
 1917HOH      O 5937   3.140   2.643   3.155
 1917HOH     H1 5938   3.131   2.696   3.076
 1917HOH     H2 5939   3.207   2.688   3.206
 1918HOH      O 5940   3.731   1.913   2.169
 1918HOH     H1 5941   3.639   1.903   2.193
 1918HOH     H2 5942   3.754   1.831   2.127
 1919HOH      O 5943   2.882   2.417   0.395
 1919HOH     H1 5944   2.945   2.477   0.434
 1919HOH     H2 5945   2.894   2.427   0.300
 1920HOH      O 5946   2.663   0.957   2.096
 1920HOH     H1 5947   2.655   1.053   2.095
 1920HOH     H2 5948   2.744   0.940   2.048
 1921HOH      O 5949   0.138   1.691   0.565
 1921HOH     H1 5950   0.107   1.776   0.533
 1921HOH     H2 5951   0.144   1.702   0.660
 1922HOH      O 5952   2.473   1.112   0.542
 1922HOH     H1 5953   2.422   1.193   0.541
 1922HOH     H2 5954   2.534   1.122   0.615
 1923HOH      O 5955   2.793   3.585   2.868
 1923HOH     H1 5956   2.824   3.511   2.817
 1923HOH     H2 5957   2.697   3.581   2.862
 1924HOH      O 5958   0.463   0.751   3.668
 1924HOH     H1 5959   0.389   0.694   3.652
 1924HOH     H2 5960   0.426   0.839   3.672
 1925HOH      O 5961   0.376   3.300   3.268
 1925HOH     H1 5962   0.281   3.310   3.279
 1925HOH     H2 5963   0.407   3.389   3.252
 1926HOH      O 5964   1.730   2.221   0.685
 1926HOH     H1 5965   1.643   2.221   0.644
 1926HOH     H2 5966   1.790   2.232   0.611
 1927HOH      O 5967   1.851   2.163   1.166
 1927HOH     H1 5968   1.759   2.144   1.151
 1927HOH     H2 5969   1.877   2.218   1.092
 1928HOH      O 5970   3.550   1.065   0.443
 1928HOH     H1 5971   3.606   1.139   0.466
 1928HOH     H2 5972   3.545   1.013   0.523
 1929HOH      O 5973   2.550   2.760   1.555
 1929HOH     H1 5974   2.607   2.795   1.623
 1929HOH     H2 5975   2.488   2.704   1.603
 1930HOH      O 5976   1.303   0.468   3.436
 1930HOH     H1 5977   1.285   0.479   3.342
 1930HOH     H2 5978   1.223   0.496   3.479
 1931HOH      O 5979   3.412   0.039   2.734
 1931HOH     H1 5980   3.348  -0.030   2.751
 1931HOH     H2 5981   3.454   0.055   2.818
 1932HOH      O 5982   2.748   0.550   3.151
 1932HOH     H1 5983   2.653   0.550   3.160
 1932HOH     H2 5984   2.774   0.460   3.172
 1933HOH      O 5985   1.090   2.619   2.222
 1933HOH     H1 5986   1.106   2.641   2.131
 1933HOH     H2 5987   1.141   2.683   2.272
 1934HOH      O 5988   1.022   0.104   2.872
 1934HOH     H1 5989   1.061   0.167   2.812
 1934HOH     H2 5990   1.042   0.018   2.833
 1935HOH      O 5991   1.153   1.223   3.666
 1935HOH     H1 5992   1.147   1.279   3.589
 1935HOH     H2 5993   1.246   1.225   3.690
 1936HOH      O 5994   0.286   0.394   1.487
 1936HOH     H1 5995   0.358   0.446   1.523
 1936HOH     H2 5996   0.237   0.365   1.564
 1937HOH      O 5997   3.223   2.943   1.350
 1937HOH     H1 5998   3.262   2.893   1.422
 1937HOH     H2 5999   3.128   2.937   1.366
 1938HOH      O 6000   3.522   2.728   1.943
 1938HOH     H1 6001   3.556   2.716   1.855
 1938HOH     H2 6002   3.428   2.740   1.931
 1939HOH      O 6003   2.971   0.563   2.118
 1939HOH     H1 6004   2.960   0.567   2.023
 1939HOH     H2 6005   3.008   0.648   2.141
 1940HOH      O 6006   3.520   2.732   3.052
 1940HOH     H1 6007   3.479   2.779   3.125
 1940HOH     H2 6008   3.447   2.704   2.997
 1941HOH      O 6009   4.020   0.607   1.600
 1941HOH     H1 6010   4.081   0.539   1.625
 1941HOH     H2 6011   4.020   0.607   1.505
 1942HOH      O 6012   2.856   3.291   1.804
 1942HOH     H1 6013   2.801   3.253   1.735
 1942HOH     H2 6014   2.899   3.366   1.762
 1943HOH      O 6015   1.021   1.774   3.741
 1943HOH     H1 6016   0.949   1.764   3.803
 1943HOH     H2 6017   1.089   1.819   3.791
 1944HOH      O 6018   3.598   3.188   2.108
 1944HOH     H1 6019   3.629   3.196   2.198
 1944HOH     H2 6020   3.507   3.218   2.111
 1945HOH      O 6021   2.222   0.641   3.635
 1945HOH     H1 6022   2.194   0.652   3.726
 1945HOH     H2 6023   2.151   0.680   3.584
 1946HOH      O 6024   1.587   0.131   0.896
 1946HOH     H1 6025   1.495   0.110   0.884
 1946HOH     H2 6026   1.634   0.059   0.854
 1947HOH      O 6027   1.956   1.628   2.343
 1947HOH     H1 6028   2.048   1.618   2.365
 1947HOH     H2 6029   1.938   1.559   2.279
 1948HOH      O 6030   2.314   3.725   0.445
 1948HOH     H1 6031   2.242   3.663   0.444
 1948HOH     H2 6032   2.387   3.678   0.405
 1949HOH      O 6033   2.200   1.133   2.056
 1949HOH     H1 6034   2.282   1.095   2.022
 1949HOH     H2 6035   2.206   1.226   2.034
 1950HOH      O 6036   0.077   3.808   3.805
 1950HOH     H1 6037   0.038   3.734   3.851
 1950HOH     H2 6038   0.061   3.790   3.712
 1951HOH      O 6039   0.697   3.014   1.068
 1951HOH     H1 6040   0.639   3.058   1.129
 1951HOH     H2 6041   0.685   3.061   0.985
 1952HOH      O 6042   2.044   0.082   3.456
 1952HOH     H1 6043   2.012  -0.007   3.448
 1952HOH     H2 6044   2.061   0.110   3.366
 1953HOH      O 6045   0.603   3.130   1.737
 1953HOH     H1 6046   0.663   3.063   1.704
 1953HOH     H2 6047   0.524   3.082   1.761
 1954HOH      O 6048   3.285   4.005   3.422
 1954HOH     H1 6049   3.332   3.925   3.445
 1954HOH     H2 6050   3.206   4.002   3.476
 1955HOH      O 6051   0.628   0.361   3.249
 1955HOH     H1 6052   0.641   0.411   3.169
 1955HOH     H2 6053   0.607   0.427   3.315
 1956HOH      O 6054   2.194   1.438   1.967
 1956HOH     H1 6055   2.180   1.523   1.924
 1956HOH     H2 6056   2.112   1.391   1.955
 1957HOH      O 6057   2.045   0.597   1.797
 1957HOH     H1 6058   1.966   0.651   1.802
 1957HOH     H2 6059   2.027   0.524   1.856
 1958HOH      O 6060   0.999   3.701   1.204
 1958HOH     H1 6061   1.002   3.763   1.277
 1958HOH     H2 6062   1.041   3.746   1.131
 1959HOH      O 6063   1.476   2.998   0.674
 1959HOH     H1 6064   1.493   2.998   0.768
 1959HOH     H2 6065   1.545   2.942   0.637
 1960HOH      O 6066   0.222   3.700   2.378
 1960HOH     H1 6067   0.204   3.794   2.374
 1960HOH     H2 6068   0.315   3.692   2.358
 1961HOH      O 6069   0.772   3.569   1.565
 1961HOH     H1 6070   0.769   3.483   1.607
 1961HOH     H2 6071   0.690   3.611   1.590
 1962HOH      O 6072   1.715   1.219   1.096
 1962HOH     H1 6073   1.805   1.216   1.130
 1962HOH     H2 6074   1.724   1.255   1.008
 1963HOH      O 6075   0.769   1.198   3.047
 1963HOH     H1 6076   0.704   1.199   2.976
 1963HOH     H2 6077   0.784   1.291   3.067
 1964HOH      O 6078   3.605   0.159   3.832
 1964HOH     H1 6079   3.626   0.230   3.893
 1964HOH     H2 6080   3.542   0.198   3.771
 1965HOH      O 6081   2.634   3.233   2.113
 1965HOH     H1 6082   2.579   3.276   2.048
 1965HOH     H2 6083   2.621   3.284   2.193
 1966HOH      O 6084   0.400   3.713   2.752
 1966HOH     H1 6085   0.379   3.646   2.686
 1966HOH     H2 6086   0.349   3.687   2.829
 1967HOH      O 6087   0.378   2.834   2.388
 1967HOH     H1 6088   0.409   2.818   2.299
 1967HOH     H2 6089   0.388   2.928   2.401
 1968HOH      O 6090   3.604   3.201   3.978
 1968HOH     H1 6091   3.636   3.199   3.888
 1968HOH     H2 6092   3.681   3.227   4.029
 1969HOH      O 6093   0.369   2.773   2.100
 1969HOH     H1 6094   0.380   2.682   2.072
 1969HOH     H2 6095   0.280   2.775   2.135
 1970HOH      O 6096   3.427   1.827   2.572
 1970HOH     H1 6097   3.391   1.915   2.586
 1970HOH     H2 6098   3.372   1.789   2.503
 1971HOH      O 6099   3.899   2.246   2.045
 1971HOH     H1 6100   3.939   2.177   2.097
 1971HOH     H2 6101   3.956   2.322   2.057
 1972HOH      O 6102   3.243   2.421   1.628
 1972HOH     H1 6103   3.268   2.362   1.557
 1972HOH     H2 6104   3.249   2.367   1.707
 1973HOH      O 6105   0.222   2.795   2.804
 1973HOH     H1 6106   0.149   2.733   2.806
 1973HOH     H2 6107   0.289   2.752   2.750
 1974HOH      O 6108   1.382   2.653   2.353
 1974HOH     H1 6109   1.463   2.622   2.393
 1974HOH     H2 6110   1.315   2.636   2.418
 1975HOH      O 6111   2.379   3.538   1.804
 1975HOH     H1 6112   2.439   3.472   1.769
 1975HOH     H2 6113   2.436   3.614   1.823
 1976HOH      O 6114   0.844   0.312   1.321
 1976HOH     H1 6115   0.819   0.390   1.270
 1976HOH     H2 6116   0.876   0.250   1.255
 1977HOH      O 6117   3.476   2.396   0.826
 1977HOH     H1 6118   3.535   2.414   0.752
 1977HOH     H2 6119   3.497   2.306   0.851
 1978HOH      O 6120   2.772   3.858   1.237
 1978HOH     H1 6121   2.847   3.824   1.285
 1978HOH     H2 6122   2.771   3.808   1.155
 1979HOH      O 6123   2.970   0.444   1.573
 1979HOH     H1 6124   2.941   0.456   1.482
 1979HOH     H2 6125   3.061   0.473   1.573
 1980HOH      O 6126   1.513   3.675   1.733
 1980HOH     H1 6127   1.584   3.735   1.753
 1980HOH     H2 6128   1.523   3.656   1.640
 1981HOH      O 6129   2.533   0.767   1.291
 1981HOH     H1 6130   2.576   0.851   1.306
 1981HOH     H2 6131   2.544   0.720   1.374
 1982HOH      O 6132   2.373   2.631   0.699
 1982HOH     H1 6133   2.383   2.548   0.744
 1982HOH     H2 6134   2.452   2.681   0.723
 1983HOH      O 6135   2.276   0.206   2.881
 1983HOH     H1 6136   2.354   0.252   2.911
 1983HOH     H2 6137   2.262   0.137   2.946
 1984HOH      O 6138   2.586   2.199   3.946
 1984HOH     H1 6139   2.666   2.178   3.897
 1984HOH     H2 6140   2.597   2.153   4.029
 1985HOH      O 6141   2.704   0.812   3.909
 1985HOH     H1 6142   2.728   0.865   3.833
 1985HOH     H2 6143   2.615   0.782   3.890
 1986HOH      O 6144   2.356   1.633   3.103
 1986HOH     H1 6145   2.294   1.693   3.061
 1986HOH     H2 6146   2.335   1.547   3.066
 1987HOH      O 6147   3.342   2.228   2.875
 1987HOH     H1 6148   3.329   2.134   2.885
 1987HOH     H2 6149   3.431   2.236   2.841
 1988HOH      O 6150   2.076   3.141   3.035
 1988HOH     H1 6151   1.993   3.145   3.082
 1988HOH     H2 6152   2.051   3.109   2.947
 1989HOH      O 6153   2.999   3.907   3.079
 1989HOH     H1 6154   2.906   3.911   3.057
 1989HOH     H2 6155   3.021   3.996   3.107
 1990HOH      O 6156   0.963   2.340   1.585
 1990HOH     H1 6157   0.938   2.279   1.655
 1990HOH     H2 6158   1.057   2.326   1.573
 1991HOH      O 6159   2.024   0.433   3.151
 1991HOH     H1 6160   2.059   0.510   3.196
 1991HOH     H2 6161   1.931   0.433   3.172
 1992HOH      O 6162   2.546   3.992   1.333
 1992HOH     H1 6163   2.579   4.077   1.304
 1992HOH     H2 6164   2.621   3.933   1.321
 1993HOH      O 6165   2.325   1.911   1.956
 1993HOH     H1 6166   2.357   1.940   2.041
 1993HOH     H2 6167   2.398   1.928   1.896
 1994HOH      O 6168   1.614   2.301   2.977
 1994HOH     H1 6169   1.619   2.212   3.012
 1994HOH     H2 6170   1.537   2.300   2.919
 1995HOH      O 6171   2.875   2.079   1.229
 1995HOH     H1 6172   2.896   2.071   1.322
 1995HOH     H2 6173   2.780   2.069   1.225
 1996HOH      O 6174   3.408   2.437   0.442
 1996HOH     H1 6175   3.412   2.387   0.361
 1996HOH     H2 6176   3.459   2.386   0.504
 1997HOH      O 6177   1.155   1.540   3.690
 1997HOH     H1 6178   1.144   1.518   3.782
 1997HOH     H2 6179   1.102   1.618   3.677
 1998HOH      O 6180   2.254   0.353   3.646
 1998HOH     H1 6181   2.238   0.446   3.636
 1998HOH     H2 6182   2.311   0.329   3.573
 1999HOH      O 6183   2.320   0.856   2.360
 1999HOH     H1 6184   2.375   0.778   2.361
 1999HOH     H2 6185   2.230   0.822   2.355
 2000HOH      O 6186   2.299   0.172   0.501
 2000HOH     H1 6187   2.213   0.159   0.541
 2000HOH     H2 6188   2.329   0.256   0.537
 2001HOH      O 6189   2.344   3.721   2.658
 2001HOH     H1 6190   2.321   3.771   2.736
 2001HOH     H2 6191   2.431   3.753   2.634
 2002HOH      O 6192   2.855   2.376   0.092
 2002HOH     H1 6193   2.764   2.347   0.094
 2002HOH     H2 6194   2.897   2.317   0.029
 2003HOH      O 6195   2.916   1.217   0.484
 2003HOH     H1 6196   2.830   1.259   0.485
 2003HOH     H2 6197   2.926   1.183   0.573
 2004HOH      O 6198   3.624   1.124   1.475
 2004HOH     H1 6199   3.627   1.110   1.570
 2004HOH     H2 6200   3.699   1.180   1.457
 2005HOH      O 6201   3.195   3.801   1.533
 2005HOH     H1 6202   3.219   3.815   1.441
 2005HOH     H2 6203   3.201   3.706   1.545
 2006HOH      O 6204   0.049   2.963   0.908
 2006HOH     H1 6205   0.072   3.054   0.888
 2006HOH     H2 6206   0.072   2.952   1.001
 2007HOH      O 6207   2.747   3.460   1.180
 2007HOH     H1 6208   2.797   3.510   1.116
 2007HOH     H2 6209   2.694   3.400   1.128
 2008HOH      O 6210   0.612   1.134   2.382
 2008HOH     H1 6211   0.635   1.164   2.470
 2008HOH     H2 6212   0.541   1.193   2.355
 2009HOH      O 6213   2.746   1.297   3.428
 2009HOH     H1 6214   2.761   1.351   3.350
 2009HOH     H2 6215   2.824   1.313   3.482
 2010HOH      O 6216   3.521   0.567   0.437
 2010HOH     H1 6217   3.566   0.605   0.362
 2010HOH     H2 6218   3.428   0.574   0.415
 2011HOH      O 6219   1.551   1.558   1.253
 2011HOH     H1 6220   1.538   1.650   1.277
 2011HOH     H2 6221   1.603   1.561   1.173
 2012HOH      O 6222   0.065   1.737   0.845
 2012HOH     H1 6223   0.098   1.821   0.814
 2012HOH     H2 6224  -0.028   1.751   0.859
 2013HOH      O 6225   0.412   2.391   2.796
 2013HOH     H1 6226   0.464   2.316   2.824
 2013HOH     H2 6227   0.330   2.353   2.764
 2014HOH      O 6228   2.435   2.009   2.181
 2014HOH     H1 6229   2.501   2.079   2.178
 2014HOH     H2 6230   2.356   2.052   2.214
 2015HOH      O 6231   0.119   3.504   2.529
 2015HOH     H1 6232   0.153   3.580   2.482
 2015HOH     H2 6233   0.034   3.533   2.564
 2016HOH      O 6234   2.495   3.794   1.817
 2016HOH     H1 6235   2.406   3.827   1.830
 2016HOH     H2 6236   2.549   3.848   1.875
 2017HOH      O 6237   2.227   3.001   3.435
 2017HOH     H1 6238   2.184   3.085   3.448
 2017HOH     H2 6239   2.195   2.947   3.508
 2018HOH      O 6240   2.158   0.786   2.043
 2018HOH     H1 6241   2.184   0.828   2.125
 2018HOH     H2 6242   2.210   0.831   1.976
 2019HOH      O 6243   1.841   2.619   2.888
 2019HOH     H1 6244   1.777   2.685   2.913
 2019HOH     H2 6245   1.881   2.593   2.971
 2020HOH      O 6246   3.305   0.921   2.131
 2020HOH     H1 6247   3.309   0.964   2.046
 2020HOH     H2 6248   3.369   0.967   2.185
 2021HOH      O 6249   3.996   2.346   1.417
 2021HOH     H1 6250   4.054   2.270   1.411
 2021HOH     H2 6251   4.055   2.420   1.433
 2022HOH      O 6252   0.250   0.022   2.910
 2022HOH     H1 6253   0.170   0.066   2.938
 2022HOH     H2 6254   0.319   0.061   2.964
 2023HOH      O 6255   2.807   3.507   3.448
 2023HOH     H1 6256   2.758   3.425   3.441
 2023HOH     H2 6257   2.741   3.576   3.450
 2024HOH      O 6258   1.559   1.294   0.739
 2024HOH     H1 6259   1.567   1.380   0.698
 2024HOH     H2 6260   1.639   1.286   0.792
 2025HOH      O 6261   2.596   3.770   1.553
 2025HOH     H1 6262   2.577   3.757   1.646
 2025HOH     H2 6263   2.590   3.864   1.540
 2026HOH      O 6264   1.938   1.362   1.985
 2026HOH     H1 6265   1.884   1.436   2.012
 2026HOH     H2 6266   1.898   1.286   2.027
 2027HOH      O 6267   2.458   1.910   0.840
 2027HOH     H1 6268   2.533   1.905   0.782
 2027HOH     H2 6269   2.482   1.855   0.916
 2028HOH      O 6270   4.024   2.734   0.795
 2028HOH     H1 6271   4.095   2.702   0.739
 2028HOH     H2 6272   4.058   2.816   0.831
 2029HOH      O 6273   1.988   3.593   2.111
 2029HOH     H1 6274   1.941   3.648   2.049
 2029HOH     H2 6275   1.922   3.567   2.175
 2030HOH      O 6276   2.128   0.689   3.228
 2030HOH     H1 6277   2.070   0.741   3.283
 2030HOH     H2 6278   2.108   0.718   3.138
 2031HOH      O 6279   2.264   2.627   1.151
 2031HOH     H1 6280   2.207   2.703   1.143
 2031HOH     H2 6281   2.353   2.662   1.143
 2032HOH      O 6282   0.503   3.641   1.583
 2032HOH     H1 6283   0.485   3.547   1.587
 2032HOH     H2 6284   0.441   3.680   1.644
 2033HOH      O 6285   0.348   0.696   2.303
 2033HOH     H1 6286   0.342   0.727   2.213
 2033HOH     H2 6287   0.417   0.749   2.343
 2034HOH      O 6288   3.885   2.511   3.536
 2034HOH     H1 6289   3.871   2.564   3.614
 2034HOH     H2 6290   3.800   2.470   3.520
 2035HOH      O 6291   3.536   1.145   3.377
 2035HOH     H1 6292   3.521   1.127   3.470
 2035HOH     H2 6293   3.615   1.095   3.356
 2036HOH      O 6294   1.397   3.787   2.543
 2036HOH     H1 6295   1.326   3.770   2.482
 2036HOH     H2 6296   1.452   3.851   2.499
 2037HOH      O 6297   3.307   1.357   2.981
 2037HOH     H1 6298   3.264   1.274   3.003
 2037HOH     H2 6299   3.245   1.402   2.924
 2038HOH      O 6300   0.872   1.570   2.129
 2038HOH     H1 6301   0.835   1.484   2.104
 2038HOH     H2 6302   0.911   1.603   2.048
 2039HOH      O 6303   2.997   0.573   1.848
 2039HOH     H1 6304   2.994   0.501   1.786
 2039HOH     H2 6305   2.928   0.633   1.819
 2040HOH      O 6306   0.145   1.820   2.913
 2040HOH     H1 6307   0.182   1.757   2.975
 2040HOH     H2 6308   0.138   1.772   2.830
 2041HOH      O 6309   2.683   0.389   0.023
 2041HOH     H1 6310   2.681   0.307  -0.026
 2041HOH     H2 6311   2.600   0.432   0.002
 2042HOH      O 6312   3.230   0.399   3.894
 2042HOH     H1 6313   3.202   0.361   3.977
 2042HOH     H2 6314   3.174   0.476   3.883
 2043HOH      O 6315   3.609   1.999   1.412
 2043HOH     H1 6316   3.691   1.998   1.361
 2043HOH     H2 6317   3.556   2.066   1.369
 2044HOH      O 6318   3.298   0.878   3.251
 2044HOH     H1 6319   3.210   0.914   3.239
 2044HOH     H2 6320   3.315   0.886   3.344
 2045HOH      O 6321   3.993   3.440   3.752
 2045HOH     H1 6322   3.935   3.415   3.824
 2045HOH     H2 6323   4.063   3.376   3.754
 2046HOH      O 6324   2.995   3.188   0.008
 2046HOH     H1 6325   3.066   3.159   0.065
 2046HOH     H2 6326   2.948   3.108  -0.015
 2047HOH      O 6327   1.589   3.982   3.085
 2047HOH     H1 6328   1.663   4.042   3.078
 2047HOH     H2 6329   1.609   3.911   3.025
 2048HOH      O 6330   1.264   1.631   2.553
 2048HOH     H1 6331   1.318   1.554   2.535
 2048HOH     H2 6332   1.299   1.699   2.495
 2049HOH      O 6333   1.997   2.856   3.828
 2049HOH     H1 6334   1.902   2.863   3.829
 2049HOH     H2 6335   2.019   2.826   3.917
 2050HOH      O 6336   1.543   0.191   1.286
 2050HOH     H1 6337   1.531   0.098   1.269
 2050HOH     H2 6338   1.454   0.225   1.298
 2051HOH      O 6339   0.499   0.538   1.624
 2051HOH     H1 6340   0.593   0.555   1.638
 2051HOH     H2 6341   0.481   0.577   1.538
 2052HOH      O 6342   1.495   2.037   3.318
 2052HOH     H1 6343   1.540   1.954   3.333
 2052HOH     H2 6344   1.482   2.074   3.405
 2053HOH      O 6345   1.652   3.618   1.376
 2053HOH     H1 6346   1.623   3.656   1.293
 2053HOH     H2 6347   1.576   3.624   1.433
 2054HOH      O 6348   1.589   2.277   1.656
 2054HOH     H1 6349   1.681   2.256   1.674
 2054HOH     H2 6350   1.558   2.203   1.604
 2055HOH      O 6351   0.471   0.098   3.565
 2055HOH     H1 6352   0.480   0.004   3.580
 2055HOH     H2 6353   0.484   0.137   3.651
 2056HOH      O 6354   1.949   1.063   2.437
 2056HOH     H1 6355   1.861   1.074   2.402
 2056HOH     H2 6356   1.951   0.974   2.471
 2057HOH      O 6357   0.176   0.696   3.326
 2057HOH     H1 6358   0.215   0.685   3.412
 2057HOH     H2 6359   0.207   0.621   3.275
 2058HOH      O 6360   1.599   2.209   2.311
 2058HOH     H1 6361   1.598   2.251   2.397
 2058HOH     H2 6362   1.514   2.168   2.302
 2059HOH      O 6363   3.746   0.422   2.905
 2059HOH     H1 6364   3.703   0.375   2.977
 2059HOH     H2 6365   3.775   0.353   2.845
 2060HOH      O 6366   0.591   0.108   0.582
 2060HOH     H1 6367   0.632   0.170   0.643
 2060HOH     H2 6368   0.652   0.104   0.508
 2061HOH      O 6369   0.164   0.008   0.870
 2061HOH     H1 6370   0.230   0.069   0.837
 2061HOH     H2 6371   0.133  -0.038   0.793
 2062HOH      O 6372   0.368   3.671   1.327
 2062HOH     H1 6373   0.273   3.679   1.336
 2062HOH     H2 6374   0.402   3.682   1.416
 2063HOH      O 6375   3.528   2.872   3.539
 2063HOH     H1 6376   3.437   2.849   3.522
 2063HOH     H2 6377   3.542   2.848   3.631
 2064HOH      O 6378   1.570   1.844   3.978
 2064HOH     H1 6379   1.515   1.776   3.938
 2064HOH     H2 6380   1.608   1.890   3.904
 2065HOH      O 6381   0.673   2.692   2.256
 2065HOH     H1 6382   0.746   2.675   2.196
 2065HOH     H2 6383   0.601   2.640   2.221
 2066HOH      O 6384   0.573   1.068   1.157
 2066HOH     H1 6385   0.628   1.121   1.099
 2066HOH     H2 6386   0.581   0.979   1.122
 2067HOH      O 6387   3.860   3.540   3.022
 2067HOH     H1 6388   3.933   3.570   3.076
 2067HOH     H2 6389   3.875   3.445   3.012
 2068HOH      O 6390   2.714   1.889   0.783
 2068HOH     H1 6391   2.740   1.965   0.835
 2068HOH     H2 6392   2.791   1.869   0.729
 2069HOH      O 6393   0.611   0.334   0.200
 2069HOH     H1 6394   0.637   0.350   0.110
 2069HOH     H2 6395   0.599   0.421   0.238
 2070HOH      O 6396   2.016   0.939   0.759
 2070HOH     H1 6397   1.921   0.948   0.755
 2070HOH     H2 6398   2.042   0.990   0.836
 2071HOH      O 6399   0.648   2.313   1.270
 2071HOH     H1 6400   0.619   2.283   1.356
 2071HOH     H2 6401   0.659   2.233   1.218
 2072HOH      O 6402   2.705   2.699   2.289
 2072HOH     H1 6403   2.713   2.674   2.381
 2072HOH     H2 6404   2.682   2.791   2.290
 2073HOH      O 6405   2.017   2.628   2.676
 2073HOH     H1 6406   2.006   2.533   2.664
 2073HOH     H2 6407   1.986   2.644   2.765
 2074HOH      O 6408   1.001   0.781   2.062
 2074HOH     H1 6409   0.953   0.821   1.989
 2074HOH     H2 6410   0.950   0.802   2.139
 2075HOH      O 6411   3.408   1.466   3.919
 2075HOH     H1 6412   3.471   1.531   3.951
 2075HOH     H2 6413   3.413   1.395   3.983
 2076HOH      O 6414   3.558   3.628   2.164
 2076HOH     H1 6415   3.537   3.550   2.214
 2076HOH     H2 6416   3.625   3.599   2.101
 2077HOH      O 6417   2.557   2.381   0.744
 2077HOH     H1 6418   2.575   2.295   0.783
 2077HOH     H2 6419   2.462   2.387   0.743
 2078HOH      O 6420   0.038   0.701   1.905
 2078HOH     H1 6421   0.073   0.628   1.956
 2078HOH     H2 6422   0.061   0.779   1.954
 2079HOH      O 6423   0.070   3.524   0.868
 2079HOH     H1 6424  -0.000   3.588   0.859
 2079HOH     H2 6425   0.134   3.549   0.800
 2080HOH      O 6426   0.049   3.685   0.407
 2080HOH     H1 6427   0.116   3.651   0.466
 2080HOH     H2 6428   0.098   3.736   0.342
 2081HOH      O 6429   3.969   2.868   3.973
 2081HOH     H1 6430   4.012   2.868   4.058
 2081HOH     H2 6431   3.910   2.793   3.975
 2082HOH      O 6432   3.169   1.657   2.970
 2082HOH     H1 6433   3.249   1.661   2.917
 2082HOH     H2 6434   3.118   1.733   2.942
 2083HOH      O 6435   1.447   1.825   2.900
 2083HOH     H1 6436   1.426   1.897   2.958
 2083HOH     H2 6437   1.487   1.866   2.823
 2084HOH      O 6438   2.552   3.786   3.781
 2084HOH     H1 6439   2.578   3.704   3.823
 2084HOH     H2 6440   2.539   3.847   3.853
 2085HOH      O 6441   0.089   0.615   0.596
 2085HOH     H1 6442  -0.005   0.621   0.611
 2085HOH     H2 6443   0.127   0.608   0.683
 2086HOH      O 6444   0.076   3.430   1.856
 2086HOH     H1 6445   0.147   3.374   1.825
 2086HOH     H2 6446   0.006   3.418   1.792
 2087HOH      O 6447   3.849   1.131   3.152
 2087HOH     H1 6448   3.831   1.069   3.222
 2087HOH     H2 6449   3.944   1.136   3.148
 2088HOH      O 6450   0.463   1.104   3.869
 2088HOH     H1 6451   0.424   1.092   3.956
 2088HOH     H2 6452   0.548   1.061   3.875
 2089HOH      O 6453   3.093   1.888   3.816
 2089HOH     H1 6454   3.045   1.942   3.879
 2089HOH     H2 6455   3.065   1.920   3.731
 2090HOH      O 6456   1.354   0.600   1.988
 2090HOH     H1 6457   1.265   0.581   2.019
 2090HOH     H2 6458   1.351   0.692   1.962
 2091HOH      O 6459   0.016   3.208   2.908
 2091HOH     H1 6460  -0.021   3.207   2.996
 2091HOH     H2 6461   0.075   3.132   2.906
 2092HOH      O 6462   3.070   1.423   0.730
 2092HOH     H1 6463   3.065   1.411   0.636
 2092HOH     H2 6464   3.162   1.443   0.747
 2093HOH      O 6465   0.568   3.499   1.288
 2093HOH     H1 6466   0.494   3.559   1.277
 2093HOH     H2 6467   0.642   3.544   1.247
 2094HOH      O 6468   2.428   3.954   2.493
 2094HOH     H1 6469   2.490   3.940   2.565
 2094HOH     H2 6470   2.368   4.021   2.525
 2095HOH      O 6471   1.475   0.437   0.428
 2095HOH     H1 6472   1.491   0.373   0.359
 2095HOH     H2 6473   1.555   0.436   0.480
 2096HOH      O 6474   2.459   3.878   2.241
 2096HOH     H1 6475   2.461   3.926   2.324
 2096HOH     H2 6476   2.367   3.860   2.225
 2097HOH      O 6477   0.887   3.074   0.232
 2097HOH     H1 6478   0.883   3.164   0.198
 2097HOH     H2 6479   0.842   3.022   0.165
 2098HOH      O 6480   1.396   2.815   1.321
 2098HOH     H1 6481   1.327   2.798   1.385
 2098HOH     H2 6482   1.387   2.744   1.257
 2099HOH      O 6483   0.259   0.947   3.748
 2099HOH     H1 6484   0.307   1.024   3.776
 2099HOH     H2 6485   0.211   0.918   3.826
 2100HOH      O 6486   2.372   2.264   2.732
 2100HOH     H1 6487   2.314   2.200   2.774
 2100HOH     H2 6488   2.457   2.221   2.729
 2101HOH      O 6489   3.248   3.457   0.872
 2101HOH     H1 6490   3.202   3.539   0.893
 2101HOH     H2 6491   3.234   3.446   0.778
 2102HOH      O 6492   0.979   2.350   0.852
 2102HOH     H1 6493   0.917   2.303   0.908
 2102HOH     H2 6494   0.978   2.440   0.885
 2103HOH      O 6495   1.334   0.154   0.594
 2103HOH     H1 6496   1.279   0.207   0.536
 2103HOH     H2 6497   1.299   0.066   0.586
 2104HOH      O 6498   1.181   2.283   3.482
 2104HOH     H1 6499   1.100   2.335   3.479
 2104HOH     H2 6500   1.169   2.226   3.558
 2105HOH      O 6501   3.137   0.861   1.644
 2105HOH     H1 6502   3.151   0.767   1.630
 2105HOH     H2 6503   3.097   0.891   1.563
 2106HOH      O 6504   2.633   2.968   2.256
 2106HOH     H1 6505   2.549   3.012   2.247
 2106HOH     H2 6506   2.692   3.036   2.288
 2107HOH      O 6507   0.174   2.160   1.347
 2107HOH     H1 6508   0.147   2.155   1.255
 2107HOH     H2 6509   0.223   2.080   1.363
 2108HOH      O 6510   0.995   0.205   2.065
 2108HOH     H1 6511   1.007   0.187   2.159
 2108HOH     H2 6512   1.061   0.152   2.022
 2109HOH      O 6513   1.032   1.172   1.806
 2109HOH     H1 6514   0.996   1.233   1.741
 2109HOH     H2 6515   1.094   1.225   1.857
 2110HOH      O 6516   2.781   2.324   2.840
 2110HOH     H1 6517   2.709   2.385   2.829
 2110HOH     H2 6518   2.847   2.373   2.889
 2111HOH      O 6519   3.297   3.544   2.808
 2111HOH     H1 6520   3.386   3.545   2.773
 2111HOH     H2 6521   3.242   3.520   2.733
   4.02727   4.02727   4.02727   0.00000   0.00000   0.00000   0.00000   0.00000   0.00000
