Generated with MDTraj, t= 31276.0
 6533
    1MOL     C1    1   2.380   3.270   2.342
    1MOL     C2    2   2.406   3.376   2.430
    1MOL     C3    3   2.484   3.480   2.383
    1MOL     C4    4   2.542   3.485   2.256
    1MOL     C5    5   2.528   3.373   2.171
    1MOL     C6    6   2.446   3.269   2.219
    1MOL     C7    7   2.617   3.606   2.212
    1MOL     C8    8   2.728   3.641   2.314
    1MOL     N1    9   2.842   3.540   2.336
    1MOL     C9   10   2.804   3.430   2.421
    1MOL    C10   11   2.945   3.616   2.412
    1MOL    C11   12   2.902   3.490   2.205
    1MOL     H1   13   2.735   3.370   2.362
    1MOL     H2   14   2.749   3.463   2.508
    1MOL     H3   15   2.900   3.381   2.436
    1MOL     H4   16   2.957   3.719   2.379
    1MOL     H5   17   3.041   3.566   2.393
    1MOL     H6   18   2.922   3.617   2.518
    1MOL     H7   19   2.823   3.437   2.153
    1MOL     H8   20   2.989   3.427   2.225
    1MOL     H9   21   2.945   3.574   2.150
    1MOL    H10   22   2.316   3.190   2.378
    1MOL    H11   23   2.364   3.371   2.530
    1MOL    H12   24   2.486   3.571   2.444
    1MOL    H13   25   2.558   3.364   2.067
    1MOL    H14   26   2.420   3.191   2.149
    1MOL    H15   27   2.666   3.590   2.116
    1MOL    H16   28   2.553   3.694   2.198
    1MOL    H17   29   2.778   3.730   2.278
    1MOL    H18   30   2.676   3.658   2.409
    2OCB     C1   31   1.612   2.741   2.202
    2OCB     C2   32   1.695   2.916   2.002
    2OCB     C3   33   1.627   2.697   2.070
    2OCB     C4   34   1.642   2.871   2.231
    2OCB     C5   35   1.678   2.958   2.131
    2OCB     C6   36   1.657   2.783   1.965
    2OCB     O1   37   1.740   3.007   1.906
    2OCB     C7   38   1.685   2.747   1.812
    2OCB     C8   39   1.881   3.000   1.879
    2OCB     O2   40   1.908   2.927   1.753
    2OCB     C9   41   1.925   2.790   1.763
    2OCB    C10   42   1.829   2.705   1.801
    2OCB    C11   43   1.867   2.579   1.845
    2OCB    C12   44   2.057   2.742   1.747
    2OCB    C13   45   2.001   2.529   1.833
    2OCB    C14   46   2.095   2.620   1.787
    2OCB     O3   47   2.228   2.585   1.791
    2OCB    C15   48   2.040   2.381   1.873
    2OCB    C16   49   2.086   2.371   2.022
    2OCB    C17   50   2.211   2.418   2.064
    2OCB    C18   51   2.294   2.582   1.917
    2OCB     O4   52   2.299   2.453   1.963
    2OCB     O5   53   1.641   2.923   2.352
    2OCB    C19   54   1.566   2.647   2.314
    2OCB    C20   55   1.684   2.593   2.393
    2OCB     O6   56   1.719   2.796   2.528
    2OCB    C21   57   1.743   2.662   2.499
    2OCB    C22   58   2.250   2.425   2.194
    2OCB    C23   59   2.163   2.387   2.294
    2OCB    C24   60   1.854   2.614   2.571
    2OCB    C25   61   1.919   2.501   2.524
    2OCB     O7   62   2.199   2.398   2.426
    2OCB     O8   63   2.046   2.478   2.585
    2OCB    C26   64   2.160   2.517   2.502
    2OCB    C27   65   1.752   2.480   2.348
    2OCB    C28   66   1.869   2.434   2.415
    2OCB    C29   67   2.001   2.327   2.122
    2OCB    C30   68   1.936   2.301   2.368
    2OCB    C31   69   2.038   2.331   2.255
    2OCB    C32   70   1.758   2.893   2.433
    2OCB    C33   71   1.943   2.266   1.835
    2OCB    C34   72   2.009   2.129   1.850
    2OCB    C35   73   2.104   2.096   1.736
    2OCB     O9   74   2.225   2.084   1.756
    2OCB    C36   75   1.584   2.653   1.749
    2OCB    C37   76   1.438   2.709   1.727
    2OCB    C38   77   1.365   2.609   1.638
    2OCB    O10   78   1.362   2.615   1.516
    2OCB    C39   79   1.461   2.543   2.265
    2OCB    C40   80   1.395   2.458   2.378
    2OCB    C41   81   1.257   2.410   2.341
    2OCB    O11   82   1.251   2.319   2.260
    2OCB    C42   83   1.830   2.185   2.342
    2OCB    C43   84   1.888   2.056   2.297
    2OCB    C44   85   1.963   1.996   2.415
    2OCB    O12   86   2.078   2.027   2.423
    2OCB    C45   87   1.957   3.130   1.878
    2OCB    C46   88   2.097   3.369   1.891
    2OCB    C47   89   2.088   3.139   1.830
    2OCB    C48   90   1.901   3.241   1.926
    2OCB    C49   91   1.969   3.362   1.943
    2OCB    C50   92   2.161   3.257   1.824
    2OCB    C51   93   1.798   3.013   2.513
    2OCB    C52   94   1.844   3.234   2.671
    2OCB    C53   95   1.847   2.993   2.641
    2OCB    C54   96   1.776   3.142   2.465
    2OCB    C55   97   1.808   3.250   2.538
    2OCB    C56   98   1.869   3.111   2.720
    2OCB    C57   99   2.270   2.594   2.570
    2OCB    C58  100   2.477   2.708   2.715
    2OCB    C59  101   2.399   2.578   2.524
    2OCB    C60  102   2.244   2.668   2.688
    2OCB    C61  103   2.347   2.719   2.761
    2OCB    C62  104   2.503   2.643   2.593
    2OCB    C63  105   2.436   2.637   1.898
    2OCB    C64  106   2.677   2.772   1.878
    2OCB    C65  107   2.535   2.606   1.989
    2OCB    C66  108   2.457   2.728   1.799
    2OCB    C67  109   2.576   2.803   1.788
    2OCB    C68  110   2.655   2.674   1.982
    2OCB    O13  111   1.818   3.382   2.482
    2OCB    O14  112   2.319   2.803   2.867
    2OCB    O15  113   2.635   2.648   2.548
    2OCB    O16  114   1.910   3.466   2.008
    2OCB    O17  115   2.284   3.271   1.766
    2OCB    O18  116   2.754   2.654   2.075
    2OCB    O19  117   2.589   2.901   1.695
    2OCB    C69  118   2.195   2.849   2.903
    2OCB    C70  119   1.934   2.911   2.977
    2OCB    C71  120   2.137   2.964   2.846
    2OCB    C72  121   2.130   2.764   2.995
    2OCB    C73  122   1.995   2.798   3.034
    2OCB    C74  123   2.007   2.990   2.888
    2OCB    O20  124   1.941   3.099   2.841
    2OCB    C75  125   1.827   3.448   2.116
    2OCB    C76  126   1.652   3.439   2.324
    2OCB    C77  127   1.693   3.472   2.090
    2OCB    C78  128   1.872   3.413   2.242
    2OCB    C79  129   1.785   3.415   2.352
    2OCB    C80  130   1.607   3.464   2.195
    2OCB    C81  131   2.668   2.577   2.430
    2OCB    C82  132   2.736   2.439   2.192
    2OCB    C83  133   2.682   2.436   2.429
    2OCB    C84  134   2.694   2.649   2.307
    2OCB    C85  135   2.733   2.579   2.192
    2OCB    C86  136   2.724   2.364   2.309
    2OCB    C87  137   2.749   2.213   2.322
    2OCB    O21  138   2.732   2.154   2.425
    2OCB    C88  139   2.271   3.036   1.340
    2OCB    O22  140   2.181   3.109   1.301
    2OCB    C89  141   1.457   3.477   2.163
    2OCB    O23  142   1.378   3.424   2.242
    2OCB    O24  143   2.068   2.120   1.622
    2OCB    O25  144   1.923   1.893   2.468
    2OCB    O26  145   1.152   2.452   2.395
    2OCB    C90  146   1.918   2.714   3.138
    2OCB    O27  147   1.956   2.610   3.198
    2OCB    O28  148   2.293   2.930   1.290
    2OCB    O29  149   2.801   2.149   2.231
    2OCB    O30  150   1.815   2.763   3.182
    2OCB    O31  151   1.423   3.511   2.054
    2OCB    O32  152   1.308   2.517   1.694
    2OCB    C91  153   2.339   3.171   1.686
    2OCB    C92  154   2.435   2.966   1.523
    2OCB    C93  155   2.444   3.089   1.735
    2OCB    C94  156   2.281   3.150   1.562
    2OCB    C95  157   2.331   3.051   1.474
    2OCB    C96  158   2.489   2.985   1.649
    2OCB    C97  159   2.505   3.109   1.872
    2OCB    C98  160   2.023   3.394   2.283
    2OCB    C99  161   2.212   3.040   2.739
    2OCB      C  162   2.691   2.799   2.307
    2OCB     H1  163   1.600   2.596   2.039
    2OCB     H2  164   1.695   3.061   2.163
    2OCB     H3  165   1.672   2.839   1.754
    2OCB     H4  166   1.927   2.934   1.954
    2OCB     H5  167   1.786   2.516   1.882
    2OCB     H6  168   2.136   2.814   1.729
    2OCB     H7  169   2.132   2.355   1.820
    2OCB     H8  170   2.239   2.631   1.998
    2OCB     H9  171   1.516   2.718   2.381
    2OCB    H10  172   2.346   2.470   2.219
    2OCB    H11  173   1.897   2.672   2.652
    2OCB    H12  174   2.116   2.582   2.425
    2OCB    H13  175   1.711   2.422   2.266
    2OCB    H14  176   1.905   2.292   2.085
    2OCB    H15  177   1.984   2.263   2.458
    2OCB    H16  178   1.839   2.855   2.369
    2OCB    H17  179   1.853   2.269   1.897
    2OCB    H18  180   1.907   2.285   1.734
    2OCB    H19  181   2.061   2.115   1.944
    2OCB    H20  182   1.926   2.058   1.852
    2OCB    H21  183   1.583   2.553   1.793
    2OCB    H22  184   1.628   2.646   1.649
    2OCB    H23  185   1.390   2.734   1.822
    2OCB    H24  186   1.441   2.809   1.682
    2OCB    H25  187   1.396   2.602   2.200
    2OCB    H26  188   1.512   2.476   2.196
    2OCB    H27  189   1.456   2.370   2.402
    2OCB    H28  190   1.378   2.521   2.466
    2OCB    H29  191   1.771   2.171   2.433
    2OCB    H30  192   1.751   2.216   2.273
    2OCB    H31  193   1.808   1.989   2.264
    2OCB    H32  194   1.946   2.075   2.206
    2OCB    H33  195   2.140   3.469   1.898
    2OCB    H34  196   2.128   3.048   1.784
    2OCB    H35  197   1.800   3.228   1.963
    2OCB    H36  198   1.882   3.318   2.729
    2OCB    H37  199   1.870   2.895   2.680
    2OCB    H38  200   1.738   3.165   2.366
    2OCB    H39  201   2.558   2.758   2.767
    2OCB    H40  202   2.416   2.535   2.426
    2OCB    H41  203   2.141   2.666   2.721
    2OCB    H42  204   2.772   2.824   1.877
    2OCB    H43  205   2.520   2.532   2.068
    2OCB    H44  206   2.378   2.748   1.727
    2OCB    H45  207   1.831   2.938   3.000
    2OCB    H46  208   2.175   2.673   3.034
    2OCB    H47  209   1.576   3.423   2.400
    2OCB    H48  210   1.657   3.496   1.990
    2OCB    H49  211   2.769   2.385   2.103
    2OCB    H50  212   2.658   2.382   2.520
    2OCB    H51  213   2.468   2.887   1.456
    2OCB    H52  214   2.203   3.219   1.532
    2OCB    H53  215   2.614   3.100   1.873
    2OCB    H54  216   2.478   3.206   1.912
    2OCB    H55  217   2.464   3.028   1.932
    2OCB    H56  218   2.086   3.414   2.196
    2OCB    H57  219   2.058   3.461   2.361
    2OCB    H58  220   2.048   3.293   2.317
    2OCB    H59  221   2.147   3.106   2.681
    2OCB    H60  222   2.298   3.096   2.775
    2OCB    H61  223   2.240   2.965   2.665
    2OCB    H62  224   2.649   2.839   2.399
    2OCB    H63  225   2.796   2.829   2.300
    2OCB    H64  226   2.627   2.830   2.224
    3Na+    Na+  227   1.148   0.247   1.909
    4Na+    Na+  228   3.110   3.319   1.019
    5Na+    Na+  229   2.137   2.951   1.119
    6Na+    Na+  230   2.763   1.971   0.168
    7Na+    Na+  231   2.574   0.840   2.309
    8Na+    Na+  232   1.028   2.263   2.273
    9Na+    Na+  233   2.854   0.139   3.780
   10HOH      O  234   0.019   3.952   2.784
   10HOH     H1  235   0.063   3.969   2.701
   10HOH     H2  236  -0.045   4.022   2.793
   11HOH      O  237   2.373   2.422   1.182
   11HOH     H1  238   2.311   2.401   1.112
   11HOH     H2  239   2.326   2.404   1.263
   12HOH      O  240   1.479   3.072   1.306
   12HOH     H1  241   1.452   3.008   1.240
   12HOH     H2  242   1.406   3.133   1.312
   13HOH      O  243   0.078   0.352   3.950
   13HOH     H1  244   0.096   0.272   3.900
   13HOH     H2  245   0.133   0.418   3.909
   14HOH      O  246   3.167   3.801   3.504
   14HOH     H1  247   3.183   3.778   3.413
   14HOH     H2  248   3.186   3.895   3.509
   15HOH      O  249   0.526   2.516   3.284
   15HOH     H1  250   0.452   2.460   3.306
   15HOH     H2  251   0.603   2.460   3.294
   16HOH      O  252   3.201   0.161   2.800
   16HOH     H1  253   3.235   0.203   2.880
   16HOH     H2  254   3.247   0.205   2.729
   17HOH      O  255   3.773   0.204   3.247
   17HOH     H1  256   3.797   0.252   3.327
   17HOH     H2  257   3.761   0.114   3.277
   18HOH      O  258   0.501   0.252   0.866
   18HOH     H1  259   0.533   0.204   0.790
   18HOH     H2  260   0.524   0.197   0.941
   19HOH      O  261   0.930   2.811   4.049
   19HOH     H1  262   0.936   2.867   3.971
   19HOH     H2  263   1.012   2.761   4.049
   20HOH      O  264   1.050   1.517   2.433
   20HOH     H1  265   1.035   1.604   2.395
   20HOH     H2  266   1.145   1.510   2.439
   21HOH      O  267   3.729   1.380   1.145
   21HOH     H1  268   3.689   1.421   1.222
   21HOH     H2  269   3.769   1.300   1.179
   22HOH      O  270   0.280   1.070   0.802
   22HOH     H1  271   0.262   1.164   0.809
   22HOH     H2  272   0.260   1.049   0.711
   23HOH      O  273   1.569   3.072   0.676
   23HOH     H1  274   1.646   3.100   0.726
   23HOH     H2  275   1.507   3.143   0.687
   24HOH      O  276   1.052   0.320   1.686
   24HOH     H1  277   0.968   0.367   1.687
   24HOH     H2  278   1.062   0.290   1.596
   25HOH      O  279   2.659   0.473   1.477
   25HOH     H1  280   2.732   0.521   1.514
   25HOH     H2  281   2.634   0.523   1.399
   26HOH      O  282   3.461   2.105   3.313
   26HOH     H1  283   3.465   2.154   3.230
   26HOH     H2  284   3.485   2.169   3.380
   27HOH      O  285   3.185   0.903   0.474
   27HOH     H1  286   3.155   0.988   0.441
   27HOH     H2  287   3.253   0.925   0.537
   28HOH      O  288   0.509   0.556   1.961
   28HOH     H1  289   0.415   0.556   1.979
   28HOH     H2  290   0.522   0.485   1.898
   29HOH      O  291   3.411   1.028   2.957
   29HOH     H1  292   3.507   1.022   2.951
   29HOH     H2  293   3.396   1.092   3.027
   30HOH      O  294   1.719   0.299   3.223
   30HOH     H1  295   1.758   0.257   3.299
   30HOH     H2  296   1.716   0.230   3.157
   31HOH      O  297   1.484   0.724   1.115
   31HOH     H1  298   1.400   0.745   1.073
   31HOH     H2  299   1.550   0.763   1.058
   32HOH      O  300   2.150   2.724   1.017
   32HOH     H1  301   2.105   2.644   1.042
   32HOH     H2  302   2.210   2.698   0.947
   33HOH      O  303   0.363   2.764   3.830
   33HOH     H1  304   0.351   2.811   3.913
   33HOH     H2  305   0.408   2.683   3.855
   34HOH      O  306   3.611   1.565   1.362
   34HOH     H1  307   3.570   1.599   1.441
   34HOH     H2  308   3.556   1.598   1.291
   35HOH      O  309   2.554   0.837   1.340
   35HOH     H1  310   2.556   0.745   1.315
   35HOH     H2  311   2.480   0.874   1.291
   36HOH      O  312   1.774   0.937   3.995
   36HOH     H1  313   1.815   0.852   3.981
   36HOH     H2  314   1.776   0.950   4.090
   37HOH      O  315   3.021   3.829   0.341
   37HOH     H1  316   2.929   3.826   0.367
   37HOH     H2  317   3.018   3.828   0.245
   38HOH      O  318  -0.004   2.038   3.419
   38HOH     H1  319  -0.003   2.097   3.344
   38HOH     H2  320   0.057   1.968   3.396
   39HOH      O  321   1.071   1.547   0.385
   39HOH     H1  322   1.147   1.494   0.360
   39HOH     H2  323   1.091   1.635   0.353
   40HOH      O  324   0.472   0.673   1.401
   40HOH     H1  325   0.466   0.578   1.418
   40HOH     H2  326   0.440   0.713   1.482
   41HOH      O  327   1.328   0.176   1.779
   41HOH     H1  328   1.371   0.221   1.706
   41HOH     H2  329   1.398   0.127   1.822
   42HOH      O  330   2.225   0.765   0.480
   42HOH     H1  331   2.247   0.721   0.562
   42HOH     H2  332   2.157   0.710   0.441
   43HOH      O  333   2.872   3.897   2.160
   43HOH     H1  334   2.805   3.907   2.092
   43HOH     H2  335   2.858   3.971   2.218
   44HOH      O  336   0.472   2.298   1.946
   44HOH     H1  337   0.451   2.310   1.854
   44HOH     H2  338   0.555   2.345   1.958
   45HOH      O  339   3.331   0.754   3.862
   45HOH     H1  340   3.390   0.780   3.933
   45HOH     H2  341   3.254   0.718   3.907
   46HOH      O  342   0.866   1.598   3.008
   46HOH     H1  343   0.862   1.579   2.914
   46HOH     H2  344   0.957   1.623   3.024
   47HOH      O  345   1.779   3.789   0.629
   47HOH     H1  346   1.725   3.837   0.691
   47HOH     H2  347   1.744   3.700   0.630
   48HOH      O  348   2.519   0.653   2.744
   48HOH     H1  349   2.448   0.695   2.792
   48HOH     H2  350   2.513   0.561   2.769
   49HOH      O  351   1.294   2.430   1.346
   49HOH     H1  352   1.200   2.443   1.338
   49HOH     H2  353   1.318   2.477   1.426
   50HOH      O  354   2.877   0.260   0.292
   50HOH     H1  355   2.839   0.344   0.267
   50HOH     H2  356   2.818   0.195   0.253
   51HOH      O  357   1.416   0.231   0.681
   51HOH     H1  358   1.402   0.259   0.772
   51HOH     H2  359   1.416   0.136   0.686
   52HOH      O  360   0.196   2.659   2.019
   52HOH     H1  361   0.202   2.584   2.077
   52HOH     H2  362   0.285   2.671   1.986
   53HOH      O  363   0.941   1.223   2.529
   53HOH     H1  364   0.989   1.304   2.514
   53HOH     H2  365   0.902   1.203   2.444
   54HOH      O  366   2.543   1.743   3.053
   54HOH     H1  367   2.575   1.829   3.077
   54HOH     H2  368   2.588   1.723   2.971
   55HOH      O  369   3.434   0.197   3.427
   55HOH     H1  370   3.459   0.257   3.357
   55HOH     H2  371   3.514   0.148   3.446
   56HOH      O  372   3.434   2.245   2.498
   56HOH     H1  373   3.523   2.232   2.466
   56HOH     H2  374   3.442   2.315   2.563
   57HOH      O  375   1.553   1.484   2.243
   57HOH     H1  376   1.616   1.548   2.209
   57HOH     H2  377   1.471   1.534   2.250
   58HOH      O  378   3.637   3.482   0.137
   58HOH     H1  379   3.586   3.473   0.218
   58HOH     H2  380   3.649   3.577   0.127
   59HOH      O  381   2.637   2.765   3.298
   59HOH     H1  382   2.560   2.778   3.243
   59HOH     H2  383   2.664   2.854   3.322
   60HOH      O  384   2.012   2.201   2.735
   60HOH     H1  385   2.039   2.187   2.826
   60HOH     H2  386   2.091   2.233   2.691
   61HOH      O  387   3.921   0.141   2.213
   61HOH     H1  388   4.009   0.117   2.186
   61HOH     H2  389   3.932   0.218   2.269
   62HOH      O  390   0.167   2.693   3.030
   62HOH     H1  391   0.217   2.628   3.079
   62HOH     H2  392   0.206   2.777   3.054
   63HOH      O  393   0.639   2.491   2.727
   63HOH     H1  394   0.656   2.585   2.736
   63HOH     H2  395   0.680   2.467   2.644
   64HOH      O  396   3.268   1.362   1.832
   64HOH     H1  397   3.196   1.334   1.888
   64HOH     H2  398   3.333   1.292   1.839
   65HOH      O  399   1.446   0.397   2.515
   65HOH     H1  400   1.382   0.464   2.540
   65HOH     H2  401   1.395   0.317   2.508
   66HOH      O  402   2.030   2.728   2.242
   66HOH     H1  403   1.996   2.656   2.189
   66HOH     H2  404   2.106   2.760   2.192
   67HOH      O  405   2.340   0.064   3.104
   67HOH     H1  406   2.303   0.140   3.059
   67HOH     H2  407   2.277  -0.006   3.089
   68HOH      O  408   2.917   0.099   1.964
   68HOH     H1  409   2.853   0.030   1.946
   68HOH     H2  410   2.994   0.052   1.997
   69HOH      O  411   1.843   1.041   1.704
   69HOH     H1  412   1.927   1.058   1.748
   69HOH     H2  413   1.805   1.128   1.691
   70HOH      O  414   2.492   1.617   3.546
   70HOH     H1  415   2.558   1.683   3.568
   70HOH     H2  416   2.536   1.534   3.563
   71HOH      O  417   2.699   3.342   0.931
   71HOH     H1  418   2.629   3.408   0.929
   71HOH     H2  419   2.713   3.320   0.839
   72HOH      O  420   0.935   3.117   3.418
   72HOH     H1  421   0.921   3.102   3.325
   72HOH     H2  422   0.995   3.047   3.445
   73HOH      O  423   2.921   1.816   0.058
   73HOH     H1  424   2.996   1.758   0.073
   73HOH     H2  425   2.925   1.836  -0.036
   74HOH      O  426   2.800   0.207   2.620
   74HOH     H1  427   2.820   0.116   2.640
   74HOH     H2  428   2.838   0.257   2.692
   75HOH      O  429   0.389   4.057   2.272
   75HOH     H1  430   0.424   3.977   2.311
   75HOH     H2  431   0.303   4.032   2.238
   76HOH      O  432   3.383   1.696   2.351
   76HOH     H1  433   3.364   1.787   2.327
   76HOH     H2  434   3.315   1.673   2.414
   77HOH      O  435   0.513   2.539   3.935
   77HOH     H1  436   0.583   2.579   3.987
   77HOH     H2  437   0.475   2.473   3.994
   78HOH      O  438   3.802   3.721   1.717
   78HOH     H1  439   3.768   3.640   1.755
   78HOH     H2  440   3.865   3.753   1.782
   79HOH      O  441   2.676   1.357   0.892
   79HOH     H1  442   2.680   1.399   0.806
   79HOH     H2  443   2.745   1.399   0.942
   80HOH      O  444   2.906   1.657   3.344
   80HOH     H1  445   2.964   1.597   3.297
   80HOH     H2  446   2.963   1.728   3.372
   81HOH      O  447   3.428   0.099   3.122
   81HOH     H1  448   3.390   0.163   3.063
   81HOH     H2  449   3.479   0.150   3.185
   82HOH      O  450   2.702   1.873   2.391
   82HOH     H1  451   2.710   1.870   2.296
   82HOH     H2  452   2.696   1.967   2.411
   83HOH      O  453   3.016   0.009   2.938
   83HOH     H1  454   3.090   0.059   2.903
   83HOH     H2  455   3.057  -0.064   2.985
   84HOH      O  456   0.195   3.155   3.007
   84HOH     H1  457   0.278   3.180   3.047
   84HOH     H2  458   0.159   3.089   3.066
   85HOH      O  459   0.821   0.438   1.673
   85HOH     H1  460   0.814   0.455   1.766
   85HOH     H2  461   0.733   0.413   1.646
   86HOH      O  462   2.581   3.036   0.784
   86HOH     H1  463   2.542   3.002   0.704
   86HOH     H2  464   2.672   3.004   0.783
   87HOH      O  465   2.345   3.595   1.564
   87HOH     H1  466   2.281   3.643   1.617
   87HOH     H2  467   2.292   3.540   1.506
   88HOH      O  468   1.605   0.872   0.916
   88HOH     H1  469   1.548   0.860   0.840
   88HOH     H2  470   1.678   0.812   0.901
   89HOH      O  471   2.515   0.041   3.317
   89HOH     H1  472   2.487   0.006   3.402
   89HOH     H2  473   2.433   0.065   3.273
   90HOH      O  474   3.655   3.250   0.401
   90HOH     H1  475   3.696   3.216   0.480
   90HOH     H2  476   3.609   3.175   0.363
   91HOH      O  477   0.080   3.538   2.199
   91HOH     H1  478   0.032   3.460   2.169
   91HOH     H2  479   0.154   3.544   2.139
   92HOH      O  480   0.685   0.308   0.288
   92HOH     H1  481   0.629   0.357   0.348
   92HOH     H2  482   0.772   0.310   0.329
   93HOH      O  483   2.848   2.847   2.737
   93HOH     H1  484   2.772   2.877   2.688
   93HOH     H2  485   2.826   2.862   2.829
   94HOH      O  486   3.436   3.895   2.764
   94HOH     H1  487   3.357   3.896   2.819
   94HOH     H2  488   3.508   3.886   2.827
   95HOH      O  489   1.602   4.031   2.818
   95HOH     H1  490   1.581   3.951   2.770
   95HOH     H2  491   1.688   4.057   2.785
   96HOH      O  492   0.819   3.599   1.488
   96HOH     H1  493   0.871   3.578   1.411
   96HOH     H2  494   0.736   3.632   1.453
   97HOH      O  495   0.893   0.537   3.778
   97HOH     H1  496   0.974   0.577   3.748
   97HOH     H2  497   0.840   0.527   3.698
   98HOH      O  498   0.525   0.580   2.379
   98HOH     H1  499   0.460   0.525   2.423
   98HOH     H2  500   0.594   0.592   2.444
   99HOH      O  501   2.315   1.960  -0.004
   99HOH     H1  502   2.315   1.876   0.044
   99HOH     H2  503   2.313   2.026   0.065
  100HOH      O  504   4.045   3.217   0.575
  100HOH     H1  505   3.957   3.185   0.596
  100HOH     H2  506   4.032   3.308   0.547
  101HOH      O  507   2.743   4.019   0.818
  101HOH     H1  508   2.701   4.104   0.829
  101HOH     H2  509   2.673   3.962   0.786
  102HOH      O  510   3.340   1.008   1.084
  102HOH     H1  511   3.419   0.955   1.086
  102HOH     H2  512   3.325   1.031   1.176
  103HOH      O  513   3.433   2.738   1.479
  103HOH     H1  514   3.491   2.740   1.402
  103HOH     H2  515   3.456   2.657   1.524
  104HOH      O  516   0.454   3.163   2.161
  104HOH     H1  517   0.374   3.214   2.170
  104HOH     H2  518   0.440   3.085   2.214
  105HOH      O  519   0.319   1.843   3.503
  105HOH     H1  520   0.363   1.782   3.444
  105HOH     H2  521   0.309   1.923   3.451
  106HOH      O  522   1.560   1.094   1.058
  106HOH     H1  523   1.595   1.034   0.993
  106HOH     H2  524   1.495   1.146   1.010
  107HOH      O  525   3.157   2.434   3.166
  107HOH     H1  526   3.106   2.506   3.129
  107HOH     H2  527   3.114   2.355   3.133
  108HOH      O  528   3.341   1.889   4.051
  108HOH     H1  529   3.413   1.827   4.039
  108HOH     H2  530   3.367   1.966   4.001
  109HOH      O  531   2.694   2.525   0.198
  109HOH     H1  532   2.765   2.540   0.137
  109HOH     H2  533   2.701   2.433   0.222
  110HOH      O  534   0.145   3.842   3.623
  110HOH     H1  535   0.129   3.912   3.686
  110HOH     H2  536   0.185   3.885   3.547
  111HOH      O  537   2.777   3.910   0.536
  111HOH     H1  538   2.752   3.885   0.625
  111HOH     H2  539   2.701   3.957   0.502
  112HOH      O  540   2.032   0.483   1.869
  112HOH     H1  541   2.120   0.518   1.856
  112HOH     H2  542   2.000   0.464   1.781
  113HOH      O  543   3.449   1.751   3.327
  113HOH     H1  544   3.374   1.796   3.286
  113HOH     H2  545   3.522   1.812   3.314
  114HOH      O  546   3.428   2.371   3.432
  114HOH     H1  547   3.434   2.462   3.462
  114HOH     H2  548   3.410   2.378   3.338
  115HOH      O  549   0.883   1.266   2.261
  115HOH     H1  550   0.928   1.219   2.190
  115HOH     H2  551   0.921   1.353   2.260
  116HOH      O  552   3.206   3.386   2.053
  116HOH     H1  553   3.261   3.337   2.114
  116HOH     H2  554   3.120   3.345   2.059
  117HOH      O  555   3.920   2.979   0.899
  117HOH     H1  556   3.941   2.947   0.812
  117HOH     H2  557   3.936   3.073   0.895
  118HOH      O  558   3.381   2.584   0.454
  118HOH     H1  559   3.314   2.516   0.459
  118HOH     H2  560   3.337   2.657   0.412
  119HOH      O  561   0.199   4.054   1.927
  119HOH     H1  562   0.289   4.033   1.901
  119HOH     H2  563   0.146   3.989   1.882
  120HOH      O  564   2.256   1.962   1.095
  120HOH     H1  565   2.338   1.984   1.139
  120HOH     H2  566   2.198   1.931   1.165
  121HOH      O  567   1.261   0.812   3.557
  121HOH     H1  568   1.315   0.742   3.594
  121HOH     H2  569   1.295   0.892   3.597
  122HOH      O  570   2.892   1.368   0.128
  122HOH     H1  571   2.856   1.282   0.104
  122HOH     H2  572   2.893   1.416   0.045
  123HOH      O  573   3.128   3.279   2.347
  123HOH     H1  574   3.089   3.205   2.394
  123HOH     H2  575   3.196   3.311   2.405
  124HOH      O  576   0.861   2.736   2.840
  124HOH     H1  577   0.877   2.784   2.759
  124HOH     H2  578   0.778   2.770   2.873
  125HOH      O  579   1.790   2.707   1.401
  125HOH     H1  580   1.702   2.724   1.367
  125HOH     H2  581   1.785   2.733   1.493
  126HOH      O  582   1.905   2.807   0.222
  126HOH     H1  583   1.901   2.903   0.218
  126HOH     H2  584   1.830   2.782   0.275
  127HOH      O  585   0.116   1.155   2.855
  127HOH     H1  586   0.127   1.223   2.922
  127HOH     H2  587   0.057   1.194   2.791
  128HOH      O  588   0.127   1.260   1.685
  128HOH     H1  589   0.112   1.225   1.773
  128HOH     H2  590   0.108   1.353   1.692
  129HOH      O  591   3.216   2.534   1.104
  129HOH     H1  592   3.209   2.513   1.011
  129HOH     H2  593   3.305   2.565   1.116
  130HOH      O  594   0.808   3.649   1.173
  130HOH     H1  595   0.828   3.559   1.147
  130HOH     H2  596   0.825   3.701   1.094
  131HOH      O  597   3.387   2.195   0.716
  131HOH     H1  598   3.474   2.235   0.727
  131HOH     H2  599   3.399   2.105   0.747
  132HOH      O  600   1.790   3.157   0.821
  132HOH     H1  601   1.874   3.203   0.815
  132HOH     H2  602   1.733   3.217   0.870
  133HOH      O  603   2.973   2.121   0.151
  133HOH     H1  604   3.009   2.166   0.074
  133HOH     H2  605   3.049   2.106   0.207
  134HOH      O  606   3.851   0.481   3.119
  134HOH     H1  607   3.928   0.480   3.061
  134HOH     H2  608   3.858   0.400   3.169
  135HOH      O  609   1.613   0.112   0.032
  135HOH     H1  610   1.567   0.178  -0.019
  135HOH     H2  611   1.548   0.080   0.095
  136HOH      O  612   1.386   3.290   3.002
  136HOH     H1  613   1.350   3.217   2.952
  136HOH     H2  614   1.480   3.274   3.006
  137HOH      O  615   3.146   2.903   2.113
  137HOH     H1  616   3.179   2.892   2.024
  137HOH     H2  617   3.083   2.832   2.125
  138HOH      O  618   0.861   3.840   0.494
  138HOH     H1  619   0.766   3.838   0.492
  138HOH     H2  620   0.887   3.747   0.487
  139HOH      O  621   3.352   2.088   3.059
  139HOH     H1  622   3.382   2.082   2.968
  139HOH     H2  623   3.261   2.116   3.052
  140HOH      O  624   1.227   0.772   3.077
  140HOH     H1  625   1.249   0.843   3.137
  140HOH     H2  626   1.148   0.802   3.032
  141HOH      O  627   0.977   0.715   0.480
  141HOH     H1  628   0.932   0.793   0.511
  141HOH     H2  629   1.011   0.673   0.559
  142HOH      O  630   2.178   0.475   1.306
  142HOH     H1  631   2.084   0.468   1.289
  142HOH     H2  632   2.191   0.567   1.328
  143HOH      O  633   1.165   0.463   1.152
  143HOH     H1  634   1.103   0.399   1.117
  143HOH     H2  635   1.205   0.419   1.227
  144HOH      O  636   1.375   1.153   2.738
  144HOH     H1  637   1.427   1.201   2.674
  144HOH     H2  638   1.306   1.111   2.687
  145HOH      O  639   3.252   0.603   0.085
  145HOH     H1  640   3.238   0.512   0.111
  145HOH     H2  641   3.228   0.654   0.162
  146HOH      O  642   2.300   1.412   2.323
  146HOH     H1  643   2.363   1.477   2.292
  146HOH     H2  644   2.260   1.451   2.401
  147HOH      O  645   0.481   2.946   1.390
  147HOH     H1  646   0.554   2.964   1.449
  147HOH     H2  647   0.522   2.928   1.306
  148HOH      O  648   0.751   1.378   3.426
  148HOH     H1  649   0.846   1.387   3.422
  148HOH     H2  650   0.724   1.439   3.495
  149HOH      O  651   3.216   1.030   3.494
  149HOH     H1  652   3.269   0.990   3.425
  149HOH     H2  653   3.252   0.996   3.575
  150HOH      O  654   1.114   2.516   0.120
  150HOH     H1  655   1.109   2.547   0.030
  150HOH     H2  656   1.083   2.425   0.116
  151HOH      O  657   1.420   1.879   0.436
  151HOH     H1  658   1.327   1.856   0.434
  151HOH     H2  659   1.422   1.968   0.470
  152HOH      O  660   2.584   3.430   3.659
  152HOH     H1  661   2.597   3.501   3.597
  152HOH     H2  662   2.491   3.406   3.649
  153HOH      O  663   1.613   2.265   2.019
  153HOH     H1  664   1.532   2.222   2.045
  153HOH     H2  665   1.673   2.194   2.000
  154HOH      O  666   0.484   1.503   2.185
  154HOH     H1  667   0.544   1.499   2.259
  154HOH     H2  668   0.539   1.531   2.111
  155HOH      O  669   0.805   2.745   1.548
  155HOH     H1  670   0.875   2.704   1.496
  155HOH     H2  671   0.729   2.688   1.535
  156HOH      O  672   1.132   2.334   1.623
  156HOH     H1  673   1.151   2.250   1.665
  156HOH     H2  674   1.197   2.394   1.658
  157HOH      O  675   2.867   1.104   3.967
  157HOH     H1  676   2.915   1.163   3.908
  157HOH     H2  677   2.784   1.089   3.923
  158HOH      O  678   3.997   2.851   1.147
  158HOH     H1  679   3.992   2.912   1.221
  158HOH     H2  680   3.955   2.898   1.075
  159HOH      O  681   2.489   3.063   2.550
  159HOH     H1  682   2.570   3.095   2.510
  159HOH     H2  683   2.487   3.103   2.637
  160HOH      O  684   2.551   0.156   0.981
  160HOH     H1  685   2.603   0.076   0.986
  160HOH     H2  686   2.573   0.204   1.061
  161HOH      O  687   1.773   3.845   1.154
  161HOH     H1  688   1.744   3.833   1.245
  161HOH     H2  689   1.794   3.756   1.124
  162HOH      O  690   0.777   2.665   3.697
  162HOH     H1  691   0.745   2.735   3.754
  162HOH     H2  692   0.697   2.623   3.664
  163HOH      O  693   3.800   2.909   3.657
  163HOH     H1  694   3.868   2.909   3.724
  163HOH     H2  695   3.846   2.926   3.575
  164HOH      O  696   2.354   2.043   2.497
  164HOH     H1  697   2.346   2.088   2.412
  164HOH     H2  698   2.267   2.005   2.511
  165HOH      O  699   3.780   0.512   0.927
  165HOH     H1  700   3.754   0.440   0.870
  165HOH     H2  701   3.818   0.469   1.004
  166HOH      O  702   2.806   0.500   0.190
  166HOH     H1  703   2.826   0.592   0.207
  166HOH     H2  704   2.870   0.474   0.123
  167HOH      O  705   1.500   1.423   3.059
  167HOH     H1  706   1.519   1.330   3.058
  167HOH     H2  707   1.490   1.444   3.152
  168HOH      O  708   1.135   2.558   0.404
  168HOH     H1  709   1.095   2.515   0.328
  168HOH     H2  710   1.197   2.621   0.366
  169HOH      O  711   2.790   2.904   1.459
  169HOH     H1  712   2.741   2.973   1.414
  169HOH     H2  713   2.775   2.921   1.552
  170HOH      O  714   0.450   3.184   3.155
  170HOH     H1  715   0.503   3.264   3.157
  170HOH     H2  716   0.467   3.143   3.240
  171HOH      O  717   0.695   0.341   0.009
  171HOH     H1  718   0.703   0.322   0.102
  171HOH     H2  719   0.646   0.423   0.005
  172HOH      O  720   2.529   3.854   0.319
  172HOH     H1  721   2.528   3.947   0.341
  172HOH     H2  722   2.460   3.844   0.253
  173HOH      O  723   0.891   2.152   3.337
  173HOH     H1  724   0.884   2.088   3.408
  173HOH     H2  725   0.818   2.131   3.278
  174HOH      O  726   0.156   2.402   1.024
  174HOH     H1  727   0.128   2.328   1.078
  174HOH     H2  728   0.249   2.413   1.044
  175HOH      O  729   0.602   1.314   3.162
  175HOH     H1  730   0.638   1.331   3.249
  175HOH     H2  731   0.521   1.265   3.178
  176HOH      O  732   3.114   2.426   0.143
  176HOH     H1  733   3.181   2.361   0.165
  176HOH     H2  734   3.060   2.433   0.221
  177HOH      O  735   3.758   1.967   1.981
  177HOH     H1  736   3.700   1.966   1.905
  177HOH     H2  737   3.792   1.877   1.987
  178HOH      O  738   3.322   2.947   2.741
  178HOH     H1  739   3.402   2.895   2.732
  178HOH     H2  740   3.259   2.904   2.683
  179HOH      O  741   1.888   0.130   3.042
  179HOH     H1  742   1.886   0.130   2.946
  179HOH     H2  743   1.951   0.198   3.065
  180HOH      O  744   3.545   3.249   3.480
  180HOH     H1  745   3.542   3.161   3.518
  180HOH     H2  746   3.458   3.262   3.443
  181HOH      O  747   1.094   1.932   0.676
  181HOH     H1  748   1.002   1.921   0.701
  181HOH     H2  749   1.119   2.018   0.712
  182HOH      O  750   1.564   2.907   0.115
  182HOH     H1  751   1.565   2.925   0.209
  182HOH     H2  752   1.646   2.944   0.083
  183HOH      O  753   1.537   2.335   3.694
  183HOH     H1  754   1.495   2.294   3.619
  183HOH     H2  755   1.630   2.320   3.681
  184HOH      O  756   0.952   3.470   1.866
  184HOH     H1  757   0.938   3.488   1.773
  184HOH     H2  758   1.047   3.460   1.874
  185HOH      O  759   2.415   3.991   3.543
  185HOH     H1  760   2.353   3.941   3.490
  185HOH     H2  761   2.453   3.927   3.603
  186HOH      O  762   1.313   0.807   2.060
  186HOH     H1  763   1.352   0.862   1.992
  186HOH     H2  764   1.219   0.823   2.053
  187HOH      O  765   1.701   1.724   1.020
  187HOH     H1  766   1.775   1.687   1.068
  187HOH     H2  767   1.738   1.754   0.937
  188HOH      O  768   2.764   1.007   3.479
  188HOH     H1  769   2.835   0.943   3.487
  188HOH     H2  770   2.685   0.958   3.501
  189HOH      O  771   3.052   1.607   0.625
  189HOH     H1  772   3.129   1.586   0.679
  189HOH     H2  773   3.086   1.607   0.535
  190HOH      O  774   3.132   1.282   3.254
  190HOH     H1  775   3.108   1.253   3.341
  190HOH     H2  776   3.050   1.311   3.214
  191HOH      O  777   3.404   3.818   0.994
  191HOH     H1  778   3.348   3.740   0.991
  191HOH     H2  779   3.348   3.886   1.031
  192HOH      O  780   3.718   3.512   0.794
  192HOH     H1  781   3.703   3.597   0.837
  192HOH     H2  782   3.724   3.533   0.701
  193HOH      O  783   2.149   0.542   3.844
  193HOH     H1  784   2.177   0.595   3.769
  193HOH     H2  785   2.078   0.592   3.883
  194HOH      O  786   2.794   2.368   3.043
  194HOH     H1  787   2.752   2.346   3.125
  194HOH     H2  788   2.758   2.454   3.020
  195HOH      O  789   2.580   2.379   3.591
  195HOH     H1  790   2.523   2.302   3.581
  195HOH     H2  791   2.643   2.353   3.658
  196HOH      O  792   0.278   3.188   0.622
  196HOH     H1  793   0.188   3.162   0.604
  196HOH     H2  794   0.276   3.222   0.712
  197HOH      O  795   2.894   3.083   2.255
  197HOH     H1  796   2.961   3.015   2.265
  197HOH     H2  797   2.933   3.146   2.193
  198HOH      O  798   0.343   3.544   2.063
  198HOH     H1  799   0.368   3.628   2.024
  198HOH     H2  800   0.411   3.526   2.127
  199HOH      O  801   3.671   2.398   3.946
  199HOH     H1  802   3.710   2.325   3.898
  199HOH     H2  803   3.586   2.412   3.903
  200HOH      O  804   1.072   0.862   1.873
  200HOH     H1  805   1.058   0.768   1.858
  200HOH     H2  806   0.992   0.891   1.916
  201HOH      O  807   3.249   1.309   3.667
  201HOH     H1  808   3.264   1.403   3.655
  201HOH     H2  809   3.286   1.269   3.587
  202HOH      O  810   2.387   3.587   1.906
  202HOH     H1  811   2.311   3.596   1.849
  202HOH     H2  812   2.350   3.587   1.995
  203HOH      O  813   2.960   1.906   3.135
  203HOH     H1  814   2.899   1.866   3.072
  203HOH     H2  815   2.980   1.835   3.196
  204HOH      O  816   2.457   2.433   3.007
  204HOH     H1  817   2.392   2.413   2.939
  204HOH     H2  818   2.448   2.361   3.069
  205HOH      O  819   1.366   2.672   2.708
  205HOH     H1  820   1.346   2.579   2.713
  205HOH     H2  821   1.454   2.680   2.744
  206HOH      O  822   0.847   2.775   0.437
  206HOH     H1  823   0.867   2.818   0.354
  206HOH     H2  824   0.764   2.730   0.420
  207HOH      O  825   1.171   3.108   3.805
  207HOH     H1  826   1.111   3.178   3.830
  207HOH     H2  827   1.192   3.126   3.713
  208HOH      O  828   2.696   3.288   1.456
  208HOH     H1  829   2.615   3.329   1.489
  208HOH     H2  830   2.684   3.288   1.361
  209HOH      O  831   1.223   2.395   3.720
  209HOH     H1  832   1.228   2.488   3.697
  209HOH     H2  833   1.278   2.351   3.656
  210HOH      O  834   1.228   0.216   2.127
  210HOH     H1  835   1.312   0.178   2.152
  210HOH     H2  836   1.210   0.281   2.195
  211HOH      O  837   3.902   0.353   1.102
  211HOH     H1  838   3.997   0.359   1.116
  211HOH     H2  839   3.870   0.299   1.174
  212HOH      O  840   0.520   1.819   3.945
  212HOH     H1  841   0.451   1.757   3.920
  212HOH     H2  842   0.542   1.794   4.035
  213HOH      O  843   0.755   2.272   1.164
  213HOH     H1  844   0.772   2.366   1.151
  213HOH     H2  845   0.733   2.265   1.257
  214HOH      O  846   1.736   1.866   1.705
  214HOH     H1  847   1.695   1.859   1.791
  214HOH     H2  848   1.663   1.869   1.643
  215HOH      O  849   1.586   1.404   0.599
  215HOH     H1  850   1.540   1.487   0.591
  215HOH     H2  851   1.656   1.420   0.662
  216HOH      O  852   3.444   3.915   2.482
  216HOH     H1  853   3.361   3.925   2.437
  216HOH     H2  854   3.423   3.921   2.575
  217HOH      O  855   3.972   2.863   1.588
  217HOH     H1  856   3.910   2.807   1.634
  217HOH     H2  857   4.041   2.804   1.558
  218HOH      O  858   3.052   2.681   3.106
  218HOH     H1  859   3.122   2.694   3.042
  218HOH     H2  860   3.022   2.769   3.127
  219HOH      O  861   3.762   2.749   1.745
  219HOH     H1  862   3.675   2.769   1.781
  219HOH     H2  863   3.746   2.679   1.682
  220HOH      O  864   2.172   3.634   0.406
  220HOH     H1  865   2.181   3.550   0.361
  220HOH     H2  866   2.082   3.662   0.387
  221HOH      O  867   0.057   3.572   2.670
  221HOH     H1  868  -0.008   3.508   2.642
  221HOH     H2  869   0.089   3.611   2.589
  222HOH      O  870   0.400   0.760   1.647
  222HOH     H1  871   0.488   0.746   1.681
  222HOH     H2  872   0.351   0.798   1.720
  223HOH      O  873   2.633   0.266   0.554
  223HOH     H1  874   2.579   0.278   0.632
  223HOH     H2  875   2.715   0.310   0.574
  224HOH      O  876   1.021   1.124   2.049
  224HOH     H1  877   0.980   1.045   2.013
  224HOH     H2  878   1.084   1.091   2.113
  225HOH      O  879   2.183   2.546   0.497
  225HOH     H1  880   2.116   2.479   0.510
  225HOH     H2  881   2.153   2.597   0.422
  226HOH      O  882   3.986   2.238   1.809
  226HOH     H1  883   3.952   2.221   1.896
  226HOH     H2  884   4.022   2.327   1.814
  227HOH      O  885  -0.004   1.248   1.102
  227HOH     H1  886  -0.031   1.338   1.088
  227HOH     H2  887   0.090   1.253   1.119
  228HOH      O  888   1.872   1.506   2.003
  228HOH     H1  889   1.925   1.447   1.948
  228HOH     H2  890   1.933   1.574   2.030
  229HOH      O  891   1.990   1.997   0.975
  229HOH     H1  892   2.081   1.969   0.965
  229HOH     H2  893   1.976   1.996   1.070
  230HOH      O  894   1.322   3.024   0.399
  230HOH     H1  895   1.282   3.110   0.382
  230HOH     H2  896   1.315   3.013   0.493
  231HOH      O  897   1.083   1.800   3.347
  231HOH     H1  898   1.036   1.841   3.419
  231HOH     H2  899   1.125   1.872   3.301
  232HOH      O  900   0.610   0.455   0.725
  232HOH     H1  901   0.563   0.377   0.755
  232HOH     H2  902   0.604   0.451   0.629
  233HOH      O  903   2.666   1.810   1.277
  233HOH     H1  904   2.583   1.858   1.277
  233HOH     H2  905   2.733   1.878   1.290
  234HOH      O  906   3.565   2.833   3.811
  234HOH     H1  907   3.604   2.834   3.898
  234HOH     H2  908   3.613   2.900   3.762
  235HOH      O  909   2.776   0.883   0.789
  235HOH     H1  910   2.843   0.926   0.736
  235HOH     H2  911   2.703   0.945   0.791
  236HOH      O  912   1.308   1.449   1.978
  236HOH     H1  913   1.282   1.360   2.001
  236HOH     H2  914   1.403   1.448   1.978
  237HOH      O  915   0.415   2.943   2.315
  237HOH     H1  916   0.416   2.980   2.403
  237HOH     H2  917   0.376   2.856   2.326
  238HOH      O  918   0.229   3.983   3.431
  238HOH     H1  919   0.193   4.039   3.362
  238HOH     H2  920   0.323   3.993   3.423
  239HOH      O  921   2.952   3.760   2.868
  239HOH     H1  922   3.042   3.772   2.839
  239HOH     H2  923   2.955   3.778   2.962
  240HOH      O  924   3.708   3.037   2.095
  240HOH     H1  925   3.771   3.058   2.026
  240HOH     H2  926   3.732   2.950   2.124
  241HOH      O  927   1.242   2.985   0.671
  241HOH     H1  928   1.257   2.988   0.765
  241HOH     H2  929   1.153   2.949   0.662
  242HOH      O  930   1.543   0.569   0.076
  242HOH     H1  931   1.627   0.605   0.103
  242HOH     H2  932   1.494   0.644   0.043
  243HOH      O  933   2.924   2.312   0.833
  243HOH     H1  934   2.845   2.358   0.808
  243HOH     H2  935   2.893   2.232   0.875
  244HOH      O  936   0.569   0.721   2.161
  244HOH     H1  937   0.543   0.676   2.241
  244HOH     H2  938   0.549   0.659   2.091
  245HOH      O  939   2.843   3.265   0.673
  245HOH     H1  940   2.903   3.190   0.683
  245HOH     H2  941   2.820   3.263   0.580
  246HOH      O  942   3.462   3.690   3.539
  246HOH     H1  943   3.519   3.697   3.616
  246HOH     H2  944   3.408   3.613   3.557
  247HOH      O  945   0.296   1.819   2.140
  247HOH     H1  946   0.389   1.820   2.119
  247HOH     H2  947   0.265   1.906   2.117
  248HOH      O  948   3.865   4.021   1.443
  248HOH     H1  949   3.780   3.996   1.478
  248HOH     H2  950   3.922   3.946   1.462
  249HOH      O  951   3.528   2.839   0.148
  249HOH     H1  952   3.533   2.766   0.211
  249HOH     H2  953   3.598   2.822   0.086
  250HOH      O  954   2.766   3.115   2.514
  250HOH     H1  955   2.769   3.115   2.419
  250HOH     H2  956   2.853   3.088   2.541
  251HOH      O  957   0.374   1.465   0.450
  251HOH     H1  958   0.400   1.396   0.511
  251HOH     H2  959   0.451   1.522   0.445
  252HOH      O  960   1.894   3.630   0.363
  252HOH     H1  961   1.894   3.725   0.367
  252HOH     H2  962   1.805   3.608   0.334
  253HOH      O  963   0.456   1.912   1.423
  253HOH     H1  964   0.543   1.907   1.383
  253HOH     H2  965   0.420   1.824   1.413
  254HOH      O  966   1.595   1.228   0.384
  254HOH     H1  967   1.686   1.206   0.403
  254HOH     H2  968   1.570   1.288   0.455
  255HOH      O  969   3.805   0.884   2.383
  255HOH     H1  970   3.797   0.879   2.479
  255HOH     H2  971   3.806   0.793   2.355
  256HOH      O  972   0.142   3.748   0.876
  256HOH     H1  973   0.229   3.759   0.915
  256HOH     H2  974   0.084   3.739   0.951
  257HOH      O  975   1.865   0.991   2.068
  257HOH     H1  976   1.907   0.929   2.127
  257HOH     H2  977   1.924   0.995   1.992
  258HOH      O  978   0.089   0.198   3.447
  258HOH     H1  979   0.076   0.128   3.511
  258HOH     H2  980   0.149   0.259   3.490
  259HOH      O  981   0.824   0.156   0.529
  259HOH     H1  982   0.869   0.238   0.513
  259HOH     H2  983   0.883   0.089   0.496
  260HOH      O  984   1.105   0.693   3.361
  260HOH     H1  985   1.133   0.711   3.271
  260HOH     H2  986   1.165   0.744   3.415
  261HOH      O  987   3.853   3.786   2.859
  261HOH     H1  988   3.867   3.718   2.925
  261HOH     H2  989   3.941   3.812   2.832
  262HOH      O  990   1.968   3.375   0.816
  262HOH     H1  991   2.021   3.305   0.778
  262HOH     H2  992   2.010   3.394   0.900
  263HOH      O  993   2.085   4.006   2.147
  263HOH     H1  994   2.004   3.962   2.174
  263HOH     H2  995   2.092   3.988   2.053
  264HOH      O  996   2.666   0.789   2.102
  264HOH     H1  997   2.747   0.769   2.056
  264HOH     H2  998   2.599   0.791   2.033
  265HOH      O  999   3.425   3.982   2.030
  265HOH     H1 1000   3.485   4.027   2.089
  265HOH     H2 1001   3.442   3.889   2.044
  266HOH      O 1002   3.064   2.490   3.447
  266HOH     H1 1003   3.112   2.474   3.366
  266HOH     H2 1004   2.973   2.466   3.426
  267HOH      O 1005   1.568  -0.014   2.510
  267HOH     H1 1006   1.499  -0.058   2.461
  267HOH     H2 1007   1.536   0.075   2.522
  268HOH      O 1008   2.177   3.164   0.758
  268HOH     H1 1009   2.220   3.099   0.813
  268HOH     H2 1010   2.216   3.151   0.671
  269HOH      O 1011   1.441   2.143   0.510
  269HOH     H1 1012   1.460   2.232   0.480
  269HOH     H2 1013   1.448   2.148   0.605
  270HOH      O 1014   1.614   2.357   3.101
  270HOH     H1 1015   1.709   2.345   3.106
  270HOH     H2 1016   1.578   2.269   3.101
  271HOH      O 1017   2.829   3.754   3.813
  271HOH     H1 1018   2.874   3.820   3.865
  271HOH     H2 1019   2.893   3.725   3.749
  272HOH      O 1020   2.347   3.798   0.527
  272HOH     H1 1021   2.279   3.760   0.472
  272HOH     H2 1022   2.427   3.791   0.474
  273HOH      O 1023   2.771   1.757   1.912
  273HOH     H1 1024   2.743   1.828   1.970
  273HOH     H2 1025   2.756   1.678   1.964
  274HOH      O 1026   0.646   2.949   1.835
  274HOH     H1 1027   0.561   2.906   1.826
  274HOH     H2 1028   0.699   2.886   1.885
  275HOH      O 1029   3.613   2.074   1.212
  275HOH     H1 1030   3.542   2.134   1.189
  275HOH     H2 1031   3.693   2.125   1.199
  276HOH      O 1032   3.690   1.027   2.912
  276HOH     H1 1033   3.689   1.121   2.899
  276HOH     H2 1034   3.763   1.012   2.973
  277HOH      O 1035   1.024   0.320   3.939
  277HOH     H1 1036   0.953   0.344   3.881
  277HOH     H2 1037   0.994   0.347   4.026
  278HOH      O 1038   3.610   3.951   1.182
  278HOH     H1 1039   3.585   3.916   1.097
  278HOH     H2 1040   3.604   4.046   1.172
  279HOH      O 1041   3.047   1.049   1.019
  279HOH     H1 1042   3.126   1.001   1.045
  279HOH     H2 1043   2.983   1.029   1.087
  280HOH      O 1044   1.412   0.922   1.826
  280HOH     H1 1045   1.461   0.993   1.784
  280HOH     H2 1046   1.334   0.911   1.771
  281HOH      O 1047   2.112   0.644   2.632
  281HOH     H1 1048   2.140   0.565   2.585
  281HOH     H2 1049   2.162   0.715   2.592
  282HOH      O 1050   3.898   1.188   0.555
  282HOH     H1 1051   3.857   1.143   0.629
  282HOH     H2 1052   3.984   1.214   0.587
  283HOH      O 1053   1.804   1.269   1.514
  283HOH     H1 1054   1.832   1.189   1.470
  283HOH     H2 1055   1.764   1.322   1.445
  284HOH      O 1056   1.377   3.521   3.431
  284HOH     H1 1057   1.382   3.438   3.384
  284HOH     H2 1058   1.315   3.574   3.380
  285HOH      O 1059   3.552   2.284   1.959
  285HOH     H1 1060   3.531   2.336   1.882
  285HOH     H2 1061   3.625   2.330   2.000
  286HOH      O 1062   3.113   2.184   3.939
  286HOH     H1 1063   3.206   2.192   3.958
  286HOH     H2 1064   3.109   2.150   3.850
  287HOH      O 1065   0.419   0.670   2.863
  287HOH     H1 1066   0.384   0.711   2.783
  287HOH     H2 1067   0.507   0.707   2.872
  288HOH      O 1068   0.314   0.014   2.653
  288HOH     H1 1069   0.382  -0.014   2.713
  288HOH     H2 1070   0.354   0.085   2.603
  289HOH      O 1071   2.632   1.211   0.088
  289HOH     H1 1072   2.562   1.167   0.138
  289HOH     H2 1073   2.625   1.174   0.000
  290HOH      O 1074   3.630   3.893   2.962
  290HOH     H1 1075   3.715   3.862   2.929
  290HOH     H2 1076   3.649   3.924   3.050
  291HOH      O 1077   0.836   0.919   3.183
  291HOH     H1 1078   0.822   0.835   3.226
  291HOH     H2 1079   0.846   0.981   3.254
  292HOH      O 1080   2.227   1.506   2.064
  292HOH     H1 1081   2.177   1.567   2.117
  292HOH     H2 1082   2.234   1.427   2.118
  293HOH      O 1083   2.463   1.329   1.217
  293HOH     H1 1084   2.470   1.420   1.246
  293HOH     H2 1085   2.550   1.291   1.236
  294HOH      O 1086   0.221   2.746   0.829
  294HOH     H1 1087   0.137   2.735   0.783
  294HOH     H2 1088   0.211   2.829   0.876
  295HOH      O 1089   3.137   3.524   1.824
  295HOH     H1 1090   3.080   3.453   1.793
  295HOH     H2 1091   3.187   3.484   1.895
  296HOH      O 1092   0.811   1.445   1.656
  296HOH     H1 1093   0.864   1.390   1.713
  296HOH     H2 1094   0.755   1.383   1.608
  297HOH      O 1095   1.018   1.450   3.414
  297HOH     H1 1096   1.061   1.415   3.335
  297HOH     H2 1097   1.087   1.497   3.460
  298HOH      O 1098   2.325   1.586   3.818
  298HOH     H1 1099   2.289   1.589   3.730
  298HOH     H2 1100   2.397   1.523   3.812
  299HOH      O 1101   1.447   0.709   2.283
  299HOH     H1 1102   1.422   0.720   2.191
  299HOH     H2 1103   1.409   0.784   2.328
  300HOH      O 1104   3.887   0.426   0.019
  300HOH     H1 1105   3.974   0.410  -0.018
  300HOH     H2 1106   3.894   0.399   0.110
  301HOH      O 1107   1.767   1.988   0.823
  301HOH     H1 1108   1.852   2.007   0.862
  301HOH     H2 1109   1.785   1.987   0.729
  302HOH      O 1110   0.614   2.830   2.165
  302HOH     H1 1111   0.681   2.816   2.233
  302HOH     H2 1112   0.546   2.880   2.209
  303HOH      O 1113   1.507   0.385   3.046
  303HOH     H1 1114   1.565   0.396   2.971
  303HOH     H2 1115   1.564   0.354   3.116
  304HOH      O 1116   0.924   4.004   0.835
  304HOH     H1 1117   0.988   4.025   0.767
  304HOH     H2 1118   0.867   4.081   0.840
  305HOH      O 1119   2.924   2.219   2.840
  305HOH     H1 1120   2.861   2.277   2.883
  305HOH     H2 1121   2.869   2.161   2.786
  306HOH      O 1122   3.181   1.678   0.086
  306HOH     H1 1123   3.235   1.601   0.066
  306HOH     H2 1124   3.227   1.751   0.045
  307HOH      O 1125   1.801   3.504   0.606
  307HOH     H1 1126   1.838   3.555   0.534
  307HOH     H2 1127   1.877   3.476   0.657
  308HOH      O 1128   2.320   2.176   0.542
  308HOH     H1 1129   2.304   2.199   0.634
  308HOH     H2 1130   2.296   2.083   0.537
  309HOH      O 1131   3.538   1.928   3.713
  309HOH     H1 1132   3.530   1.965   3.801
  309HOH     H2 1133   3.530   2.003   3.654
  310HOH      O 1134   0.689   0.176   2.595
  310HOH     H1 1135   0.757   0.239   2.621
  310HOH     H2 1136   0.658   0.138   2.677
  311HOH      O 1137   0.236   0.311   0.884
  311HOH     H1 1138   0.230   0.391   0.830
  311HOH     H2 1139   0.327   0.283   0.874
  312HOH      O 1140   3.681   0.475   1.717
  312HOH     H1 1141   3.758   0.494   1.771
  312HOH     H2 1142   3.666   0.555   1.667
  313HOH      O 1143   2.520   2.473   1.584
  313HOH     H1 1144   2.463   2.414   1.632
  313HOH     H2 1145   2.592   2.491   1.644
  314HOH      O 1146   0.556   2.993   3.386
  314HOH     H1 1147   0.611   2.949   3.320
  314HOH     H2 1148   0.544   2.927   3.455
  315HOH      O 1149   2.898   1.780   2.873
  315HOH     H1 1150   2.917   1.819   2.788
  315HOH     H2 1151   2.814   1.735   2.861
  316HOH      O 1152   3.703   0.451   2.158
  316HOH     H1 1153   3.720   0.535   2.115
  316HOH     H2 1154   3.611   0.433   2.137
  317HOH      O 1155   2.176   3.745   1.397
  317HOH     H1 1156   2.159   3.831   1.358
  317HOH     H2 1157   2.267   3.748   1.425
  318HOH      O 1158   3.969   0.989   3.034
  318HOH     H1 1159   4.051   0.947   3.058
  318HOH     H2 1160   3.939   1.032   3.114
  319HOH      O 1161   3.963   2.905   0.193
  319HOH     H1 1162   3.908   2.921   0.270
  319HOH     H2 1163   3.941   2.817   0.165
  320HOH      O 1164   1.536   2.846   0.812
  320HOH     H1 1165   1.557   2.925   0.762
  320HOH     H2 1166   1.455   2.814   0.771
  321HOH      O 1167   3.145   1.559   3.234
  321HOH     H1 1168   3.189   1.478   3.260
  321HOH     H2 1169   3.158   1.562   3.139
  322HOH      O 1170   2.886   0.537   2.571
  322HOH     H1 1171   2.872   0.501   2.658
  322HOH     H2 1172   2.811   0.506   2.520
  323HOH      O 1173   2.891   0.980   3.144
  323HOH     H1 1174   2.945   1.052   3.110
  323HOH     H2 1175   2.802   1.001   3.115
  324HOH      O 1176   1.607   1.762   1.481
  324HOH     H1 1177   1.543   1.705   1.438
  324HOH     H2 1178   1.644   1.813   1.409
  325HOH      O 1179   3.581   2.419   2.247
  325HOH     H1 1180   3.632   2.465   2.181
  325HOH     H2 1181   3.503   2.387   2.201
  326HOH      O 1182   3.926   1.921   2.470
  326HOH     H1 1183   3.987   1.859   2.429
  326HOH     H2 1184   3.947   1.917   2.563
  327HOH      O 1185   2.114   0.798   3.161
  327HOH     H1 1186   2.172   0.871   3.184
  327HOH     H2 1187   2.062   0.831   3.088
  328HOH      O 1188   3.509   2.703   2.152
  328HOH     H1 1189   3.438   2.734   2.208
  328HOH     H2 1190   3.577   2.771   2.158
  329HOH      O 1191   3.718   0.835   2.660
  329HOH     H1 1192   3.625   0.821   2.676
  329HOH     H2 1193   3.743   0.902   2.724
  330HOH      O 1194   1.461   1.586   0.306
  330HOH     H1 1195   1.473   1.637   0.225
  330HOH     H2 1196   1.483   1.647   0.376
  331HOH      O 1197   2.618   2.161   0.177
  331HOH     H1 1198   2.588   2.176   0.087
  331HOH     H2 1199   2.544   2.117   0.220
  332HOH      O 1200   3.851   1.946   0.870
  332HOH     H1 1201   3.833   2.004   0.944
  332HOH     H2 1202   3.944   1.957   0.852
  333HOH      O 1203   3.777   2.603   3.594
  333HOH     H1 1204   3.855   2.560   3.629
  333HOH     H2 1205   3.783   2.693   3.627
  334HOH      O 1206   3.245   0.771   0.831
  334HOH     H1 1207   3.320   0.743   0.882
  334HOH     H2 1208   3.182   0.698   0.837
  335HOH      O 1209   0.591   0.977   1.956
  335HOH     H1 1210   0.614   1.057   1.908
  335HOH     H2 1211   0.523   1.004   2.016
  336HOH      O 1212   2.703   2.300   3.330
  336HOH     H1 1213   2.761   2.375   3.315
  336HOH     H2 1214   2.679   2.307   3.422
  337HOH      O 1215   0.048   0.419   2.574
  337HOH     H1 1216  -0.030   0.380   2.535
  337HOH     H2 1217   0.016   0.496   2.621
  338HOH      O 1218   0.955   0.331   2.512
  338HOH     H1 1219   1.034   0.291   2.549
  338HOH     H2 1220   0.956   0.303   2.420
  339HOH      O 1221   0.798   1.660   2.132
  339HOH     H1 1222   0.744   1.643   2.209
  339HOH     H2 1223   0.747   1.625   2.059
  340HOH      O 1224   3.170   3.152   2.963
  340HOH     H1 1225   3.226   3.111   3.030
  340HOH     H2 1226   3.226   3.160   2.886
  341HOH      O 1227   1.190   2.024   3.877
  341HOH     H1 1228   1.142   2.000   3.957
  341HOH     H2 1229   1.233   2.106   3.899
  342HOH      O 1230   2.693   3.498   0.636
  342HOH     H1 1231   2.629   3.496   0.565
  342HOH     H2 1232   2.755   3.429   0.615
  343HOH      O 1233   0.908   3.623   2.895
  343HOH     H1 1234   0.834   3.653   2.948
  343HOH     H2 1235   0.921   3.532   2.921
  344HOH      O 1236   3.716   1.256   3.170
  344HOH     H1 1237   3.715   1.272   3.076
  344HOH     H2 1238   3.750   1.167   3.179
  345HOH      O 1239   2.569   0.576   1.232
  345HOH     H1 1240   2.476   0.564   1.215
  345HOH     H2 1241   2.604   0.615   1.151
  346HOH      O 1242   2.054   0.963   1.079
  346HOH     H1 1243   2.082   1.052   1.099
  346HOH     H2 1244   2.045   0.961   0.984
  347HOH      O 1245   1.490   1.550   1.747
  347HOH     H1 1246   1.511   1.633   1.792
  347HOH     H2 1247   1.574   1.513   1.724
  348HOH      O 1248   2.027   3.956   3.434
  348HOH     H1 1249   1.961   3.903   3.389
  348HOH     H2 1250   1.995   4.046   3.425
  349HOH      O 1251   0.028   2.583   1.216
  349HOH     H1 1252   0.077   2.545   1.143
  349HOH     H2 1253   0.021   2.676   1.195
  350HOH      O 1254   3.972   2.634   0.135
  350HOH     H1 1255   3.969   2.652   0.041
  350HOH     H2 1256   3.938   2.545   0.144
  351HOH      O 1257   2.956   3.515   1.073
  351HOH     H1 1258   2.908   3.500   1.155
  351HOH     H2 1259   2.890   3.548   1.012
  352HOH      O 1260   0.189   0.253   2.310
  352HOH     H1 1261   0.257   0.282   2.251
  352HOH     H2 1262   0.167   0.164   2.280
  353HOH      O 1263   1.048   2.681   3.634
  353HOH     H1 1264   0.956   2.690   3.655
  353HOH     H2 1265   1.056   2.593   3.597
  354HOH      O 1266   2.674   1.145   3.258
  354HOH     H1 1267   2.583   1.154   3.286
  354HOH     H2 1268   2.718   1.101   3.331
  355HOH      O 1269   0.656   1.093   0.167
  355HOH     H1 1270   0.661   1.161   0.234
  355HOH     H2 1271   0.703   1.130   0.092
  356HOH      O 1272   1.036   2.466   1.406
  356HOH     H1 1273   1.058   2.415   1.484
  356HOH     H2 1274   0.971   2.412   1.360
  357HOH      O 1275   0.309   0.530   0.752
  357HOH     H1 1276   0.308   0.615   0.796
  357HOH     H2 1277   0.401   0.503   0.756
  358HOH      O 1278   2.105   3.406   1.057
  358HOH     H1 1279   2.056   3.423   1.138
  358HOH     H2 1280   2.189   3.370   1.087
  359HOH      O 1281   0.117   1.388   3.025
  359HOH     H1 1282   0.049   1.448   3.058
  359HOH     H2 1283   0.178   1.379   3.098
  360HOH      O 1284   3.242   3.922   0.483
  360HOH     H1 1285   3.189   3.941   0.560
  360HOH     H2 1286   3.178   3.902   0.414
  361HOH      O 1287   0.789   2.206   0.118
  361HOH     H1 1288   0.735   2.162   0.053
  361HOH     H2 1289   0.877   2.207   0.080
  362HOH      O 1290   2.768   3.735   0.216
  362HOH     H1 1291   2.746   3.650   0.254
  362HOH     H2 1292   2.683   3.780   0.208
  363HOH      O 1293   3.063   2.361   2.192
  363HOH     H1 1294   3.122   2.293   2.225
  363HOH     H2 1295   3.006   2.315   2.130
  364HOH      O 1296   1.769   0.630   2.015
  364HOH     H1 1297   1.734   0.692   1.952
  364HOH     H2 1298   1.833   0.578   1.965
  365HOH      O 1299   0.382   0.329   2.116
  365HOH     H1 1300   0.314   0.391   2.091
  365HOH     H2 1301   0.376   0.259   2.050
  366HOH      O 1302   0.588   2.341   2.950
  366HOH     H1 1303   0.587   2.408   2.882
  366HOH     H2 1304   0.681   2.328   2.969
  367HOH      O 1305   1.212   0.456   3.034
  367HOH     H1 1306   1.205   0.549   3.054
  367HOH     H2 1307   1.302   0.445   3.001
  368HOH      O 1308   2.664   1.731   1.014
  368HOH     H1 1309   2.710   1.648   1.004
  368HOH     H2 1310   2.659   1.744   1.109
  369HOH      O 1311   2.344   0.476   3.036
  369HOH     H1 1312   2.403   0.404   3.019
  369HOH     H2 1313   2.343   0.484   3.132
  370HOH      O 1314   0.946   3.393   3.579
  370HOH     H1 1315   0.874   3.456   3.583
  370HOH     H2 1316   0.910   3.319   3.531
  371HOH      O 1317   1.715   0.415   1.002
  371HOH     H1 1318   1.660   0.341   1.027
  371HOH     H2 1319   1.791   0.375   0.959
  372HOH      O 1320   2.560   1.116   0.931
  372HOH     H1 1321   2.605   1.191   0.893
  372HOH     H2 1322   2.540   1.143   1.021
  373HOH      O 1323   3.860   2.180   0.199
  373HOH     H1 1324   3.951   2.195   0.175
  373HOH     H2 1325   3.862   2.098   0.249
  374HOH      O 1326   1.217   3.110   1.621
  374HOH     H1 1327   1.177   3.194   1.642
  374HOH     H2 1328   1.164   3.075   1.549
  375HOH      O 1329   2.351   2.925   0.132
  375HOH     H1 1330   2.390   2.840   0.154
  375HOH     H2 1331   2.362   2.932   0.037
  376HOH      O 1332   0.272   1.309   0.903
  376HOH     H1 1333   0.239   1.297   0.992
  376HOH     H2 1334   0.212   1.373   0.864
  377HOH      O 1335   0.436   3.731   2.651
  377HOH     H1 1336   0.395   3.798   2.707
  377HOH     H2 1337   0.528   3.733   2.676
  378HOH      O 1338   2.903   0.718   1.981
  378HOH     H1 1339   2.927   0.630   1.953
  378HOH     H2 1340   2.976   0.747   2.036
  379HOH      O 1341   3.611   2.279   2.737
  379HOH     H1 1342   3.649   2.234   2.812
  379HOH     H2 1343   3.678   2.275   2.669
  380HOH      O 1344   3.604   1.881   1.488
  380HOH     H1 1345   3.520   1.916   1.459
  380HOH     H2 1346   3.581   1.810   1.548
  381HOH      O 1347   3.026   0.616   0.580
  381HOH     H1 1348   2.993   0.679   0.516
  381HOH     H2 1349   3.034   0.666   0.661
  382HOH      O 1350   2.505   1.695   0.433
  382HOH     H1 1351   2.584   1.644   0.453
  382HOH     H2 1352   2.497   1.756   0.506
  383HOH      O 1353   3.483   3.329   0.656
  383HOH     H1 1354   3.507   3.364   0.571
  383HOH     H2 1355   3.462   3.237   0.638
  384HOH      O 1356   3.569   0.937   1.803
  384HOH     H1 1357   3.531   0.906   1.885
  384HOH     H2 1358   3.660   0.959   1.825
  385HOH      O 1359   1.349   0.321   0.945
  385HOH     H1 1360   1.300   0.239   0.944
  385HOH     H2 1361   1.419   0.306   1.008
  386HOH      O 1362   0.858   2.840   2.300
  386HOH     H1 1363   0.941   2.799   2.278
  386HOH     H2 1364   0.881   2.929   2.327
  387HOH      O 1365   3.088   0.765   2.249
  387HOH     H1 1366   3.087   0.737   2.341
  387HOH     H2 1367   3.091   0.861   2.253
  388HOH      O 1368   3.222   3.607   3.216
  388HOH     H1 1369   3.300   3.662   3.208
  388HOH     H2 1370   3.217   3.560   3.133
  389HOH      O 1371   1.252   3.302   0.947
  389HOH     H1 1372   1.191   3.245   0.995
  389HOH     H2 1373   1.268   3.375   1.006
  390HOH      O 1374   3.381   0.224   1.046
  390HOH     H1 1375   3.465   0.214   1.091
  390HOH     H2 1376   3.330   0.281   1.103
  391HOH      O 1377   3.332   1.250   0.681
  391HOH     H1 1378   3.240   1.248   0.654
  391HOH     H2 1379   3.376   1.298   0.611
  392HOH      O 1380   1.713   0.209   0.560
  392HOH     H1 1381   1.637   0.251   0.519
  392HOH     H2 1382   1.751   0.278   0.614
  393HOH      O 1383   3.498   3.430   2.747
  393HOH     H1 1384   3.584   3.392   2.766
  393HOH     H2 1385   3.516   3.522   2.728
  394HOH      O 1386  -0.015   0.535   2.931
  394HOH     H1 1387  -0.018   0.576   2.844
  394HOH     H2 1388   0.070   0.562   2.966
  395HOH      O 1389   3.352   2.949   2.285
  395HOH     H1 1390   3.287   2.949   2.215
  395HOH     H2 1391   3.304   2.920   2.362
  396HOH      O 1392   2.018   3.750   0.772
  396HOH     H1 1393   1.939   3.762   0.719
  396HOH     H2 1394   1.986   3.723   0.858
  397HOH      O 1395   3.696   2.198   2.407
  397HOH     H1 1396   3.696   2.277   2.353
  397HOH     H2 1397   3.683   2.126   2.346
  398HOH      O 1398   3.577   0.845   1.072
  398HOH     H1 1399   3.624   0.842   0.988
  398HOH     H2 1400   3.554   0.754   1.090
  399HOH      O 1401   2.611   3.711   1.249
  399HOH     H1 1402   2.681   3.650   1.273
  399HOH     H2 1403   2.530   3.663   1.263
  400HOH      O 1404   3.177   2.389   2.734
  400HOH     H1 1405   3.092   2.420   2.766
  400HOH     H2 1406   3.157   2.349   2.649
  401HOH      O 1407   2.733   3.039   3.303
  401HOH     H1 1408   2.735   3.059   3.397
  401HOH     H2 1409   2.698   3.119   3.263
  402HOH      O 1410   1.381   3.765   1.246
  402HOH     H1 1411   1.460   3.793   1.292
  402HOH     H2 1412   1.367   3.831   1.178
  403HOH      O 1413   2.483   1.177   1.957
  403HOH     H1 1414   2.437   1.256   1.928
  403HOH     H2 1415   2.476   1.118   1.882
  404HOH      O 1416   1.154   0.679   2.783
  404HOH     H1 1417   1.248   0.665   2.797
  404HOH     H2 1418   1.114   0.661   2.868
  405HOH      O 1419   3.322   3.352   0.919
  405HOH     H1 1420   3.364   3.362   0.833
  405HOH     H2 1421   3.390   3.379   0.982
  406HOH      O 1422   2.240   2.663   0.789
  406HOH     H1 1423   2.169   2.613   0.749
  406HOH     H2 1424   2.313   2.654   0.728
  407HOH      O 1425   2.478   3.152   3.164
  407HOH     H1 1426   2.468   3.211   3.089
  407HOH     H2 1427   2.489   3.210   3.239
  408HOH      O 1428   3.720   0.175   2.983
  408HOH     H1 1429   3.795   0.121   2.962
  408HOH     H2 1430   3.734   0.202   3.074
  409HOH      O 1431   1.342   1.341   1.593
  409HOH     H1 1432   1.405   1.361   1.523
  409HOH     H2 1433   1.375   1.387   1.669
  410HOH      O 1434   3.461   3.082   0.899
  410HOH     H1 1435   3.407   3.059   0.975
  410HOH     H2 1436   3.516   3.153   0.929
  411HOH      O 1437   3.905   0.065   3.805
  411HOH     H1 1438   3.835   0.009   3.838
  411HOH     H2 1439   3.985   0.026   3.840
  412HOH      O 1440   3.016   2.221   1.208
  412HOH     H1 1441   3.070   2.210   1.131
  412HOH     H2 1442   2.967   2.302   1.192
  413HOH      O 1443   1.127   3.660   3.339
  413HOH     H1 1444   1.033   3.660   3.322
  413HOH     H2 1445   1.167   3.692   3.258
  414HOH      O 1446   1.265   2.779   2.076
  414HOH     H1 1447   1.261   2.852   2.138
  414HOH     H2 1448   1.249   2.820   1.991
  415HOH      O 1449   0.354   2.409   3.615
  415HOH     H1 1450   0.310   2.325   3.624
  415HOH     H2 1451   0.444   2.392   3.643
  416HOH      O 1452   3.204   2.263   0.935
  416HOH     H1 1453   3.257   2.259   0.855
  416HOH     H2 1454   3.114   2.275   0.904
  417HOH      O 1455   0.631   2.336   0.290
  417HOH     H1 1456   0.541   2.327   0.259
  417HOH     H2 1457   0.682   2.284   0.227
  418HOH      O 1458   1.101   0.700   0.210
  418HOH     H1 1459   1.137   0.612   0.198
  418HOH     H2 1460   1.075   0.702   0.302
  419HOH      O 1461   0.449   3.244   1.753
  419HOH     H1 1462   0.355   3.226   1.759
  419HOH     H2 1463   0.488   3.193   1.823
  420HOH      O 1464   3.922   2.658   1.966
  420HOH     H1 1465   3.980   2.585   1.947
  420HOH     H2 1466   3.887   2.684   1.880
  421HOH      O 1467   3.077   2.854   2.440
  421HOH     H1 1468   3.088   2.802   2.520
  421HOH     H2 1469   3.103   2.795   2.370
  422HOH      O 1470   3.910   3.741   1.469
  422HOH     H1 1471   3.998   3.704   1.480
  422HOH     H2 1472   3.861   3.707   1.545
  423HOH      O 1473  -0.023   3.506   0.511
  423HOH     H1 1474   0.028   3.514   0.592
  423HOH     H2 1475   0.016   3.570   0.452
  424HOH      O 1476   1.707   3.332   1.063
  424HOH     H1 1477   1.743   3.266   1.123
  424HOH     H2 1478   1.656   3.390   1.119
  425HOH      O 1479   3.056   1.192   0.670
  425HOH     H1 1480   3.037   1.171   0.579
  425HOH     H2 1481   3.050   1.108   0.716
  426HOH      O 1482   1.857   2.255   0.899
  426HOH     H1 1483   1.915   2.248   0.974
  426HOH     H2 1484   1.801   2.178   0.904
  427HOH      O 1485   0.994   0.563   2.389
  427HOH     H1 1486   0.988   0.509   2.468
  427HOH     H2 1487   1.055   0.516   2.332
  428HOH      O 1488   1.465   0.132   2.198
  428HOH     H1 1489   1.459   0.042   2.231
  428HOH     H2 1490   1.501   0.123   2.110
  429HOH      O 1491   3.742   3.217   2.698
  429HOH     H1 1492   3.655   3.186   2.721
  429HOH     H2 1493   3.786   3.229   2.782
  430HOH      O 1494   3.301   0.214   1.960
  430HOH     H1 1495   3.374   0.155   1.977
  430HOH     H2 1496   3.239   0.163   1.908
  431HOH      O 1497   1.346   1.160   3.050
  431HOH     H1 1498   1.440   1.150   3.063
  431HOH     H2 1499   1.336   1.172   2.956
  432HOH      O 1500   3.222   4.004   1.109
  432HOH     H1 1501   3.160   4.032   1.042
  432HOH     H2 1502   3.270   4.084   1.132
  433HOH      O 1503   1.898   2.429   0.509
  433HOH     H1 1504   1.824   2.483   0.482
  433HOH     H2 1505   1.940   2.403   0.427
  434HOH      O 1506   0.583   2.340   3.761
  434HOH     H1 1507   0.678   2.332   3.766
  434HOH     H2 1508   0.564   2.423   3.805
  435HOH      O 1509   2.480   2.027   1.245
  435HOH     H1 1510   2.419   2.073   1.303
  435HOH     H2 1511   2.535   2.096   1.209
  436HOH      O 1512   2.331   1.611   0.961
  436HOH     H1 1513   2.350   1.590   1.052
  436HOH     H2 1514   2.396   1.678   0.938
  437HOH      O 1515   1.464   1.399   3.333
  437HOH     H1 1516   1.484   1.490   3.356
  437HOH     H2 1517   1.383   1.380   3.381
  438HOH      O 1518   0.363   0.044   1.034
  438HOH     H1 1519   0.316   0.124   1.009
  438HOH     H2 1520   0.344  -0.018   0.963
  439HOH      O 1521   3.016   3.277   1.904
  439HOH     H1 1522   2.956   3.250   1.834
  439HOH     H2 1523   3.099   3.232   1.883
  440HOH      O 1524   2.369   1.006   0.470
  440HOH     H1 1525   2.314   0.928   0.467
  440HOH     H2 1526   2.406   1.007   0.559
  441HOH      O 1527   3.671   0.240   1.566
  441HOH     H1 1528   3.580   0.209   1.563
  441HOH     H2 1529   3.664   0.330   1.598
  442HOH      O 1530   0.265   2.480   2.549
  442HOH     H1 1531   0.328   2.409   2.564
  442HOH     H2 1532   0.233   2.503   2.637
  443HOH      O 1533   1.962   3.898   0.352
  443HOH     H1 1534   2.018   3.854   0.288
  443HOH     H2 1535   1.896   3.943   0.299
  444HOH      O 1536   1.802   1.942   0.529
  444HOH     H1 1537   1.781   2.032   0.553
  444HOH     H2 1538   1.897   1.937   0.537
  445HOH      O 1539   1.686   1.342   3.964
  445HOH     H1 1540   1.706   1.377   4.051
  445HOH     H2 1541   1.601   1.299   3.975
  446HOH      O 1542   3.944   3.410   2.393
  446HOH     H1 1543   3.921   3.426   2.301
  446HOH     H2 1544   3.859   3.401   2.437
  447HOH      O 1545   2.170   1.311   1.512
  447HOH     H1 1546   2.258   1.347   1.520
  447HOH     H2 1547   2.115   1.369   1.564
  448HOH      O 1548   0.486   0.754   0.362
  448HOH     H1 1549   0.568   0.750   0.312
  448HOH     H2 1550   0.445   0.836   0.336
  449HOH      O 1551   3.001   1.170   3.477
  449HOH     H1 1552   3.078   1.114   3.484
  449HOH     H2 1553   2.928   1.108   3.467
  450HOH      O 1554   1.391   2.555   3.557
  450HOH     H1 1555   1.467   2.554   3.614
  450HOH     H2 1556   1.393   2.470   3.513
  451HOH      O 1557   3.919   2.425   3.224
  451HOH     H1 1558   3.994   2.475   3.253
  451HOH     H2 1559   3.846   2.486   3.229
  452HOH      O 1560   0.923   0.402   0.458
  452HOH     H1 1561   1.007   0.375   0.495
  452HOH     H2 1562   0.927   0.497   0.455
  453HOH      O 1563   1.803   3.604   0.984
  453HOH     H1 1564   1.759   3.529   1.024
  453HOH     H2 1565   1.883   3.567   0.948
  454HOH      O 1566   2.275   1.390   1.826
  454HOH     H1 1567   2.206   1.334   1.791
  454HOH     H2 1568   2.232   1.441   1.894
  455HOH      O 1569   1.970   1.210   0.910
  455HOH     H1 1570   1.999   1.138   0.854
  455HOH     H2 1571   2.051   1.244   0.949
  456HOH      O 1572   3.718   3.061   1.426
  456HOH     H1 1573   3.773   3.139   1.417
  456HOH     H2 1574   3.780   2.990   1.445
  457HOH      O 1575   1.200   1.352   3.215
  457HOH     H1 1576   1.285   1.315   3.194
  457HOH     H2 1577   1.147   1.334   3.137
  458HOH      O 1578   1.104   0.066   0.653
  458HOH     H1 1579   1.107   0.162   0.658
  458HOH     H2 1580   1.196   0.040   0.653
  459HOH      O 1581   3.121   2.867   1.262
  459HOH     H1 1582   3.159   2.897   1.344
  459HOH     H2 1583   3.169   2.787   1.242
  460HOH      O 1584   3.782   1.536   3.833
  460HOH     H1 1585   3.779   1.608   3.895
  460HOH     H2 1586   3.813   1.461   3.884
  461HOH      O 1587   3.420   0.445   1.691
  461HOH     H1 1588   3.425   0.354   1.662
  461HOH     H2 1589   3.508   0.464   1.723
  462HOH      O 1590   0.374   2.062   1.148
  462HOH     H1 1591   0.306   1.999   1.122
  462HOH     H2 1592   0.340   2.101   1.228
  463HOH      O 1593   0.189   1.443  -0.025
  463HOH     H1 1594   0.123   1.373  -0.030
  463HOH     H2 1595   0.183   1.476   0.064
  464HOH      O 1596   1.231   1.961   1.966
  464HOH     H1 1597   1.326   1.971   1.972
  464HOH     H2 1598   1.217   1.868   1.945
  465HOH      O 1599   1.741   2.193   2.718
  465HOH     H1 1600   1.731   2.158   2.807
  465HOH     H2 1601   1.834   2.186   2.700
  466HOH      O 1602   3.406   0.187   1.513
  466HOH     H1 1603   3.372   0.138   1.439
  466HOH     H2 1604   3.365   0.147   1.590
  467HOH      O 1605   2.050   1.196   3.489
  467HOH     H1 1606   2.052   1.241   3.573
  467HOH     H2 1607   2.101   1.253   3.431
  468HOH      O 1608   0.834   0.530   1.310
  468HOH     H1 1609   0.853   0.583   1.388
  468HOH     H2 1610   0.873   0.580   1.238
  469HOH      O 1611   3.776   1.677   2.739
  469HOH     H1 1612   3.699   1.721   2.702
  469HOH     H2 1613   3.769   1.691   2.833
  470HOH      O 1614   1.455   3.161   3.942
  470HOH     H1 1615   1.473   3.223   3.871
  470HOH     H2 1616   1.376   3.115   3.913
  471HOH      O 1617   3.529   0.392   3.233
  471HOH     H1 1618   3.537   0.407   3.138
  471HOH     H2 1619   3.584   0.460   3.272
  472HOH      O 1620   0.146   2.249   3.283
  472HOH     H1 1621   0.067   2.273   3.236
  472HOH     H2 1622   0.201   2.205   3.218
  473HOH      O 1623   0.653   2.591   0.386
  473HOH     H1 1624   0.657   2.510   0.335
  473HOH     H2 1625   0.566   2.626   0.368
  474HOH      O 1626   0.598   3.784   0.558
  474HOH     H1 1627   0.599   3.750   0.468
  474HOH     H2 1628   0.518   3.836   0.562
  475HOH      O 1629   0.971   1.194   0.148
  475HOH     H1 1630   1.038   1.259   0.124
  475HOH     H2 1631   0.921   1.182   0.067
  476HOH      O 1632   2.744   3.228   2.900
  476HOH     H1 1633   2.679   3.159   2.891
  476HOH     H2 1634   2.704   3.292   2.959
  477HOH      O 1635   3.239   3.287   2.733
  477HOH     H1 1636   3.324   3.331   2.733
  477HOH     H2 1637   3.237   3.238   2.650
  478HOH      O 1638   2.934   3.893   2.617
  478HOH     H1 1639   2.851   3.887   2.570
  478HOH     H2 1640   2.914   3.855   2.703
  479HOH      O 1641   2.731   0.255   1.169
  479HOH     H1 1642   2.732   0.191   1.239
  479HOH     H2 1643   2.768   0.334   1.208
  480HOH      O 1644   1.231   0.055   4.005
  480HOH     H1 1645   1.211   0.131   3.950
  480HOH     H2 1646   1.227  -0.019   3.945
  481HOH      O 1647   2.980   0.412   4.048
  481HOH     H1 1648   2.956   0.408   3.956
  481HOH     H2 1649   3.053   0.351   4.057
  482HOH      O 1650   0.119   1.227   1.429
  482HOH     H1 1651   0.073   1.144   1.420
  482HOH     H2 1652   0.133   1.237   1.523
  483HOH      O 1653   2.408   4.003   0.674
  483HOH     H1 1654   2.387   3.922   0.627
  483HOH     H2 1655   2.326   4.052   0.674
  484HOH      O 1656   0.202   2.483   2.838
  484HOH     H1 1657   0.155   2.541   2.897
  484HOH     H2 1658   0.162   2.397   2.853
  485HOH      O 1659   0.475   3.917   0.010
  485HOH     H1 1660   0.525   3.897  -0.069
  485HOH     H2 1661   0.539   3.954   0.071
  486HOH      O 1662   0.861   3.269   1.653
  486HOH     H1 1663   0.838   3.180   1.681
  486HOH     H2 1664   0.836   3.324   1.728
  487HOH      O 1665   0.277   1.999   2.455
  487HOH     H1 1666   0.350   2.044   2.498
  487HOH     H2 1667   0.291   2.016   2.361
  488HOH      O 1668   1.280   0.801   0.964
  488HOH     H1 1669   1.253   0.880   0.918
  488HOH     H2 1670   1.219   0.794   1.037
  489HOH      O 1671   1.112   2.634   0.879
  489HOH     H1 1672   1.069   2.632   0.794
  489HOH     H2 1673   1.111   2.543   0.909
  490HOH      O 1674   2.998   2.144   3.409
  490HOH     H1 1675   2.962   2.056   3.419
  490HOH     H2 1676   2.974   2.170   3.320
  491HOH      O 1677   0.591   1.240   1.820
  491HOH     H1 1678   0.672   1.218   1.774
  491HOH     H2 1679   0.530   1.265   1.750
  492HOH      O 1680   3.094   2.797   0.056
  492HOH     H1 1681   3.038   2.872   0.033
  492HOH     H2 1682   3.034   2.723   0.061
  493HOH      O 1683   0.953   0.607   1.870
  493HOH     H1 1684   0.988   0.520   1.886
  493HOH     H2 1685   0.931   0.641   1.957
  494HOH      O 1686   2.505   0.293   1.902
  494HOH     H1 1687   2.505   0.308   1.807
  494HOH     H2 1688   2.592   0.319   1.931
  495HOH      O 1689   3.436   2.663   3.612
  495HOH     H1 1690   3.500   2.679   3.682
  495HOH     H2 1691   3.351   2.673   3.655
  496HOH      O 1692   1.076   2.578   2.983
  496HOH     H1 1693   1.166   2.567   2.951
  496HOH     H2 1694   1.023   2.584   2.903
  497HOH      O 1695   0.680   0.047   3.906
  497HOH     H1 1696   0.751   0.108   3.886
  497HOH     H2 1697   0.644   0.078   3.988
  498HOH      O 1698   3.945   2.179   3.624
  498HOH     H1 1699   4.000   2.184   3.546
  498HOH     H2 1700   3.908   2.091   3.622
  499HOH      O 1701   2.823   2.549   3.272
  499HOH     H1 1702   2.887   2.602   3.223
  499HOH     H2 1703   2.740   2.594   3.259
  500HOH      O 1704   3.706   3.500   1.458
  500HOH     H1 1705   3.702   3.486   1.553
  500HOH     H2 1706   3.663   3.584   1.445
  501HOH      O 1707   1.018   1.851   3.597
  501HOH     H1 1708   0.942   1.908   3.587
  501HOH     H2 1709   0.984   1.773   3.642
  502HOH      O 1710   0.561   3.593   2.217
  502HOH     H1 1711   0.647   3.580   2.175
  502HOH     H2 1712   0.560   3.529   2.288
  503HOH      O 1713   2.158   2.304   3.494
  503HOH     H1 1714   2.123   2.235   3.437
  503HOH     H2 1715   2.080   2.342   3.536
  504HOH      O 1716   0.771   1.100   1.127
  504HOH     H1 1717   0.785   1.026   1.186
  504HOH     H2 1718   0.857   1.140   1.118
  505HOH      O 1719   2.330   3.628   2.975
  505HOH     H1 1720   2.406   3.627   2.916
  505HOH     H2 1721   2.359   3.678   3.051
  506HOH      O 1722   0.214   0.562   1.632
  506HOH     H1 1723   0.273   0.637   1.622
  506HOH     H2 1724   0.241   0.522   1.715
  507HOH      O 1725   2.293   0.715   0.729
  507HOH     H1 1726   2.262   0.745   0.814
  507HOH     H2 1727   2.378   0.676   0.747
  508HOH      O 1728   1.066   1.321   2.969
  508HOH     H1 1729   1.117   1.243   2.945
  508HOH     H2 1730   1.114   1.393   2.929
  509HOH      O 1731   2.797   3.042   0.328
  509HOH     H1 1732   2.889   3.066   0.316
  509HOH     H2 1733   2.792   2.951   0.301
  510HOH      O 1734   0.016   3.964   0.509
  510HOH     H1 1735  -0.001   3.915   0.590
  510HOH     H2 1736   0.010   4.056   0.536
  511HOH      O 1737   2.884   4.024   3.954
  511HOH     H1 1738   2.823   4.064   4.016
  511HOH     H2 1739   2.931   3.958   4.006
  512HOH      O 1740   1.187   3.966   2.784
  512HOH     H1 1741   1.269   4.015   2.793
  512HOH     H2 1742   1.151   3.996   2.700
  513HOH      O 1743   1.926   1.619   1.108
  513HOH     H1 1744   1.987   1.572   1.165
  513HOH     H2 1745   1.977   1.639   1.030
  514HOH      O 1746   2.160   3.459   3.108
  514HOH     H1 1747   2.155   3.364   3.102
  514HOH     H2 1748   2.230   3.483   3.047
  515HOH      O 1749   0.871   2.383   2.957
  515HOH     H1 1750   0.925   2.456   2.987
  515HOH     H2 1751   0.860   2.398   2.863
  516HOH      O 1752   1.240   0.956   0.486
  516HOH     H1 1753   1.153   0.995   0.492
  516HOH     H2 1754   1.271   0.981   0.399
  517HOH      O 1755   0.467   1.303   2.655
  517HOH     H1 1756   0.440   1.281   2.566
  517HOH     H2 1757   0.428   1.234   2.709
  518HOH      O 1758   2.502   3.143   0.205
  518HOH     H1 1759   2.458   3.227   0.216
  518HOH     H2 1760   2.431   3.080   0.194
  519HOH      O 1761   0.023   3.814   2.281
  519HOH     H1 1762  -0.051   3.813   2.342
  519HOH     H2 1763   0.057   3.725   2.283
  520HOH      O 1764   3.509   1.600   0.616
  520HOH     H1 1765   3.563   1.669   0.655
  520HOH     H2 1766   3.422   1.615   0.653
  521HOH      O 1767   3.525   1.866   0.261
  521HOH     H1 1768   3.478   1.933   0.311
  521HOH     H2 1769   3.504   1.884   0.170
  522HOH      O 1770   3.679   0.755   3.751
  522HOH     H1 1771   3.712   0.814   3.683
  522HOH     H2 1772   3.710   0.794   3.833
  523HOH      O 1773   2.988   0.697  -0.001
  523HOH     H1 1774   3.077   0.695   0.035
  523HOH     H2 1775   2.961   0.605  -0.002
  524HOH      O 1776   1.773   0.525   0.369
  524HOH     H1 1777   1.780   0.491   0.458
  524HOH     H2 1778   1.806   0.455   0.313
  525HOH      O 1779   0.889   2.596   1.787
  525HOH     H1 1780   0.964   2.548   1.750
  525HOH     H2 1781   0.869   2.662   1.721
  526HOH      O 1782   3.344   0.785   3.039
  526HOH     H1 1783   3.307   0.741   2.963
  526HOH     H2 1784   3.331   0.879   3.021
  527HOH      O 1785   2.141   3.199   3.101
  527HOH     H1 1786   2.129   3.156   3.185
  527HOH     H2 1787   2.107   3.138   3.036
  528HOH      O 1788   4.003   2.679   0.701
  528HOH     H1 1789   4.030   2.741   0.634
  528HOH     H2 1790   3.916   2.649   0.673
  529HOH      O 1791   0.366   3.410   0.476
  529HOH     H1 1792   0.322   3.338   0.521
  529HOH     H2 1793   0.327   3.489   0.513
  530HOH      O 1794   2.874   0.370   3.792
  530HOH     H1 1795   2.782   0.397   3.785
  530HOH     H2 1796   2.915   0.405   3.713
  531HOH      O 1797   0.104   3.626   3.336
  531HOH     H1 1798   0.053   3.691   3.385
  531HOH     H2 1799   0.193   3.661   3.335
  532HOH      O 1800   0.074   0.273   1.918
  532HOH     H1 1801   0.073   0.246   2.010
  532HOH     H2 1802   0.084   0.192   1.869
  533HOH      O 1803   2.629   0.596   3.965
  533HOH     H1 1804   2.646   0.523   3.906
  533HOH     H2 1805   2.538   0.584   3.991
  534HOH      O 1806   0.158   1.637   1.986
  534HOH     H1 1807   0.192   1.689   2.058
  534HOH     H2 1808   0.138   1.701   1.918
  535HOH      O 1809   0.159   1.899   1.032
  535HOH     H1 1810   0.211   1.888   0.952
  535HOH     H2 1811   0.116   1.814   1.044
  536HOH      O 1812   0.825   0.568   2.104
  536HOH     H1 1813   0.853   0.584   2.194
  536HOH     H2 1814   0.729   0.566   2.108
  537HOH      O 1815   3.128   1.981   0.769
  537HOH     H1 1816   3.098   2.011   0.855
  537HOH     H2 1817   3.221   1.961   0.782
  538HOH      O 1818   0.045   1.438   0.223
  538HOH     H1 1819  -0.039   1.479   0.248
  538HOH     H2 1820   0.024   1.345   0.211
  539HOH      O 1821   2.614   2.028   2.987
  539HOH     H1 1822   2.670   2.057   2.915
  539HOH     H2 1823   2.529   2.068   2.969
  540HOH      O 1824   0.909   2.839   2.608
  540HOH     H1 1825   0.999   2.835   2.576
  540HOH     H2 1826   0.866   2.903   2.551
  541HOH      O 1827   2.444   3.014   3.921
  541HOH     H1 1828   2.437   2.937   3.864
  541HOH     H2 1829   2.538   3.029   3.930
  542HOH      O 1830   1.551   3.466   1.221
  542HOH     H1 1831   1.511   3.407   1.285
  542HOH     H2 1832   1.577   3.543   1.272
  543HOH      O 1833   2.143   0.305   2.941
  543HOH     H1 1834   2.144   0.277   2.849
  543HOH     H2 1835   2.221   0.361   2.949
  544HOH      O 1836   0.480   0.522   3.720
  544HOH     H1 1837   0.467   0.610   3.755
  544HOH     H2 1838   0.453   0.463   3.791
  545HOH      O 1839   1.606   1.103   1.960
  545HOH     H1 1840   1.655   1.053   2.025
  545HOH     H2 1841   1.643   1.191   1.965
  546HOH      O 1842   1.567   3.068   3.194
  546HOH     H1 1843   1.646   3.048   3.245
  546HOH     H2 1844   1.499   3.082   3.259
  547HOH      O 1845   3.171   2.370   1.901
  547HOH     H1 1846   3.123   2.339   1.824
  547HOH     H2 1847   3.130   2.454   1.923
  548HOH      O 1848   0.443   2.644   0.712
  548HOH     H1 1849   0.502   2.713   0.681
  548HOH     H2 1850   0.358   2.687   0.722
  549HOH      O 1851   0.583   3.384   0.826
  549HOH     H1 1852   0.594   3.478   0.841
  549HOH     H2 1853   0.638   3.366   0.749
  550HOH      O 1854   3.851   3.389   3.194
  550HOH     H1 1855   3.863   3.357   3.283
  550HOH     H2 1856   3.828   3.481   3.204
  551HOH      O 1857   1.087   3.655   1.719
  551HOH     H1 1858   1.161   3.697   1.676
  551HOH     H2 1859   1.012   3.712   1.700
  552HOH      O 1860   0.076   1.569   0.846
  552HOH     H1 1861   0.030   1.538   0.924
  552HOH     H2 1862   0.011   1.564   0.777
  553HOH      O 1863   1.613   1.878   3.609
  553HOH     H1 1864   1.667   1.933   3.666
  553HOH     H2 1865   1.556   1.831   3.669
  554HOH      O 1866   1.079   2.075   2.464
  554HOH     H1 1867   1.161   2.047   2.425
  554HOH     H2 1868   1.025   1.996   2.468
  555HOH      O 1869   1.894   3.308   3.253
  555HOH     H1 1870   1.884   3.213   3.245
  555HOH     H2 1871   1.971   3.328   3.200
  556HOH      O 1872   0.185   2.512   2.266
  556HOH     H1 1873   0.107   2.564   2.289
  556HOH     H2 1874   0.227   2.495   2.350
  557HOH      O 1875   0.537   0.792   0.646
  557HOH     H1 1876   0.570   0.882   0.641
  557HOH     H2 1877   0.529   0.765   0.554
  558HOH      O 1878   3.117   0.656   2.489
  558HOH     H1 1879   3.196   0.604   2.507
  558HOH     H2 1880   3.045   0.600   2.516
  559HOH      O 1881   1.672   2.707   3.387
  559HOH     H1 1882   1.734   2.667   3.448
  559HOH     H2 1883   1.721   2.714   3.305
  560HOH      O 1884   2.950   3.348   2.760
  560HOH     H1 1885   2.885   3.300   2.810
  560HOH     H2 1886   3.029   3.294   2.764
  561HOH      O 1887   2.204   3.745   2.352
  561HOH     H1 1888   2.124   3.795   2.365
  561HOH     H2 1889   2.214   3.693   2.432
  562HOH      O 1890   1.128   3.347   2.256
  562HOH     H1 1891   1.136   3.283   2.186
  562HOH     H2 1892   1.204   3.404   2.245
  563HOH      O 1893   1.723   0.338   2.887
  563HOH     H1 1894   1.730   0.364   2.795
  563HOH     H2 1895   1.747   0.246   2.888
  564HOH      O 1896   2.203   1.625   2.886
  564HOH     H1 1897   2.262   1.698   2.866
  564HOH     H2 1898   2.130   1.636   2.825
  565HOH      O 1899   2.839   0.485   1.243
  565HOH     H1 1900   2.767   0.539   1.274
  565HOH     H2 1901   2.918   0.527   1.276
  566HOH      O 1902   2.551   1.085   2.225
  566HOH     H1 1903   2.558   1.110   2.133
  566HOH     H2 1904   2.576   1.163   2.273
  567HOH      O 1905   0.245   2.037   2.881
  567HOH     H1 1906   0.328   2.007   2.844
  567HOH     H2 1907   0.211   1.960   2.927
  568HOH      O 1908   0.407   1.624   3.354
  568HOH     H1 1909   0.449   1.600   3.271
  568HOH     H2 1910   0.331   1.566   3.360
  569HOH      O 1911   1.026   0.332   1.386
  569HOH     H1 1912   1.070   0.415   1.405
  569HOH     H2 1913   0.951   0.357   1.332
  570HOH      O 1914   1.563   1.808   2.324
  570HOH     H1 1915   1.520   1.723   2.334
  570HOH     H2 1916   1.615   1.799   2.244
  571HOH      O 1917   1.528   1.679   0.575
  571HOH     H1 1918   1.495   1.749   0.519
  571HOH     H2 1919   1.622   1.695   0.582
  572HOH      O 1920   3.493   0.965   0.306
  572HOH     H1 1921   3.407   1.005   0.295
  572HOH     H2 1922   3.502   0.952   0.400
  573HOH      O 1923   0.230   3.490   1.797
  573HOH     H1 1924   0.193   3.407   1.829
  573HOH     H2 1925   0.295   3.514   1.863
  574HOH      O 1926   1.084   2.882   2.931
  574HOH     H1 1927   1.111   2.839   3.013
  574HOH     H2 1928   1.007   2.832   2.903
  575HOH      O 1929   2.446   2.823   3.701
  575HOH     H1 1930   2.524   2.778   3.669
  575HOH     H2 1931   2.377   2.757   3.696
  576HOH      O 1932   1.992   2.566   1.253
  576HOH     H1 1933   1.986   2.472   1.270
  576HOH     H2 1934   1.916   2.604   1.296
  577HOH      O 1935   1.523   2.780   1.387
  577HOH     H1 1936   1.460   2.814   1.324
  577HOH     H2 1937   1.474   2.715   1.438
  578HOH      O 1938   0.444   0.202   2.505
  578HOH     H1 1939   0.532   0.240   2.512
  578HOH     H2 1940   0.441   0.166   2.416
  579HOH      O 1941   2.462   2.042   2.021
  579HOH     H1 1942   2.443   2.067   1.931
  579HOH     H2 1943   2.386   2.073   2.071
  580HOH      O 1944   2.888   2.351   0.311
  580HOH     H1 1945   2.898   2.308   0.396
  580HOH     H2 1946   2.883   2.278   0.249
  581HOH      O 1947   3.267   3.783   1.780
  581HOH     H1 1948   3.319   3.811   1.705
  581HOH     H2 1949   3.241   3.694   1.759
  582HOH      O 1950   3.050   3.796   3.124
  582HOH     H1 1951   3.136   3.823   3.091
  582HOH     H2 1952   3.029   3.862   3.190
  583HOH      O 1953   2.609   2.658   3.537
  583HOH     H1 1954   2.623   2.675   3.444
  583HOH     H2 1955   2.572   2.569   3.539
  584HOH      O 1956   0.439   3.607   1.471
  584HOH     H1 1957   0.452   3.702   1.470
  584HOH     H2 1958   0.474   3.580   1.556
  585HOH      O 1959   1.534   3.875   0.203
  585HOH     H1 1960   1.500   3.964   0.209
  585HOH     H2 1961   1.486   3.826   0.269
  586HOH      O 1962   1.133   3.879   3.576
  586HOH     H1 1963   1.145   3.786   3.593
  586HOH     H2 1964   1.110   3.917   3.661
  587HOH      O 1965   0.943   2.838   3.232
  587HOH     H1 1966   0.877   2.795   3.286
  587HOH     H2 1967   0.901   2.919   3.203
  588HOH      O 1968   3.742   3.544   0.490
  588HOH     H1 1969   3.837   3.538   0.480
  588HOH     H2 1970   3.709   3.466   0.446
  589HOH      O 1971   2.444   0.596   3.576
  589HOH     H1 1972   2.456   0.541   3.498
  589HOH     H2 1973   2.356   0.633   3.566
  590HOH      O 1974   2.667   3.143  -0.015
  590HOH     H1 1975   2.734   3.212  -0.017
  590HOH     H2 1976   2.631   3.146   0.074
  591HOH      O 1977   1.953   2.384   0.241
  591HOH     H1 1978   2.000   2.319   0.189
  591HOH     H2 1979   1.988   2.468   0.212
  592HOH      O 1980   1.183   3.244   1.241
  592HOH     H1 1981   1.111   3.272   1.298
  592HOH     H2 1982   1.258   3.297   1.270
  593HOH      O 1983   1.555   0.473   1.908
  593HOH     H1 1984   1.635   0.498   1.954
  593HOH     H2 1985   1.585   0.431   1.828
  594HOH      O 1986   0.167   1.643   0.403
  594HOH     H1 1987   0.241   1.583   0.411
  594HOH     H2 1988   0.096   1.589   0.369
  595HOH      O 1989   1.234   1.611   4.009
  595HOH     H1 1990   1.226   1.610   3.913
  595HOH     H2 1991   1.163   1.669   4.037
  596HOH      O 1992   0.611   2.855   0.646
  596HOH     H1 1993   0.536   2.891   0.599
  596HOH     H2 1994   0.659   2.804   0.580
  597HOH      O 1995   1.179   3.498   3.888
  597HOH     H1 1996   1.184   3.405   3.865
  597HOH     H2 1997   1.164   3.543   3.805
  598HOH      O 1998   1.751   3.295   0.147
  598HOH     H1 1999   1.701   3.318   0.226
  598HOH     H2 2000   1.787   3.379   0.118
  599HOH      O 2001   0.237   1.301   1.191
  599HOH     H1 2002   0.317   1.250   1.204
  599HOH     H2 2003   0.203   1.316   1.279
  600HOH      O 2004   2.581   1.894   3.485
  600HOH     H1 2005   2.588   1.930   3.397
  600HOH     H2 2006   2.507   1.833   3.480
  601HOH      O 2007   1.503   2.527   1.180
  601HOH     H1 2008   1.438   2.495   1.244
  601HOH     H2 2009   1.510   2.621   1.198
  602HOH      O 2010   1.885   3.970   1.672
  602HOH     H1 2011   1.967   3.964   1.720
  602HOH     H2 2012   1.902   3.924   1.590
  603HOH      O 2013   0.474   1.642   1.070
  603HOH     H1 2014   0.521   1.724   1.053
  603HOH     H2 2015   0.432   1.621   0.986
  604HOH      O 2016   2.092   0.413   0.463
  604HOH     H1 2017   2.060   0.372   0.382
  604HOH     H2 2018   2.187   0.403   0.460
  605HOH      O 2019   1.370   3.901   3.398
  605HOH     H1 2020   1.287   3.876   3.439
  605HOH     H2 2021   1.388   3.829   3.337
  606HOH      O 2022   0.440   2.296   2.645
  606HOH     H1 2023   0.498   2.369   2.664
  606HOH     H2 2024   0.463   2.229   2.710
  607HOH      O 2025   1.122   0.814   1.214
  607HOH     H1 2026   1.176   0.748   1.257
  607HOH     H2 2027   1.152   0.897   1.252
  608HOH      O 2028   0.461   3.034   2.900
  608HOH     H1 2029   0.457   3.109   2.840
  608HOH     H2 2030   0.438   3.070   2.985
  609HOH      O 2031   3.872   3.255   2.967
  609HOH     H1 2032   3.960   3.288   2.948
  609HOH     H2 2033   3.844   3.305   3.044
  610HOH      O 2034   2.241   0.234   1.458
  610HOH     H1 2035   2.324   0.201   1.424
  610HOH     H2 2036   2.234   0.323   1.423
  611HOH      O 2037   0.195   2.448   1.502
  611HOH     H1 2038   0.120   2.507   1.496
  611HOH     H2 2039   0.252   2.476   1.430
  612HOH      O 2040   0.361   3.673   1.034
  612HOH     H1 2041   0.406   3.615   0.973
  612HOH     H2 2042   0.428   3.736   1.061
  613HOH      O 2043   0.913   0.663   1.097
  613HOH     H1 2044   0.976   0.728   1.127
  613HOH     H2 2045   0.950   0.628   1.016
  614HOH      O 2046   2.209   0.200   1.747
  614HOH     H1 2047   2.268   0.271   1.774
  614HOH     H2 2048   2.196   0.215   1.653
  615HOH      O 2049   2.639   0.688   3.101
  615HOH     H1 2050   2.584   0.723   3.172
  615HOH     H2 2051   2.642   0.594   3.118
  616HOH      O 2052   1.141   2.664   2.547
  616HOH     H1 2053   1.146   2.596   2.480
  616HOH     H2 2054   1.218   2.649   2.602
  617HOH      O 2055   1.327   0.155   2.519
  617HOH     H1 2056   1.263   0.164   2.590
  617HOH     H2 2057   1.274   0.135   2.442
  618HOH      O 2058   1.876   0.320   3.638
  618HOH     H1 2059   1.879   0.266   3.559
  618HOH     H2 2060   1.845   0.405   3.607
  619HOH      O 2061   2.293   1.572   1.251
  619HOH     H1 2062   2.277   1.649   1.304
  619HOH     H2 2063   2.209   1.526   1.249
  620HOH      O 2064   1.083   3.177   2.057
  620HOH     H1 2065   1.124   3.112   2.000
  620HOH     H2 2066   0.997   3.142   2.076
  621HOH      O 2067   0.110   1.846   1.839
  621HOH     H1 2068   0.133   1.902   1.765
  621HOH     H2 2069   0.023   1.874   1.865
  622HOH      O 2070   2.702   3.907   2.464
  622HOH     H1 2071   2.632   3.917   2.529
  622HOH     H2 2072   2.663   3.937   2.382
  623HOH      O 2073   3.849   0.895   3.513
  623HOH     H1 2074   3.755   0.896   3.531
  623HOH     H2 2075   3.875   0.987   3.518
  624HOH      O 2076   0.821   0.864   1.633
  624HOH     H1 2077   0.885   0.802   1.597
  624HOH     H2 2078   0.757   0.808   1.678
  625HOH      O 2079   2.070   1.967   0.583
  625HOH     H1 2080   2.090   2.024   0.656
  625HOH     H2 2081   2.126   1.890   0.597
  626HOH      O 2082   1.512   0.554   0.608
  626HOH     H1 2083   1.464   0.556   0.691
  626HOH     H2 2084   1.498   0.640   0.569
  627HOH      O 2085   2.863   0.729   0.413
  627HOH     H1 2086   2.799   0.787   0.372
  627HOH     H2 2087   2.810   0.667   0.463
  628HOH      O 2088   3.918   0.449   1.861
  628HOH     H1 2089   3.941   0.459   1.769
  628HOH     H2 2090   3.971   0.375   1.891
  629HOH      O 2091   0.872   2.393   0.768
  629HOH     H1 2092   0.931   2.446   0.714
  629HOH     H2 2093   0.786   2.407   0.729
  630HOH      O 2094   2.852   3.859   1.574
  630HOH     H1 2095   2.890   3.814   1.650
  630HOH     H2 2096   2.772   3.810   1.556
  631HOH      O 2097   3.835   1.054   0.795
  631HOH     H1 2098   3.764   1.091   0.848
  631HOH     H2 2099   3.890   1.007   0.857
  632HOH      O 2100   3.686   1.687   1.000
  632HOH     H1 2101   3.620   1.644   1.055
  632HOH     H2 2102   3.761   1.698   1.058
  633HOH      O 2103   1.020   1.140   1.015
  633HOH     H1 2104   1.113   1.159   1.019
  633HOH     H2 2105   0.984   1.210   0.960
  634HOH      O 2106   2.478   3.541   1.019
  634HOH     H1 2107   2.434   3.582   0.945
  634HOH     H2 2108   2.429   3.460   1.033
  635HOH      O 2109   2.876   3.460   0.302
  635HOH     H1 2110   2.866   3.411   0.220
  635HOH     H2 2111   2.818   3.416   0.364
  636HOH      O 2112   3.774   0.989   0.313
  636HOH     H1 2113   3.795   1.046   0.387
  636HOH     H2 2114   3.678   0.986   0.311
  637HOH      O 2115   3.486   1.666   1.867
  637HOH     H1 2116   3.534   1.680   1.949
  637HOH     H2 2117   3.395   1.688   1.889
  638HOH      O 2118   2.101   2.914   2.421
  638HOH     H1 2119   2.026   2.892   2.477
  638HOH     H2 2120   2.079   2.877   2.335
  639HOH      O 2121   3.256   0.412   0.567
  639HOH     H1 2122   3.213   0.497   0.552
  639HOH     H2 2123   3.215   0.353   0.504
  640HOH      O 2124   3.069   1.406   0.328
  640HOH     H1 2125   3.069   1.495   0.364
  640HOH     H2 2126   3.021   1.413   0.246
  641HOH      O 2127   1.096   1.071   1.287
  641HOH     H1 2128   1.062   1.115   1.210
  641HOH     H2 2129   1.094   1.138   1.356
  642HOH      O 2130   1.417   1.728   3.127
  642HOH     H1 2131   1.511   1.715   3.136
  642HOH     H2 2132   1.397   1.801   3.186
  643HOH      O 2133   2.388   1.450   3.010
  643HOH     H1 2134   2.407   1.543   3.021
  643HOH     H2 2135   2.335   1.446   2.930
  644HOH      O 2136   1.571   2.314   1.051
  644HOH     H1 2137   1.641   2.295   1.114
  644HOH     H2 2138   1.520   2.383   1.093
  645HOH      O 2139   1.120   1.227   3.671
  645HOH     H1 2140   1.214   1.225   3.689
  645HOH     H2 2141   1.081   1.177   3.743
  646HOH      O 2142   3.836   2.040   2.849
  646HOH     H1 2143   3.839   2.109   2.782
  646HOH     H2 2144   3.910   1.983   2.828
  647HOH      O 2145   3.184   3.433   3.006
  647HOH     H1 2146   3.148   3.346   2.989
  647HOH     H2 2147   3.156   3.486   2.932
  648HOH      O 2148   3.894   3.299   1.462
  648HOH     H1 2149   3.964   3.351   1.423
  648HOH     H2 2150   3.822   3.361   1.473
  649HOH      O 2151   3.761   2.436   2.053
  649HOH     H1 2152   3.827   2.367   2.059
  649HOH     H2 2153   3.810   2.517   2.067
  650HOH      O 2154   0.998   3.774   2.659
  650HOH     H1 2155   1.067   3.749   2.597
  650HOH     H2 2156   0.993   3.702   2.721
  651HOH      O 2157   1.759   1.550   3.277
  651HOH     H1 2158   1.729   1.633   3.239
  651HOH     H2 2159   1.793   1.500   3.203
  652HOH      O 2160   2.014   2.314   1.440
  652HOH     H1 2161   2.093   2.369   1.447
  652HOH     H2 2162   2.026   2.247   1.508
  653HOH      O 2163   3.075   0.524   3.336
  653HOH     H1 2164   3.091   0.618   3.339
  653HOH     H2 2165   3.122   0.493   3.259
  654HOH      O 2166   1.070   2.185   1.173
  654HOH     H1 2167   1.086   2.145   1.259
  654HOH     H2 2168   0.975   2.190   1.166
  655HOH      O 2169   0.954   0.283   1.062
  655HOH     H1 2170   0.878   0.284   1.121
  655HOH     H2 2171   0.916   0.282   0.975
  656HOH      O 2172   2.209   1.798   2.273
  656HOH     H1 2173   2.232   1.891   2.268
  656HOH     H2 2174   2.202   1.781   2.367
  657HOH      O 2175   0.603   0.080   0.651
  657HOH     H1 2176   0.681   0.104   0.600
  657HOH     H2 2177   0.615  -0.014   0.669
  658HOH      O 2178   3.278   1.626   0.759
  658HOH     H1 2179   3.280   1.579   0.842
  658HOH     H2 2180   3.302   1.716   0.781
  659HOH      O 2181   0.186   0.240   0.400
  659HOH     H1 2182   0.239   0.194   0.466
  659HOH     H2 2183   0.199   0.189   0.320
  660HOH      O 2184   1.527   1.214   0.799
  660HOH     H1 2185   1.529   1.294   0.851
  660HOH     H2 2186   1.562   1.240   0.713
  661HOH      O 2187   3.883   1.698   2.128
  661HOH     H1 2188   3.871   1.609   2.096
  661HOH     H2 2189   3.959   1.692   2.187
  662HOH      O 2190   2.451   1.163   3.567
  662HOH     H1 2191   2.515   1.234   3.559
  662HOH     H2 2192   2.399   1.187   3.643
  663HOH      O 2193   1.986   1.397   1.769
  663HOH     H1 2194   1.932   1.326   1.735
  663HOH     H2 2195   1.974   1.468   1.707
  664HOH      O 2196   1.496   1.991   0.852
  664HOH     H1 2197   1.478   2.081   0.827
  664HOH     H2 2198   1.591   1.988   0.864
  665HOH      O 2199   1.588   1.550   3.801
  665HOH     H1 2200   1.622   1.557   3.712
  665HOH     H2 2201   1.645   1.486   3.844
  666HOH      O 2202   3.232   0.952   2.477
  666HOH     H1 2203   3.176   0.878   2.502
  666HOH     H2 2204   3.178   1.029   2.493
  667HOH      O 2205   2.797   3.595   2.709
  667HOH     H1 2206   2.823   3.515   2.754
  667HOH     H2 2207   2.832   3.665   2.765
  668HOH      O 2208   0.695   3.081  -0.012
  668HOH     H1 2209   0.722   3.132   0.064
  668HOH     H2 2210   0.600   3.072  -0.003
  669HOH      O 2211   2.271   0.681   2.881
  669HOH     H1 2212   2.288   0.608   2.940
  669HOH     H2 2213   2.228   0.641   2.805
  670HOH      O 2214   0.414   1.090   2.844
  670HOH     H1 2215   0.455   1.046   2.918
  670HOH     H2 2216   0.326   1.112   2.874
  671HOH      O 2217   2.345   2.364   3.758
  671HOH     H1 2218   2.380   2.365   3.669
  671HOH     H2 2219   2.292   2.285   3.763
  672HOH      O 2220   3.441   0.940   2.688
  672HOH     H1 2221   3.366   0.946   2.629
  672HOH     H2 2222   3.410   0.976   2.771
  673HOH      O 2223   1.943   2.281   1.152
  673HOH     H1 2224   1.996   2.211   1.189
  673HOH     H2 2225   1.861   2.277   1.200
  674HOH      O 2226   1.832   0.751   3.576
  674HOH     H1 2227   1.823   0.843   3.551
  674HOH     H2 2228   1.818   0.703   3.495
  675HOH      O 2229   3.368   2.215   1.190
  675HOH     H1 2230   3.317   2.175   1.120
  675HOH     H2 2231   3.392   2.301   1.155
  676HOH      O 2232   2.345   2.982   0.938
  676HOH     H1 2233   2.383   2.905   0.980
  676HOH     H2 2234   2.419   3.028   0.900
  677HOH      O 2235   2.187   0.405   0.993
  677HOH     H1 2236   2.197   0.312   0.972
  677HOH     H2 2237   2.240   0.418   1.071
  678HOH      O 2238   1.923   0.786   2.233
  678HOH     H1 2239   1.864   0.763   2.305
  678HOH     H2 2240   1.885   0.744   2.156
  679HOH      O 2241   1.347   3.910   2.344
  679HOH     H1 2242   1.338   3.848   2.272
  679HOH     H2 2243   1.267   3.962   2.341
  680HOH      O 2244   1.415   0.475   3.537
  680HOH     H1 2245   1.325   0.464   3.507
  680HOH     H2 2246   1.464   0.494   3.457
  681HOH      O 2247   0.775   1.130   1.604
  681HOH     H1 2248   0.781   1.036   1.621
  681HOH     H2 2249   0.863   1.155   1.575
  682HOH      O 2250   3.221   0.902   1.773
  682HOH     H1 2251   3.243   0.974   1.832
  682HOH     H2 2252   3.288   0.907   1.704
  683HOH      O 2253   1.956   3.871   2.419
  683HOH     H1 2254   1.961   3.887   2.513
  683HOH     H2 2255   1.878   3.817   2.409
  684HOH      O 2256   3.413   2.356   3.159
  684HOH     H1 2257   3.320   2.375   3.169
  684HOH     H2 2258   3.422   2.328   3.068
  685HOH      O 2259   0.988   0.919   0.855
  685HOH     H1 2260   0.900   0.892   0.880
  685HOH     H2 2261   1.013   0.983   0.922
  686HOH      O 2262   3.833   0.349   3.460
  686HOH     H1 2263   3.927   0.365   3.449
  686HOH     H2 2264   3.823   0.326   3.552
  687HOH      O 2265   1.624   3.929   1.726
  687HOH     H1 2266   1.611   3.840   1.692
  687HOH     H2 2267   1.719   3.939   1.730
  688HOH      O 2268   3.382   1.230   2.451
  688HOH     H1 2269   3.336   1.280   2.518
  688HOH     H2 2270   3.385   1.140   2.486
  689HOH      O 2271   3.644   0.181   1.157
  689HOH     H1 2272   3.672   0.251   1.216
  689HOH     H2 2273   3.692   0.197   1.076
  690HOH      O 2274   1.196   3.739   2.921
  690HOH     H1 2275   1.116   3.763   2.968
  690HOH     H2 2276   1.209   3.810   2.858
  691HOH      O 2277   1.097   1.905   0.066
  691HOH     H1 2278   1.083   1.842   0.136
  691HOH     H2 2279   1.009   1.931   0.039
  692HOH      O 2280   2.672   2.044   3.275
  692HOH     H1 2281   2.705   2.133   3.287
  692HOH     H2 2282   2.668   2.033   3.180
  693HOH      O 2283   3.865   0.380   2.374
  693HOH     H1 2284   3.801   0.379   2.303
  693HOH     H2 2285   3.815   0.358   2.452
  694HOH      O 2286   2.098   0.068   2.443
  694HOH     H1 2287   2.061  -0.014   2.411
  694HOH     H2 2288   2.117   0.118   2.364
  695HOH      O 2289   1.483   1.377   1.361
  695HOH     H1 2290   1.566   1.378   1.313
  695HOH     H2 2291   1.432   1.449   1.323
  696HOH      O 2292   0.661   0.766   2.899
  696HOH     H1 2293   0.678   0.854   2.932
  696HOH     H2 2294   0.680   0.708   2.973
  697HOH      O 2295   3.067   0.426   2.304
  697HOH     H1 2296   3.060   0.500   2.364
  697HOH     H2 2297   3.089   0.466   2.219
  698HOH      O 2298   3.041   1.272   3.826
  698HOH     H1 2299   3.028   1.367   3.828
  698HOH     H2 2300   3.117   1.260   3.769
  699HOH      O 2301   2.841   3.369   4.038
  699HOH     H1 2302   2.921   3.421   4.024
  699HOH     H2 2303   2.771   3.423   4.001
  700HOH      O 2304   3.089   0.085   1.707
  700HOH     H1 2305   3.100   0.005   1.655
  700HOH     H2 2306   3.083   0.054   1.797
  701HOH      O 2307   1.087   2.639   2.240
  701HOH     H1 2308   1.100   2.553   2.278
  701HOH     H2 2309   1.165   2.654   2.186
  702HOH      O 2310   1.142   1.516   3.755
  702HOH     H1 2311   1.164   1.576   3.684
  702HOH     H2 2312   1.123   1.433   3.711
  703HOH      O 2313   3.001   1.514   2.229
  703HOH     H1 2314   2.942   1.564   2.173
  703HOH     H2 2315   3.086   1.522   2.187
  704HOH      O 2316   1.914   1.215   2.902
  704HOH     H1 2317   1.838   1.158   2.909
  704HOH     H2 2318   1.915   1.243   2.811
  705HOH      O 2319   2.159   3.964   1.250
  705HOH     H1 2320   2.118   4.039   1.207
  705HOH     H2 2321   2.251   3.971   1.225
  706HOH      O 2322   0.281   3.410   3.947
  706HOH     H1 2323   0.249   3.500   3.953
  706HOH     H2 2324   0.334   3.409   3.867
  707HOH      O 2325   0.405   0.155   3.767
  707HOH     H1 2326   0.405   0.195   3.854
  707HOH     H2 2327   0.498   0.143   3.747
  708HOH      O 2328   1.088   2.085   1.759
  708HOH     H1 2329   1.135   2.059   1.838
  708HOH     H2 2330   0.997   2.093   1.788
  709HOH      O 2331   2.877   1.571   0.996
  709HOH     H1 2332   2.887   1.657   0.955
  709HOH     H2 2333   2.936   1.514   0.947
  710HOH      O 2334   2.685   3.525   1.871
  710HOH     H1 2335   2.592   3.535   1.889
  710HOH     H2 2336   2.689   3.467   1.795
  711HOH      O 2337   2.385   0.979   3.166
  711HOH     H1 2338   2.390   1.065   3.208
  711HOH     H2 2339   2.401   0.997   3.073
  712HOH      O 2340   2.503   1.896   3.797
  712HOH     H1 2341   2.451   1.908   3.877
  712HOH     H2 2342   2.438   1.881   3.728
  713HOH      O 2343   0.330   3.286   1.104
  713HOH     H1 2344   0.236   3.303   1.114
  713HOH     H2 2345   0.349   3.219   1.170
  714HOH      O 2346   0.269   2.512   3.201
  714HOH     H1 2347   0.254   2.419   3.187
  714HOH     H2 2348   0.188   2.545   3.239
  715HOH      O 2349   2.862   1.255   2.170
  715HOH     H1 2350   2.873   1.201   2.092
  715HOH     H2 2351   2.943   1.306   2.175
  716HOH      O 2352   1.256   2.012   3.583
  716HOH     H1 2353   1.288   2.017   3.673
  716HOH     H2 2354   1.181   1.954   3.587
  717HOH      O 2355   3.828   2.631   2.627
  717HOH     H1 2356   3.774   2.649   2.704
  717HOH     H2 2357   3.903   2.690   2.635
  718HOH      O 2358   3.544   2.974   3.559
  718HOH     H1 2359   3.502   2.892   3.585
  718HOH     H2 2360   3.634   2.965   3.588
  719HOH      O 2361   1.698   0.338   2.601
  719HOH     H1 2362   1.756   0.391   2.546
  719HOH     H2 2363   1.610   0.358   2.568
  720HOH      O 2364   2.529   2.611   1.328
  720HOH     H1 2365   2.487   2.540   1.279
  720HOH     H2 2366   2.498   2.601   1.418
  721HOH      O 2367   3.292   3.276   3.361
  721HOH     H1 2368   3.283   3.296   3.268
  721HOH     H2 2369   3.247   3.192   3.372
  722HOH      O 2370   1.188   0.144   1.294
  722HOH     H1 2371   1.117   0.187   1.341
  722HOH     H2 2372   1.262   0.148   1.354
  723HOH      O 2373   1.647   0.572   1.519
  723HOH     H1 2374   1.613   0.542   1.435
  723HOH     H2 2375   1.600   0.654   1.536
  724HOH      O 2376   1.576   1.885   2.818
  724HOH     H1 2377   1.620   1.871   2.734
  724HOH     H2 2378   1.515   1.811   2.825
  725HOH      O 2379   3.440   1.592   0.291
  725HOH     H1 2380   3.462   1.684   0.276
  725HOH     H2 2381   3.487   1.569   0.371
  726HOH      O 2382   3.470   3.872   3.753
  726HOH     H1 2383   3.464   3.794   3.808
  726HOH     H2 2384   3.395   3.926   3.780
  727HOH      O 2385   1.360   1.006   3.806
  727HOH     H1 2386   1.438   1.060   3.796
  727HOH     H2 2387   1.302   1.057   3.862
  728HOH      O 2388   0.875   0.268   0.795
  728HOH     H1 2389   0.877   0.363   0.787
  728HOH     H2 2390   0.829   0.239   0.716
  729HOH      O 2391   1.017   0.055   1.918
  729HOH     H1 2392   1.035  -0.037   1.938
  729HOH     H2 2393   0.922   0.059   1.909
  730HOH      O 2394   1.486   1.642   3.436
  730HOH     H1 2395   1.476   1.732   3.405
  730HOH     H2 2396   1.574   1.640   3.473
  731HOH      O 2397   3.282   1.868   3.169
  731HOH     H1 2398   3.225   1.849   3.094
  731HOH     H2 2399   3.316   1.955   3.151
  732HOH      O 2400   2.664   0.931   0.336
  732HOH     H1 2401   2.597   0.863   0.339
  732HOH     H2 2402   2.707   0.918   0.251
  733HOH      O 2403   3.009   3.982   1.384
  733HOH     H1 2404   3.022   3.924   1.309
  733HOH     H2 2405   2.968   3.926   1.450
  734HOH      O 2406   3.157   2.603   3.689
  734HOH     H1 2407   3.106   2.572   3.614
  734HOH     H2 2408   3.108   2.573   3.765
  735HOH      O 2409   1.302   2.246   0.242
  735HOH     H1 2410   1.296   2.284   0.330
  735HOH     H2 2411   1.396   2.251   0.220
  736HOH      O 2412   0.646   1.172   2.322
  736HOH     H1 2413   0.667   1.080   2.336
  736HOH     H2 2414   0.731   1.215   2.311
  737HOH      O 2415   3.163   3.680   0.976
  737HOH     H1 2416   3.084   3.643   1.017
  737HOH     H2 2417   3.145   3.677   0.882
  738HOH      O 2418   2.657   1.425   0.284
  738HOH     H1 2419   2.669   1.343   0.236
  738HOH     H2 2420   2.745   1.447   0.315
  739HOH      O 2421   2.887   3.330   1.652
  739HOH     H1 2422   2.800   3.348   1.617
  739HOH     H2 2423   2.947   3.370   1.588
  740HOH      O 2424   0.155   3.628   2.436
  740HOH     H1 2425   0.123   3.585   2.356
  740HOH     H2 2426   0.250   3.634   2.423
  741HOH      O 2427   1.820   3.010   3.282
  741HOH     H1 2428   1.875   3.016   3.360
  741HOH     H2 2429   1.831   2.920   3.252
  742HOH      O 2430   3.232   0.407   1.175
  742HOH     H1 2431   3.147   0.450   1.168
  742HOH     H2 2432   3.216   0.329   1.228
  743HOH      O 2433   1.738   1.593   3.564
  743HOH     H1 2434   1.807   1.640   3.611
  743HOH     H2 2435   1.779   1.567   3.482
  744HOH      O 2436   3.501   0.022   1.766
  744HOH     H1 2437   3.566   0.087   1.794
  744HOH     H2 2438   3.499  -0.042   1.838
  745HOH      O 2439   0.976   3.273   3.833
  745HOH     H1 2440   0.885   3.261   3.860
  745HOH     H2 2441   0.970   3.323   3.751
  746HOH      O 2442   3.246   1.078   0.056
  746HOH     H1 2443   3.327   1.028   0.043
  746HOH     H2 2444   3.198   1.068  -0.026
  747HOH      O 2445   0.545   2.676   3.047
  747HOH     H1 2446   0.590   2.614   2.990
  747HOH     H2 2447   0.516   2.623   3.122
  748HOH      O 2448   1.392   2.523   0.153
  748HOH     H1 2449   1.298   2.505   0.160
  748HOH     H2 2450   1.412   2.510   0.060
  749HOH      O 2451   0.099   2.052   1.657
  749HOH     H1 2452   0.184   2.093   1.671
  749HOH     H2 2453   0.039   2.099   1.714
  750HOH      O 2454   4.074   1.512   1.723
  750HOH     H1 2455   3.989   1.498   1.681
  750HOH     H2 2456   4.054   1.566   1.799
  751HOH      O 2457   1.668   2.045   2.989
  751HOH     H1 2458   1.587   2.038   3.040
  751HOH     H2 2459   1.656   1.983   2.916
  752HOH      O 2460   2.175   0.285   3.619
  752HOH     H1 2461   2.097   0.248   3.660
  752HOH     H2 2462   2.163   0.380   3.625
  753HOH      O 2463   0.438   3.984   1.789
  753HOH     H1 2464   0.434   4.078   1.771
  753HOH     H2 2465   0.513   3.953   1.738
  754HOH      O 2466   3.373   3.501   0.371
  754HOH     H1 2467   3.286   3.482   0.406
  754HOH     H2 2468   3.415   3.554   0.440
  755HOH      O 2469   2.670   2.564   2.922
  755HOH     H1 2470   2.583   2.529   2.939
  755HOH     H2 2471   2.674   2.576   2.827
  756HOH      O 2472   0.631   0.839   3.765
  756HOH     H1 2473   0.664   0.765   3.714
  756HOH     H2 2474   0.710   0.884   3.796
  757HOH      O 2475   1.838   2.579   0.002
  757HOH     H1 2476   1.799   2.501   0.039
  757HOH     H2 2477   1.866   2.631   0.078
  758HOH      O 2478   1.464   2.042   1.275
  758HOH     H1 2479   1.405   2.042   1.200
  758HOH     H2 2480   1.546   2.006   1.241
  759HOH      O 2481   3.771   1.726   3.054
  759HOH     H1 2482   3.687   1.681   3.056
  759HOH     H2 2483   3.750   1.817   3.075
  760HOH      O 2484   0.763   1.447   0.589
  760HOH     H1 2485   0.847   1.470   0.630
  760HOH     H2 2486   0.702   1.444   0.662
  761HOH      O 2487   3.666   3.488   2.107
  761HOH     H1 2488   3.636   3.496   2.197
  761HOH     H2 2489   3.692   3.576   2.082
  762HOH      O 2490   2.590   0.640   0.767
  762HOH     H1 2491   2.669   0.694   0.771
  762HOH     H2 2492   2.603   0.575   0.837
  763HOH      O 2493  -0.020   0.837   0.644
  763HOH     H1 2494   0.056   0.788   0.614
  763HOH     H2 2495  -0.008   0.845   0.738
  764HOH      O 2496   3.593   1.992   2.221
  764HOH     H1 2497   3.502   1.965   2.235
  764HOH     H2 2498   3.612   1.964   2.131
  765HOH      O 2499   0.438   2.656   0.246
  765HOH     H1 2500   0.345   2.665   0.266
  765HOH     H2 2501   0.468   2.747   0.235
  766HOH      O 2502   3.142   3.979   1.940
  766HOH     H1 2503   3.208   3.986   2.009
  766HOH     H2 2504   3.185   3.928   1.872
  767HOH      O 2505   2.459   0.262   0.742
  767HOH     H1 2506   2.372   0.231   0.719
  767HOH     H2 2507   2.474   0.229   0.831
  768HOH      O 2508   2.508   0.201   1.417
  768HOH     H1 2509   2.514   0.286   1.374
  768HOH     H2 2510   2.593   0.159   1.400
  769HOH      O 2511   3.231   3.747   2.317
  769HOH     H1 2512   3.194   3.823   2.361
  769HOH     H2 2513   3.172   3.730   2.244
  770HOH      O 2514   0.736   0.116   1.856
  770HOH     H1 2515   0.698   0.048   1.801
  770HOH     H2 2516   0.701   0.099   1.943
  771HOH      O 2517   0.932   1.849   2.468
  771HOH     H1 2518   0.850   1.803   2.491
  771HOH     H2 2519   0.985   1.843   2.547
  772HOH      O 2520   3.128   2.060   2.759
  772HOH     H1 2521   3.069   2.134   2.776
  772HOH     H2 2522   3.088   2.014   2.686
  773HOH      O 2523   1.032   2.981   1.451
  773HOH     H1 2524   1.081   2.900   1.435
  773HOH     H2 2525   0.943   2.951   1.471
  774HOH      O 2526   1.742   2.601   1.049
  774HOH     H1 2527   1.661   2.559   1.077
  774HOH     H2 2528   1.811   2.542   1.080
  775HOH      O 2529   1.136   0.692   3.861
  775HOH     H1 2530   1.158   0.736   3.943
  775HOH     H2 2531   1.221   0.668   3.824
  776HOH      O 2532   1.477   1.135   0.014
  776HOH     H1 2533   1.421   1.112   0.088
  776HOH     H2 2534   1.548   1.071   0.017
  777HOH      O 2535   0.234   1.026  -0.017
  777HOH     H1 2536   0.329   1.014  -0.019
  777HOH     H2 2537   0.203   0.953   0.037
  778HOH      O 2538   0.780   2.006   3.554
  778HOH     H1 2539   0.731   1.927   3.530
  778HOH     H2 2540   0.740   2.035   3.636
  779HOH      O 2541   1.830   1.207   1.131
  779HOH     H1 2542   1.742   1.181   1.101
  779HOH     H2 2543   1.883   1.205   1.051
  780HOH      O 2544   3.232   0.382   3.834
  780HOH     H1 2545   3.225   0.383   3.739
  780HOH     H2 2546   3.249   0.473   3.858
  781HOH      O 2547   1.927   3.924   2.712
  781HOH     H1 2548   1.932   3.832   2.737
  781HOH     H2 2549   2.011   3.960   2.737
  782HOH      O 2550   4.039   1.618   2.700
  782HOH     H1 2551   4.101   1.688   2.677
  782HOH     H2 2552   3.957   1.665   2.719
  783HOH      O 2553   0.246   0.656   1.053
  783HOH     H1 2554   0.204   0.741   1.044
  783HOH     H2 2555   0.340   0.675   1.053
  784HOH      O 2556   2.345   0.981   1.203
  784HOH     H1 2557   2.366   1.065   1.162
  784HOH     H2 2558   2.277   1.002   1.267
  785HOH      O 2559   3.005   1.358   0.910
  785HOH     H1 2560   3.005   1.318   0.823
  785HOH     H2 2561   3.036   1.289   0.968
  786HOH      O 2562   3.329   1.950   2.301
  786HOH     H1 2563   3.292   2.034   2.272
  786HOH     H2 2564   3.321   1.952   2.396
  787HOH      O 2565   0.731   0.724   2.538
  787HOH     H1 2566   0.755   0.633   2.556
  787HOH     H2 2567   0.771   0.773   2.610
  788HOH      O 2568   0.880   0.920   3.858
  788HOH     H1 2569   0.900   0.840   3.906
  788HOH     H2 2570   0.928   0.911   3.776
  789HOH      O 2571   0.886   3.415   0.065
  789HOH     H1 2572   0.973   3.393   0.033
  789HOH     H2 2573   0.885   3.511   0.066
  790HOH      O 2574   0.093   2.988   3.213
  790HOH     H1 2575   0.060   3.024   3.296
  790HOH     H2 2576   0.173   2.942   3.236
  791HOH      O 2577   2.193   1.771   1.851
  791HOH     H1 2578   2.234   1.855   1.873
  791HOH     H2 2579   2.264   1.718   1.816
  792HOH      O 2580   2.227   1.768   1.425
  792HOH     H1 2581   2.285   1.840   1.451
  792HOH     H2 2582   2.238   1.703   1.495
  793HOH      O 2583   1.629   2.968   3.515
  793HOH     H1 2584   1.659   2.893   3.465
  793HOH     H2 2585   1.608   2.933   3.601
  794HOH      O 2586   1.348   3.866   0.989
  794HOH     H1 2587   1.289   3.831   0.923
  794HOH     H2 2588   1.312   3.952   1.011
  795HOH      O 2589   2.195   2.278   0.091
  795HOH     H1 2590   2.260   2.268   0.161
  795HOH     H2 2591   2.214   2.364   0.053
  796HOH      O 2592   3.125   2.606   2.320
  796HOH     H1 2593   3.119   2.514   2.293
  796HOH     H2 2594   3.213   2.614   2.357
  797HOH      O 2595   1.206   0.902   0.031
  797HOH     H1 2596   1.284   0.852   0.007
  797HOH     H2 2597   1.166   0.851   0.101
  798HOH      O 2598   3.653   0.250   0.794
  798HOH     H1 2599   3.621   0.234   0.705
  798HOH     H2 2600   3.579   0.290   0.839
  799HOH      O 2601   2.237   2.638   3.638
  799HOH     H1 2602   2.226   2.548   3.665
  799HOH     H2 2603   2.205   2.640   3.548
  800HOH      O 2604   1.078   0.080   3.433
  800HOH     H1 2605   1.012   0.099   3.500
  800HOH     H2 2606   1.120  -0.001   3.463
  801HOH      O 2607   2.009   0.345   0.142
  801HOH     H1 2608   2.002   0.350   0.046
  801HOH     H2 2609   1.921   0.320   0.171
  802HOH      O 2610   1.482   0.836   3.327
  802HOH     H1 2611   1.407   0.894   3.317
  802HOH     H2 2612   1.533   0.874   3.399
  803HOH      O 2613   1.556   1.717   4.038
  803HOH     H1 2614   1.538   1.655   3.967
  803HOH     H2 2615   1.619   1.672   4.094
  804HOH      O 2616   1.245   1.002   3.254
  804HOH     H1 2617   1.265   1.064   3.184
  804HOH     H2 2618   1.184   1.048   3.311
  805HOH      O 2619   0.122   2.607   3.852
  805HOH     H1 2620   0.203   2.570   3.886
  805HOH     H2 2621   0.142   2.698   3.833
  806HOH      O 2622   2.369   2.901   2.387
  806HOH     H1 2623   2.439   2.955   2.424
  806HOH     H2 2624   2.295   2.914   2.446
  807HOH      O 2625   0.654   3.448   3.974
  807HOH     H1 2626   0.743   3.458   4.008
  807HOH     H2 2627   0.656   3.368   3.922
  808HOH      O 2628   0.577   1.511   0.773
  808HOH     H1 2629   0.586   1.427   0.819
  808HOH     H2 2630   0.486   1.538   0.790
  809HOH      O 2631   4.002   1.797   0.545
  809HOH     H1 2632   3.945   1.720   0.555
  809HOH     H2 2633   4.090   1.760   0.533
  810HOH      O 2634   1.731   0.114   1.531
  810HOH     H1 2635   1.753   0.058   1.606
  810HOH     H2 2636   1.815   0.133   1.490
  811HOH      O 2637   0.387   2.065   3.994
  811HOH     H1 2638   0.376   2.059   3.899
  811HOH     H2 2639   0.404   1.975   4.021
  812HOH      O 2640   0.412   2.358   1.078
  812HOH     H1 2641   0.449   2.397   0.999
  812HOH     H2 2642   0.420   2.264   1.065
  813HOH      O 2643   4.047   2.053   3.113
  813HOH     H1 2644   3.960   2.017   3.096
  813HOH     H2 2645   4.098   1.979   3.146
  814HOH      O 2646   3.789   2.421   2.949
  814HOH     H1 2647   3.850   2.416   2.875
  814HOH     H2 2648   3.845   2.419   3.027
  815HOH      O 2649   3.423   0.648   2.396
  815HOH     H1 2650   3.484   0.695   2.454
  815HOH     H2 2651   3.400   0.712   2.330
  816HOH      O 2652   1.676   1.796   3.164
  816HOH     H1 2653   1.703   1.857   3.232
  816HOH     H2 2654   1.698   1.840   3.082
  817HOH      O 2655   3.814   2.500   1.089
  817HOH     H1 2656   3.865   2.544   1.158
  817HOH     H2 2657   3.777   2.571   1.037
  818HOH      O 2658   0.928   1.348   0.877
  818HOH     H1 2659   0.885   1.429   0.904
  818HOH     H2 2660   0.977   1.373   0.798
  819HOH      O 2661   0.414   2.677   2.390
  819HOH     H1 2662   0.474   2.616   2.346
  819HOH     H2 2663   0.366   2.622   2.452
  820HOH      O 2664   0.495   2.781   3.586
  820HOH     H1 2665   0.558   2.816   3.650
  820HOH     H2 2666   0.422   2.748   3.639
  821HOH      O 2667   4.006   1.885   3.844
  821HOH     H1 2668   4.075   1.832   3.805
  821HOH     H2 2669   3.946   1.904   3.772
  822HOH      O 2670   3.418   2.144   3.929
  822HOH     H1 2671   3.499   2.147   3.981
  822HOH     H2 2672   3.413   2.231   3.888
  823HOH      O 2673   1.132   1.450   1.299
  823HOH     H1 2674   1.201   1.517   1.301
  823HOH     H2 2675   1.056   1.497   1.265
  824HOH      O 2676   1.786   2.278   3.647
  824HOH     H1 2677   1.776   2.206   3.709
  824HOH     H2 2678   1.767   2.240   3.562
  825HOH      O 2679   0.793   2.108   2.891
  825HOH     H1 2680   0.828   2.118   2.802
  825HOH     H2 2681   0.820   2.187   2.937
  826HOH      O 2682   1.146   0.458   0.112
  826HOH     H1 2683   1.179   0.479   0.024
  826HOH     H2 2684   1.211   0.398   0.148
  827HOH      O 2685   1.469   3.713   0.573
  827HOH     H1 2686   1.377   3.688   0.583
  827HOH     H2 2687   1.515   3.665   0.641
  828HOH      O 2688   3.223   0.029   3.439
  828HOH     H1 2689   3.273  -0.026   3.378
  828HOH     H2 2690   3.279   0.105   3.453
  829HOH      O 2691   3.309   2.824   3.259
  829HOH     H1 2692   3.356   2.772   3.323
  829HOH     H2 2693   3.281   2.761   3.192
  830HOH      O 2694   1.697   0.360   1.704
  830HOH     H1 2695   1.675   0.438   1.654
  830HOH     H2 2696   1.755   0.310   1.647
  831HOH      O 2697   3.250   1.483   1.009
  831HOH     H1 2698   3.167   1.435   1.002
  831HOH     H2 2699   3.317   1.418   0.990
  832HOH      O 2700   3.415   0.364   2.662
  832HOH     H1 2701   3.496   0.327   2.697
  832HOH     H2 2702   3.429   0.366   2.567
  833HOH      O 2703   2.314   1.394   0.767
  833HOH     H1 2704   2.349   1.440   0.844
  833HOH     H2 2705   2.364   1.430   0.694
  834HOH      O 2706   2.124   1.220   2.089
  834HOH     H1 2707   2.059   1.270   2.139
  834HOH     H2 2708   2.179   1.178   2.156
  835HOH      O 2709   1.884   0.767   2.705
  835HOH     H1 2710   1.813   0.703   2.705
  835HOH     H2 2711   1.962   0.716   2.683
  836HOH      O 2712   3.786   1.928   1.692
  836HOH     H1 2713   3.732   1.866   1.643
  836HOH     H2 2714   3.814   1.993   1.627
  837HOH      O 2715   3.131   0.713   0.304
  837HOH     H1 2716   3.181   0.775   0.357
  837HOH     H2 2717   3.040   0.733   0.325
  838HOH      O 2718   3.821   1.897   3.649
  838HOH     H1 2719   3.814   1.886   3.554
  838HOH     H2 2720   3.730   1.892   3.680
  839HOH      O 2721   1.345   2.731   0.616
  839HOH     H1 2722   1.307   2.818   0.622
  839HOH     H2 2723   1.355   2.715   0.523
  840HOH      O 2724   2.725   2.854   2.985
  840HOH     H1 2725   2.703   2.763   3.007
  840HOH     H2 2726   2.801   2.874   3.040
  841HOH      O 2727   1.824   3.532   0.059
  841HOH     H1 2728   1.890   3.506  -0.005
  841HOH     H2 2729   1.757   3.578   0.008
  842HOH      O 2730   1.373   2.811   3.990
  842HOH     H1 2731   1.313   2.851   4.053
  842HOH     H2 2732   1.458   2.814   4.034
  843HOH      O 2733   3.759   2.748   0.948
  843HOH     H1 2734   3.791   2.837   0.940
  843HOH     H2 2735   3.746   2.719   0.858
  844HOH      O 2736   1.918   3.227   0.496
  844HOH     H1 2737   1.861   3.224   0.573
  844HOH     H2 2738   1.927   3.136   0.469
  845HOH      O 2739   2.658   3.507   3.920
  845HOH     H1 2740   2.685   3.591   3.883
  845HOH     H2 2741   2.647   3.450   3.844
  846HOH      O 2742   0.707   2.909   3.802
  846HOH     H1 2743   0.801   2.900   3.785
  846HOH     H2 2744   0.701   2.931   3.895
  847HOH      O 2745   2.364   0.345   0.424
  847HOH     H1 2746   2.442   0.382   0.467
  847HOH     H2 2747   2.370   0.251   0.442
  848HOH      O 2748   3.187   0.211   2.429
  848HOH     H1 2749   3.148   0.281   2.377
  848HOH     H2 2750   3.280   0.214   2.408
  849HOH      O 2751   1.594   3.583   0.772
  849HOH     H1 2752   1.667   3.526   0.745
  849HOH     H2 2753   1.623   3.620   0.855
  850HOH      O 2754   3.991   0.897   2.778
  850HOH     H1 2755   3.992   0.934   2.866
  850HOH     H2 2756   4.038   0.961   2.724
  851HOH      O 2757   1.727   2.882   1.086
  851HOH     H1 2758   1.823   2.883   1.083
  851HOH     H2 2759   1.704   2.793   1.057
  852HOH      O 2760   1.484   1.503   2.774
  852HOH     H1 2761   1.517   1.467   2.857
  852HOH     H2 2762   1.396   1.533   2.795
  853HOH      O 2763   2.727   0.639   3.435
  853HOH     H1 2764   2.800   0.691   3.468
  853HOH     H2 2765   2.649   0.682   3.469
  854HOH      O 2766   3.631   3.678   2.679
  854HOH     H1 2767   3.695   3.690   2.750
  854HOH     H2 2768   3.560   3.738   2.700
  855HOH      O 2769   1.169   1.819   2.645
  855HOH     H1 2770   1.198   1.794   2.732
  855HOH     H2 2771   1.242   1.869   2.609
  856HOH      O 2772   0.215   2.995   0.982
  856HOH     H1 2773   0.283   3.053   0.947
  856HOH     H2 2774   0.138   3.051   0.992
  857HOH      O 2775   2.835   1.420   0.534
  857HOH     H1 2776   2.863   1.330   0.546
  857HOH     H2 2777   2.902   1.472   0.578
  858HOH      O 2778   3.159   0.673   3.621
  858HOH     H1 2779   3.233   0.696   3.677
  858HOH     H2 2780   3.189   0.597   3.571
  859HOH      O 2781   1.912   1.527   2.533
  859HOH     H1 2782   1.908   1.590   2.461
  859HOH     H2 2783   2.004   1.498   2.534
  860HOH      O 2784   0.742   0.294   3.774
  860HOH     H1 2785   0.695   0.370   3.739
  860HOH     H2 2786   0.749   0.311   3.868
  861HOH      O 2787   3.443   1.272   2.136
  861HOH     H1 2788   3.534   1.260   2.108
  861HOH     H2 2789   3.447   1.267   2.232
  862HOH      O 2790   0.489   0.995   3.984
  862HOH     H1 2791   0.540   1.005   4.065
  862HOH     H2 2792   0.533   0.924   3.938
  863HOH      O 2793   1.399   3.017   3.385
  863HOH     H1 2794   1.354   2.933   3.391
  863HOH     H2 2795   1.479   3.005   3.437
  864HOH      O 2796   0.840   3.019   2.047
  864HOH     H1 2797   0.858   2.927   2.027
  864HOH     H2 2798   0.778   3.015   2.120
  865HOH      O 2799   1.204   3.397   1.928
  865HOH     H1 2800   1.175   3.324   1.982
  865HOH     H2 2801   1.274   3.438   1.978
  866HOH      O 2802   2.241   0.039   4.003
  866HOH     H1 2803   2.301  -0.036   3.998
  866HOH     H2 2804   2.155   0.002   3.981
  867HOH      O 2805   0.491   2.384   0.816
  867HOH     H1 2806   0.485   2.478   0.802
  867HOH     H2 2807   0.548   2.353   0.746
  868HOH      O 2808   0.670   3.328   3.055
  868HOH     H1 2809   0.697   3.313   2.965
  868HOH     H2 2810   0.752   3.337   3.104
  869HOH      O 2811   1.265   0.332   3.833
  869HOH     H1 2812   1.266   0.352   3.740
  869HOH     H2 2813   1.172   0.329   3.856
  870HOH      O 2814   2.186   3.166   0.078
  870HOH     H1 2815   2.225   3.081   0.099
  870HOH     H2 2816   2.258   3.228   0.086
  871HOH      O 2817   3.217   3.229   1.204
  871HOH     H1 2818   3.303   3.271   1.206
  871HOH     H2 2819   3.223   3.158   1.268
  872HOH      O 2820   3.149   0.448   2.688
  872HOH     H1 2821   3.094   0.371   2.695
  872HOH     H2 2822   3.237   0.413   2.675
  873HOH      O 2823   1.000   3.021   1.115
  873HOH     H1 2824   0.915   3.063   1.104
  873HOH     H2 2825   1.033   3.056   1.198
  874HOH      O 2826   2.739   1.224   2.571
  874HOH     H1 2827   2.728   1.218   2.476
  874HOH     H2 2828   2.650   1.233   2.605
  875HOH      O 2829   3.743   2.830   4.014
  875HOH     H1 2830   3.800   2.906   4.000
  875HOH     H2 2831   3.790   2.758   3.971
  876HOH      O 2832   3.357   3.655   0.585
  876HOH     H1 2833   3.330   3.742   0.555
  876HOH     H2 2834   3.278   3.616   0.623
  877HOH      O 2835   3.693   1.295   2.871
  877HOH     H1 2836   3.755   1.321   2.803
  877HOH     H2 2837   3.607   1.315   2.834
  878HOH      O 2838   0.318   0.457   2.515
  878HOH     H1 2839   0.224   0.452   2.497
  878HOH     H2 2840   0.345   0.366   2.527
  879HOH      O 2841   0.202   3.738   2.848
  879HOH     H1 2842   0.151   3.678   2.794
  879HOH     H2 2843   0.148   3.817   2.854
  880HOH      O 2844   0.364   2.333   0.080
  880HOH     H1 2845   0.341   2.303   0.168
  880HOH     H2 2846   0.358   2.254   0.026
  881HOH      O 2847   3.581   0.491   3.778
  881HOH     H1 2848   3.648   0.473   3.712
  881HOH     H2 2849   3.567   0.585   3.774
  882HOH      O 2850   0.594   2.894   0.213
  882HOH     H1 2851   0.518   2.950   0.197
  882HOH     H2 2852   0.665   2.954   0.234
  883HOH      O 2853   1.534   0.226   1.103
  883HOH     H1 2854   1.511   0.219   1.196
  883HOH     H2 2855   1.547   0.135   1.075
  884HOH      O 2856   1.454   3.228   1.978
  884HOH     H1 2857   1.530   3.240   1.921
  884HOH     H2 2858   1.443   3.313   2.020
  885HOH      O 2859   1.173   0.927   1.645
  885HOH     H1 2860   1.129   0.915   1.729
  885HOH     H2 2861   1.192   1.021   1.641
  886HOH      O 2862   2.881   1.961   1.335
  886HOH     H1 2863   2.946   1.917   1.390
  886HOH     H2 2864   2.932   2.007   1.269
  887HOH      O 2865   0.927   0.838   2.693
  887HOH     H1 2866   0.998   0.805   2.747
  887HOH     H2 2867   0.886   0.906   2.746
  888HOH      O 2868   2.025   1.059   2.463
  888HOH     H1 2869   2.101   1.094   2.416
  888HOH     H2 2870   1.950   1.078   2.407
  889HOH      O 2871   0.214   3.679   3.822
  889HOH     H1 2872   0.232   3.754   3.879
  889HOH     H2 2873   0.145   3.709   3.764
  890HOH      O 2874   1.930   2.054   3.125
  890HOH     H1 2875   1.838   2.072   3.103
  890HOH     H2 2876   1.944   1.964   3.094
  891HOH      O 2877   2.699   1.900   0.656
  891HOH     H1 2878   2.712   1.994   0.664
  891HOH     H2 2879   2.764   1.861   0.714
  892HOH      O 2880   0.389   1.614   1.318
  892HOH     H1 2881   0.416   1.617   1.226
  892HOH     H2 2882   0.294   1.611   1.315
  893HOH      O 2883   1.762   0.490   3.410
  893HOH     H1 2884   1.746   0.433   3.335
  893HOH     H2 2885   1.749   0.579   3.376
  894HOH      O 2886   1.498   0.558   3.278
  894HOH     H1 2887   1.514   0.651   3.295
  894HOH     H2 2888   1.490   0.552   3.183
  895HOH      O 2889   1.225   1.692   1.819
  895HOH     H1 2890   1.205   1.681   1.726
  895HOH     H2 2891   1.215   1.604   1.856
  896HOH      O 2892   1.148   1.347   4.050
  896HOH     H1 2893   1.129   1.437   4.025
  896HOH     H2 2894   1.235   1.329   4.014
  897HOH      O 2895   1.413   0.661   3.751
  897HOH     H1 2896   1.508   0.669   3.754
  897HOH     H2 2897   1.397   0.584   3.696
  898HOH      O 2898   1.289   2.719   3.382
  898HOH     H1 2899   1.353   2.672   3.436
  898HOH     H2 2900   1.214   2.659   3.379
  899HOH      O 2901   3.889   3.145   1.929
  899HOH     H1 2902   3.943   3.087   1.874
  899HOH     H2 2903   3.830   3.188   1.867
  900HOH      O 2904   2.619   0.098   3.820
  900HOH     H1 2905   2.564   0.169   3.852
  900HOH     H2 2906   2.557   0.032   3.790
  901HOH      O 2907   1.771   0.685   2.994
  901HOH     H1 2908   1.727   0.638   2.923
  901HOH     H2 2909   1.846   0.631   3.016
  902HOH      O 2910   2.189   1.135   2.892
  902HOH     H1 2911   2.099   1.165   2.896
  902HOH     H2 2912   2.220   1.165   2.806
  903HOH      O 2913   3.984   3.514   0.821
  903HOH     H1 2914   3.891   3.494   0.831
  903HOH     H2 2915   3.992   3.606   0.847
  904HOH      O 2916   2.559   0.669   0.215
  904HOH     H1 2917   2.613   0.649   0.139
  904HOH     H2 2918   2.565   0.592   0.270
  905HOH      O 2919   1.530   1.470   0.957
  905HOH     H1 2920   1.618   1.491   0.989
  905HOH     H2 2921   1.484   1.553   0.956
  906HOH      O 2922   1.689   1.848   2.570
  906HOH     H1 2923   1.778   1.867   2.543
  906HOH     H2 2924   1.634   1.892   2.505
  907HOH      O 2925   1.749   3.488   3.409
  907HOH     H1 2926   1.700   3.436   3.472
  907HOH     H2 2927   1.800   3.424   3.360
  908HOH      O 2928   3.381   0.983   3.735
  908HOH     H1 2929   3.388   1.037   3.814
  908HOH     H2 2930   3.355   0.897   3.766
  909HOH      O 2931   2.404   0.170   0.129
  909HOH     H1 2932   2.331   0.128   0.084
  909HOH     H2 2933   2.371   0.187   0.218
  910HOH      O 2934   2.279   3.785   3.862
  910HOH     H1 2935   2.247   3.708   3.909
  910HOH     H2 2936   2.226   3.789   3.782
  911HOH      O 2937   3.262   2.036   3.469
  911HOH     H1 2938   3.181   2.073   3.434
  911HOH     H2 2939   3.325   2.044   3.397
  912HOH      O 2940   2.639   0.840   1.050
  912HOH     H1 2941   2.618   0.918   0.998
  912HOH     H2 2942   2.692   0.786   0.992
  913HOH      O 2943   0.011   2.922   3.763
  913HOH     H1 2944   0.084   2.948   3.706
  913HOH     H2 2945   0.012   2.987   3.834
  914HOH      O 2946   1.027   4.029   0.413
  914HOH     H1 2947   0.962   3.960   0.412
  914HOH     H2 2948   1.054   4.037   0.504
  915HOH      O 2949   1.382   3.986   1.562
  915HOH     H1 2950   1.408   4.035   1.484
  915HOH     H2 2951   1.464   3.968   1.608
  916HOH      O 2952   3.477   1.221   3.902
  916HOH     H1 2953   3.561   1.181   3.923
  916HOH     H2 2954   3.493   1.268   3.820
  917HOH      O 2955   1.340   3.989   0.667
  917HOH     H1 2956   1.318   3.935   0.591
  917HOH     H2 2957   1.425   3.957   0.696
  918HOH      O 2958   0.128   3.039   0.332
  918HOH     H1 2959   0.064   3.004   0.270
  918HOH     H2 2960   0.101   3.130   0.345
  919HOH      O 2961   0.929   3.408   1.094
  919HOH     H1 2962   0.886   3.345   1.037
  919HOH     H2 2963   0.926   3.368   1.181
  920HOH      O 2964   1.844   0.122   2.761
  920HOH     H1 2965   1.873   0.045   2.712
  920HOH     H2 2966   1.840   0.191   2.695
  921HOH      O 2967   2.233   3.497   3.381
  921HOH     H1 2968   2.261   3.587   3.398
  921HOH     H2 2969   2.217   3.494   3.287
  922HOH      O 2970   2.853   3.838   1.128
  922HOH     H1 2971   2.788   3.839   1.198
  922HOH     H2 2972   2.818   3.776   1.064
  923HOH      O 2973   0.915   0.139   3.635
  923HOH     H1 2974   0.927   0.063   3.693
  923HOH     H2 2975   0.847   0.190   3.676
  924HOH      O 2976   3.861   1.147   1.270
  924HOH     H1 2977   3.896   1.059   1.287
  924HOH     H2 2978   3.932   1.191   1.222
  925HOH      O 2979   1.525   3.547   0.106
  925HOH     H1 2980   1.563   3.562   0.019
  925HOH     H2 2981   1.571   3.608   0.163
  926HOH      O 2982   1.172   2.505   1.947
  926HOH     H1 2983   1.230   2.562   1.998
  926HOH     H2 2984   1.222   2.483   1.868
  927HOH      O 2985   2.266   0.504   0.172
  927HOH     H1 2986   2.196   0.439   0.171
  927HOH     H2 2987   2.311   0.488   0.255
  928HOH      O 2988   3.038   0.837   2.885
  928HOH     H1 2989   2.967   0.805   2.940
  928HOH     H2 2990   3.010   0.924   2.857
  929HOH      O 2991   3.186   3.770   1.257
  929HOH     H1 2992   3.189   3.704   1.187
  929HOH     H2 2993   3.206   3.852   1.213
  930HOH      O 2994   2.625   0.003   2.253
  930HOH     H1 2995   2.561   0.031   2.187
  930HOH     H2 2996   2.677   0.082   2.270
  931HOH      O 2997   1.460   0.175   1.419
  931HOH     H1 2998   1.433   0.267   1.427
  931HOH     H2 2999   1.549   0.174   1.454
  932HOH      O 3000   2.931   2.644   1.522
  932HOH     H1 3001   3.008   2.618   1.472
  932HOH     H2 3002   2.889   2.711   1.468
  933HOH      O 3003   0.085   1.928   0.133
  933HOH     H1 3004   0.020   1.908   0.066
  933HOH     H2 3005   0.147   1.855   0.130
  934HOH      O 3006   0.206   2.638   3.564
  934HOH     H1 3007   0.249   2.554   3.551
  934HOH     H2 3008   0.197   2.646   3.659
  935HOH      O 3009   2.615   3.447   3.048
  935HOH     H1 3010   2.566   3.504   2.990
  935HOH     H2 3011   2.597   3.481   3.136
  936HOH      O 3012   0.427   1.065   3.658
  936HOH     H1 3013   0.466   0.994   3.708
  936HOH     H2 3014   0.451   1.047   3.567
  937HOH      O 3015   0.579   2.125   2.202
  937HOH     H1 3016   0.604   2.056   2.142
  937HOH     H2 3017   0.511   2.174   2.156
  938HOH      O 3018   0.869   3.083   3.153
  938HOH     H1 3019   0.781   3.055   3.125
  938HOH     H2 3020   0.910   3.116   3.073
  939HOH      O 3021   2.720   3.927   1.917
  939HOH     H1 3022   2.742   3.836   1.897
  939HOH     H2 3023   2.629   3.924   1.947
  940HOH      O 3024   1.532   0.924   2.749
  940HOH     H1 3025   1.611   0.947   2.700
  940HOH     H2 3026   1.493   1.009   2.772
  941HOH      O 3027   2.648   3.248   1.198
  941HOH     H1 3028   2.640   3.157   1.168
  941HOH     H2 3029   2.691   3.294   1.126
  942HOH      O 3030   1.731   1.246   3.340
  942HOH     H1 3031   1.658   1.306   3.355
  942HOH     H2 3032   1.786   1.292   3.277
  943HOH      O 3033   0.863   2.144   1.910
  943HOH     H1 3034   0.768   2.146   1.917
  943HOH     H2 3035   0.888   2.056   1.940
  944HOH      O 3036   0.781   0.450   2.683
  944HOH     H1 3037   0.834   0.466   2.761
  944HOH     H2 3038   0.839   0.405   2.623
  945HOH      O 3039   0.112   0.273   1.355
  945HOH     H1 3040   0.022   0.281   1.388
  945HOH     H2 3041   0.109   0.310   1.267
  946HOH      O 3042   3.233   0.542   3.112
  946HOH     H1 3043   3.282   0.624   3.121
  946HOH     H2 3044   3.164   0.562   3.049
  947HOH      O 3045   3.901   2.915   3.414
  947HOH     H1 3046   3.872   2.910   3.323
  947HOH     H2 3047   3.934   3.005   3.423
  948HOH      O 3048   1.652   3.289   3.575
  948HOH     H1 3049   1.697   3.264   3.656
  948HOH     H2 3050   1.608   3.209   3.546
  949HOH      O 3051   3.439   2.475   1.780
  949HOH     H1 3052   3.470   2.565   1.791
  949HOH     H2 3053   3.379   2.462   1.854
  950HOH      O 3054   0.635   3.724   0.298
  950HOH     H1 3055   0.622   3.637   0.261
  950HOH     H2 3056   0.711   3.759   0.250
  951HOH      O 3057   3.465   1.631   1.130
  951HOH     H1 3058   3.417   1.552   1.105
  951HOH     H2 3059   3.396   1.695   1.149
  952HOH      O 3060   3.502   2.431   1.085
  952HOH     H1 3061   3.597   2.422   1.099
  952HOH     H2 3062   3.493   2.437   0.990
  953HOH      O 3063   3.887   3.312   3.734
  953HOH     H1 3064   3.895   3.217   3.732
  953HOH     H2 3065   3.824   3.329   3.804
  954HOH      O 3066   1.072   2.599   3.259
  954HOH     H1 3067   1.040   2.688   3.248
  954HOH     H2 3068   1.077   2.564   3.170
  955HOH      O 3069   3.487   0.575   0.947
  955HOH     H1 3070   3.457   0.505   0.889
  955HOH     H2 3071   3.559   0.616   0.899
  956HOH      O 3072   2.122   2.882   3.789
  956HOH     H1 3073   2.170   2.806   3.757
  956HOH     H2 3074   2.081   2.853   3.870
  957HOH      O 3075   3.782   2.001   3.104
  957HOH     H1 3076   3.770   2.089   3.141
  957HOH     H2 3077   3.780   2.015   3.010
  958HOH      O 3078   1.631  -0.001   0.748
  958HOH     H1 3079   1.663   0.060   0.681
  958HOH     H2 3080   1.652   0.041   0.831
  959HOH      O 3081   3.590   3.140   3.234
  959HOH     H1 3082   3.617   3.220   3.189
  959HOH     H2 3083   3.598   3.161   3.327
  960HOH      O 3084   0.775   1.310   2.923
  960HOH     H1 3085   0.866   1.322   2.948
  960HOH     H2 3086   0.726   1.321   3.005
  961HOH      O 3087   2.272   3.301   0.347
  961HOH     H1 3088   2.183   3.330   0.326
  961HOH     H2 3089   2.261   3.231   0.411
  962HOH      O 3090   0.848   3.213   0.879
  962HOH     H1 3091   0.818   3.261   0.802
  962HOH     H2 3092   0.843   3.121   0.853
  963HOH      O 3093   0.680   1.509   1.197
  963HOH     H1 3094   0.639   1.423   1.197
  963HOH     H2 3095   0.624   1.562   1.141
  964HOH      O 3096   1.796   2.933   3.829
  964HOH     H1 3097   1.758   2.988   3.898
  964HOH     H2 3098   1.852   2.993   3.779
  965HOH      O 3099   3.813   2.809   2.174
  965HOH     H1 3100   3.878   2.840   2.238
  965HOH     H2 3101   3.865   2.765   2.107
  966HOH      O 3102   2.260   1.576   1.631
  966HOH     H1 3103   2.265   1.510   1.700
  966HOH     H2 3104   2.348   1.576   1.592
  967HOH      O 3105   3.435   0.971   0.580
  967HOH     H1 3106   3.405   1.040   0.638
  967HOH     H2 3107   3.507   0.929   0.627
  968HOH      O 3108   0.647   1.535   2.423
  968HOH     H1 3109   0.637   1.625   2.454
  968HOH     H2 3110   0.696   1.491   2.493
  969HOH      O 3111   0.461   0.722   3.341
  969HOH     H1 3112   0.514   0.798   3.365
  969HOH     H2 3113   0.372   0.744   3.369
  970HOH      O 3114   2.530   2.187   2.610
  970HOH     H1 3115   2.600   2.187   2.545
  970HOH     H2 3116   2.466   2.125   2.578
  971HOH      O 3117   3.579   3.086   2.326
  971HOH     H1 3118   3.613   3.090   2.236
  971HOH     H2 3119   3.517   3.012   2.324
  972HOH      O 3120   0.336   3.349   1.478
  972HOH     H1 3121   0.382   3.433   1.469
  972HOH     H2 3122   0.297   3.353   1.566
  973HOH      O 3123   2.237   2.695   1.390
  973HOH     H1 3124   2.264   2.775   1.345
  973HOH     H2 3125   2.142   2.706   1.402
  974HOH      O 3126   3.635   1.269   0.896
  974HOH     H1 3127   3.546   1.243   0.919
  974HOH     H2 3128   3.677   1.286   0.981
  975HOH      O 3129   2.441   2.712   3.108
  975HOH     H1 3130   2.394   2.631   3.087
  975HOH     H2 3131   2.451   2.757   3.024
  976HOH      O 3132   2.712   1.947   2.079
  976HOH     H1 3133   2.619   1.967   2.067
  976HOH     H2 3134   2.748   2.024   2.122
  977HOH      O 3135   2.925   3.183   1.030
  977HOH     H1 3136   2.843   3.232   1.019
  977HOH     H2 3137   2.902   3.108   1.085
  978HOH      O 3138   1.208   2.372   1.033
  978HOH     H1 3139   1.170   2.293   1.071
  978HOH     H2 3140   1.268   2.404   1.100
  979HOH      O 3141   3.685   1.330   2.429
  979HOH     H1 3142   3.651   1.410   2.469
  979HOH     H2 3143   3.648   1.260   2.483
  980HOH      O 3144   2.531   3.947   2.868
  980HOH     H1 3145   2.588   4.020   2.891
  980HOH     H2 3146   2.449   3.988   2.840
  981HOH      O 3147   3.500   1.462   0.070
  981HOH     H1 3148   3.416   1.418   0.051
  981HOH     H2 3149   3.484   1.510   0.150
  982HOH      O 3150   1.511   2.260   0.787
  982HOH     H1 3151   1.467   2.345   0.781
  982HOH     H2 3152   1.547   2.257   0.876
  983HOH      O 3153   3.204   2.795   1.867
  983HOH     H1 3154   3.136   2.740   1.907
  983HOH     H2 3155   3.172   2.810   1.778
  984HOH      O 3156   2.429   3.043   3.518
  984HOH     H1 3157   2.453   2.984   3.590
  984HOH     H2 3158   2.392   2.985   3.451
  985HOH      O 3159   0.649   2.949   3.082
  985HOH     H1 3160   0.612   2.860   3.079
  985HOH     H2 3161   0.614   2.992   3.004
  986HOH      O 3162   2.636   1.385   3.454
  986HOH     H1 3163   2.676   1.415   3.372
  986HOH     H2 3164   2.709   1.374   3.515
  987HOH      O 3165   2.059   1.608   0.862
  987HOH     H1 3166   2.089   1.660   0.788
  987HOH     H2 3167   2.140   1.580   0.906
  988HOH      O 3168   1.082  -0.003   1.636
  988HOH     H1 3169   1.166   0.025   1.673
  988HOH     H2 3170   1.017   0.025   1.700
  989HOH      O 3171   1.664   3.415   1.615
  989HOH     H1 3172   1.590   3.358   1.637
  989HOH     H2 3173   1.736   3.354   1.595
  990HOH      O 3174   3.997   2.581   2.391
  990HOH     H1 3175   3.975   2.671   2.367
  990HOH     H2 3176   3.953   2.569   2.476
  991HOH      O 3177   0.372   3.735   3.305
  991HOH     H1 3178   0.404   3.715   3.217
  991HOH     H2 3179   0.421   3.812   3.332
  992HOH      O 3180   0.796   2.276   2.330
  992HOH     H1 3181   0.767   2.343   2.392
  992HOH     H2 3182   0.718   2.223   2.313
  993HOH      O 3183   2.864   2.262   3.648
  993HOH     H1 3184   2.825   2.182   3.682
  993HOH     H2 3185   2.920   2.233   3.576
  994HOH      O 3186   2.879   2.072   1.765
  994HOH     H1 3187   2.813   2.087   1.697
  994HOH     H2 3188   2.905   1.981   1.755
  995HOH      O 3189   3.531   3.546   3.273
  995HOH     H1 3190   3.463   3.510   3.331
  995HOH     H2 3191   3.530   3.489   3.197
  996HOH      O 3192   2.070   1.092   1.848
  996HOH     H1 3193   2.103   1.135   1.926
  996HOH     H2 3194   2.149   1.068   1.798
  997HOH      O 3195   0.331   0.202   2.899
  997HOH     H1 3196   0.279   0.197   2.819
  997HOH     H2 3197   0.414   0.242   2.872
  998HOH      O 3198   3.066   1.994   2.129
  998HOH     H1 3199   3.128   2.060   2.098
  998HOH     H2 3200   2.981   2.040   2.130
  999HOH      O 3201   2.828   0.183   2.333
  999HOH     H1 3202   2.832   0.171   2.428
  999HOH     H2 3203   2.897   0.247   2.314
 1000HOH      O 3204   0.319   2.867   0.049
 1000HOH     H1 3205   0.231   2.905   0.048
 1000HOH     H2 3206   0.306   2.777   0.079
 1001HOH      O 3207   3.621   1.351   0.607
 1001HOH     H1 3208   3.587   1.439   0.623
 1001HOH     H2 3209   3.592   1.300   0.684
 1002HOH      O 3210   3.203   1.270   1.263
 1002HOH     H1 3211   3.264   1.242   1.332
 1002HOH     H2 3212   3.118   1.275   1.307
 1003HOH      O 3213   3.567   2.490   2.514
 1003HOH     H1 3214   3.576   2.465   2.422
 1003HOH     H2 3215   3.657   2.492   2.547
 1004HOH      O 3216   3.071   2.150   3.076
 1004HOH     H1 3217   3.014   2.164   3.000
 1004HOH     H2 3218   3.052   2.060   3.104
 1005HOH      O 3219   2.881   0.924   0.132
 1005HOH     H1 3220   2.915   0.846   0.087
 1005HOH     H2 3221   2.895   0.995   0.070
 1006HOH      O 3222   2.225   1.958   3.559
 1006HOH     H1 3223   2.158   1.974   3.493
 1006HOH     H2 3224   2.229   1.863   3.568
 1007HOH      O 3225   3.855   0.733   3.229
 1007HOH     H1 3226   3.796   0.790   3.181
 1007HOH     H2 3227   3.859   0.653   3.177
 1008HOH      O 3228   2.770   2.871   3.677
 1008HOH     H1 3229   2.767   2.945   3.617
 1008HOH     H2 3230   2.730   2.798   3.629
 1009HOH      O 3231   1.704   0.824   1.838
 1009HOH     H1 3232   1.735   0.906   1.799
 1009HOH     H2 3233   1.611   0.838   1.853
 1010HOH      O 3234   1.509   2.137   2.573
 1010HOH     H1 3235   1.492   2.231   2.566
 1010HOH     H2 3236   1.588   2.130   2.625
 1011HOH      O 3237   2.998   3.469   3.564
 1011HOH     H1 3238   2.983   3.523   3.487
 1011HOH     H2 3239   2.912   3.431   3.584
 1012HOH      O 3240   2.860   0.426   3.507
 1012HOH     H1 3241   2.804   0.502   3.496
 1012HOH     H2 3242   2.933   0.441   3.446
 1013HOH      O 3243   0.296   1.598   1.644
 1013HOH     H1 3244   0.224   1.593   1.706
 1013HOH     H2 3245   0.254   1.602   1.558
 1014HOH      O 3246   1.964   1.159   0.138
 1014HOH     H1 3247   2.018   1.080   0.138
 1014HOH     H2 3248   1.874   1.126   0.133
 1015HOH      O 3249   2.510   0.070   0.447
 1015HOH     H1 3250   2.461   0.039   0.523
 1015HOH     H2 3251   2.564   0.142   0.481
 1016HOH      O 3252   1.669   3.001   1.509
 1016HOH     H1 3253   1.621   2.920   1.490
 1016HOH     H2 3254   1.625   3.068   1.456
 1017HOH      O 3255   0.690   0.827   0.198
 1017HOH     H1 3256   0.776   0.786   0.189
 1017HOH     H2 3257   0.709   0.919   0.218
 1018HOH      O 3258   0.939   3.399   3.175
 1018HOH     H1 3259   0.981   3.326   3.221
 1018HOH     H2 3260   1.011   3.442   3.128
 1019HOH      O 3261   0.774   3.461   2.063
 1019HOH     H1 3262   0.844   3.460   1.997
 1019HOH     H2 3263   0.704   3.408   2.024
 1020HOH      O 3264   0.386   0.428   3.961
 1020HOH     H1 3265   0.419   0.476   4.037
 1020HOH     H2 3266   0.360   0.343   3.997
 1021HOH      O 3267   3.431   0.828   1.602
 1021HOH     H1 3268   3.488   0.855   1.674
 1021HOH     H2 3269   3.486   0.774   1.546
 1022HOH      O 3270   1.774   0.743   3.279
 1022HOH     H1 3271   1.779   0.835   3.307
 1022HOH     H2 3272   1.774   0.748   3.183
 1023HOH      O 3273   1.548   1.342   2.580
 1023HOH     H1 3274   1.549   1.406   2.508
 1023HOH     H2 3275   1.530   1.395   2.658
 1024HOH      O 3276   1.363   2.718   0.340
 1024HOH     H1 3277   1.369   2.657   0.266
 1024HOH     H2 3278   1.343   2.802   0.299
 1025HOH      O 3279   2.925   2.514   2.634
 1025HOH     H1 3280   2.889   2.541   2.550
 1025HOH     H2 3281   2.947   2.596   2.679
 1026HOH      O 3282   0.465   0.743   0.902
 1026HOH     H1 3283   0.467   0.826   0.948
 1026HOH     H2 3284   0.490   0.765   0.812
 1027HOH      O 3285   0.599   2.558   1.484
 1027HOH     H1 3286   0.506   2.572   1.465
 1027HOH     H2 3287   0.621   2.477   1.438
 1028HOH      O 3288   1.356   0.590   1.700
 1028HOH     H1 3289   1.428   0.645   1.730
 1028HOH     H2 3290   1.355   0.600   1.605
 1029HOH      O 3291   3.336   3.705   1.493
 1029HOH     H1 3292   3.424   3.714   1.457
 1029HOH     H2 3293   3.278   3.712   1.417
 1030HOH      O 3294   1.187   1.024   2.253
 1030HOH     H1 3295   1.146   1.069   2.327
 1030HOH     H2 3296   1.215   0.940   2.289
 1031HOH      O 3297   3.127   2.479   0.475
 1031HOH     H1 3298   3.105   2.449   0.563
 1031HOH     H2 3299   3.055   2.448   0.420
 1032HOH      O 3300   2.075   0.399   0.736
 1032HOH     H1 3301   2.117   0.455   0.802
 1032HOH     H2 3302   2.077   0.451   0.656
 1033HOH      O 3303   1.865   0.756   0.651
 1033HOH     H1 3304   1.845   0.671   0.613
 1033HOH     H2 3305   1.850   0.744   0.745
 1034HOH      O 3306   2.432   3.932   1.200
 1034HOH     H1 3307   2.510   3.881   1.221
 1034HOH     H2 3308   2.405   3.901   1.114
 1035HOH      O 3309   0.497   1.350   0.022
 1035HOH     H1 3310   0.439   1.417  -0.016
 1035HOH     H2 3311   0.439   1.294   0.073
 1036HOH      O 3312   1.943   3.090   0.198
 1036HOH     H1 3313   2.019   3.134   0.160
 1036HOH     H2 3314   1.874   3.157   0.197
 1037HOH      O 3315   0.317   2.765   1.114
 1037HOH     H1 3316   0.322   2.744   1.020
 1037HOH     H2 3317   0.284   2.855   1.116
 1038HOH      O 3318   2.286   0.143   1.029
 1038HOH     H1 3319   2.379   0.165   1.030
 1038HOH     H2 3320   2.284   0.049   1.012
 1039HOH      O 3321   0.497   3.986   3.129
 1039HOH     H1 3322   0.536   4.016   3.210
 1039HOH     H2 3323   0.411   4.029   3.126
 1040HOH      O 3324   1.097   2.009   1.452
 1040HOH     H1 3325   1.001   2.015   1.445
 1040HOH     H2 3326   1.114   2.011   1.546
 1041HOH      O 3327   2.444   0.845   3.833
 1041HOH     H1 3328   2.368   0.902   3.839
 1041HOH     H2 3329   2.428   0.775   3.895
 1042HOH      O 3330   3.020   1.592   2.483
 1042HOH     H1 3331   3.012   1.687   2.470
 1042HOH     H2 3332   3.036   1.557   2.395
 1043HOH      O 3333   2.601   3.768   1.569
 1043HOH     H1 3334   2.527   3.707   1.559
 1043HOH     H2 3335   2.560   3.855   1.564
 1044HOH      O 3336   1.638   0.966   3.752
 1044HOH     H1 3337   1.677   0.954   3.838
 1044HOH     H2 3338   1.610   0.879   3.725
 1045HOH      O 3339   3.190   3.020   3.386
 1045HOH     H1 3340   3.242   2.946   3.353
 1045HOH     H2 3341   3.157   2.989   3.470
 1046HOH      O 3342   1.403   0.922   2.417
 1046HOH     H1 3343   1.438   1.004   2.383
 1046HOH     H2 3344   1.345   0.948   2.489
 1047HOH      O 3345   0.248   2.303   2.112
 1047HOH     H1 3346   0.217   2.381   2.158
 1047HOH     H2 3347   0.324   2.334   2.063
 1048HOH      O 3348   3.817   3.290   3.471
 1048HOH     H1 3349   3.723   3.302   3.463
 1048HOH     H2 3350   3.836   3.312   3.562
 1049HOH      O 3351   1.072   3.826   1.956
 1049HOH     H1 3352   1.036   3.790   2.037
 1049HOH     H2 3353   1.084   3.749   1.900
 1050HOH      O 3354   1.361   1.925   2.474
 1050HOH     H1 3355   1.392   1.986   2.541
 1050HOH     H2 3356   1.434   1.920   2.412
 1051HOH      O 3357   2.948   2.473   1.161
 1051HOH     H1 3358   2.892   2.548   1.181
 1051HOH     H2 3359   3.036   2.510   1.154
 1052HOH      O 3360   3.444   0.905   2.300
 1052HOH     H1 3361   3.512   0.964   2.331
 1052HOH     H2 3362   3.376   0.908   2.368
 1053HOH      O 3363   3.184   0.228   0.378
 1053HOH     H1 3364   3.090   0.220   0.364
 1053HOH     H2 3365   3.214   0.138   0.390
 1054HOH      O 3366   2.719   0.688   1.655
 1054HOH     H1 3367   2.748   0.603   1.689
 1054HOH     H2 3368   2.792   0.747   1.673
 1055HOH      O 3369   3.962   3.713   1.954
 1055HOH     H1 3370   3.890   3.754   2.002
 1055HOH     H2 3371   4.003   3.654   2.018
 1056HOH      O 3372   1.912   3.730   1.425
 1056HOH     H1 3373   2.001   3.751   1.396
 1056HOH     H2 3374   1.924   3.691   1.512
 1057HOH      O 3375   3.778   1.166   1.651
 1057HOH     H1 3376   3.823   1.122   1.723
 1057HOH     H2 3377   3.844   1.223   1.611
 1058HOH      O 3378   1.971   0.041   0.568
 1058HOH     H1 3379   1.966  -0.023   0.497
 1058HOH     H2 3380   1.886   0.085   0.567
 1059HOH      O 3381   1.308   3.798   2.076
 1059HOH     H1 3382   1.225   3.814   2.033
 1059HOH     H2 3383   1.340   3.716   2.037
 1060HOH      O 3384   0.940   4.038   3.196
 1060HOH     H1 3385   1.016   4.044   3.138
 1060HOH     H2 3386   0.978   4.033   3.284
 1061HOH      O 3387   3.341   2.285   0.248
 1061HOH     H1 3388   3.330   2.192   0.230
 1061HOH     H2 3389   3.430   2.293   0.282
 1062HOH      O 3390   0.311   3.388   0.838
 1062HOH     H1 3391   0.313   3.397   0.934
 1062HOH     H2 3392   0.403   3.382   0.813
 1063HOH      O 3393   2.151   1.064   1.407
 1063HOH     H1 3394   2.056   1.060   1.400
 1063HOH     H2 3395   2.169   1.150   1.444
 1064HOH      O 3396   2.446   1.337   3.978
 1064HOH     H1 3397   2.374   1.319   3.918
 1064HOH     H2 3398   2.523   1.303   3.934
 1065HOH      O 3399   0.520   2.049   2.758
 1065HOH     H1 3400   0.594   2.001   2.719
 1065HOH     H2 3401   0.560   2.100   2.829
 1066HOH      O 3402   1.130   2.668   3.919
 1066HOH     H1 3403   1.089   2.687   3.834
 1066HOH     H2 3404   1.216   2.709   3.913
 1067HOH      O 3405   1.930   1.734   3.672
 1067HOH     H1 3406   2.009   1.681   3.679
 1067HOH     H2 3407   1.914   1.766   3.761
 1068HOH      O 3408   3.711   0.541   0.579
 1068HOH     H1 3409   3.739   0.629   0.553
 1068HOH     H2 3410   3.719   0.489   0.500
 1069HOH      O 3411   2.640   1.608   2.401
 1069HOH     H1 3412   2.558   1.633   2.359
 1069HOH     H2 3413   2.695   1.687   2.395
 1070HOH      O 3414   0.383   2.219   3.102
 1070HOH     H1 3415   0.344   2.160   3.037
 1070HOH     H2 3416   0.445   2.271   3.051
 1071HOH      O 3417   2.361   0.632   3.999
 1071HOH     H1 3418   2.341   0.585   4.080
 1071HOH     H2 3419   2.304   0.592   3.933
 1072HOH      O 3420   1.894   1.341   3.144
 1072HOH     H1 3421   1.887   1.304   3.056
 1072HOH     H2 3422   1.988   1.354   3.157
 1073HOH      O 3423   0.433   3.844   3.705
 1073HOH     H1 3424   0.494   3.814   3.773
 1073HOH     H2 3425   0.364   3.778   3.703
 1074HOH      O 3426   0.070   2.249   2.905
 1074HOH     H1 3427   0.125   2.176   2.878
 1074HOH     H2 3428   0.004   2.210   2.962
 1075HOH      O 3429   3.038   0.938   0.770
 1075HOH     H1 3430   3.025   0.962   0.862
 1075HOH     H2 3431   3.113   0.878   0.771
 1076HOH      O 3432   1.108   1.638   3.141
 1076HOH     H1 3433   1.203   1.643   3.130
 1076HOH     H2 3434   1.090   1.689   3.220
 1077HOH      O 3435   3.960   0.647   1.111
 1077HOH     H1 3436   3.907   0.647   1.031
 1077HOH     H2 3437   4.041   0.604   1.086
 1078HOH      O 3438   3.054   3.121   0.411
 1078HOH     H1 3439   3.041   3.058   0.483
 1078HOH     H2 3440   3.126   3.084   0.360
 1079HOH      O 3441   3.859   1.615   0.206
 1079HOH     H1 3442   3.843   1.676   0.279
 1079HOH     H2 3443   3.813   1.535   0.232
 1080HOH      O 3444   2.433   0.307   3.933
 1080HOH     H1 3445   2.435   0.264   4.018
 1080HOH     H2 3446   2.354   0.274   3.890
 1081HOH      O 3447   1.501   1.794   1.862
 1081HOH     H1 3448   1.417   1.748   1.857
 1081HOH     H2 3449   1.479   1.886   1.847
 1082HOH      O 3450   1.767   1.005   3.009
 1082HOH     H1 3451   1.849   0.957   3.009
 1082HOH     H2 3452   1.699   0.937   3.016
 1083HOH      O 3453   0.793   3.901   1.342
 1083HOH     H1 3454   0.884   3.924   1.363
 1083HOH     H2 3455   0.798   3.810   1.313
 1084HOH      O 3456   3.737   2.640   0.672
 1084HOH     H1 3457   3.669   2.694   0.633
 1084HOH     H2 3458   3.756   2.573   0.606
 1085HOH      O 3459   1.679   1.852   0.319
 1085HOH     H1 3460   1.593   1.880   0.351
 1085HOH     H2 3461   1.740   1.879   0.388
 1086HOH      O 3462   2.456   0.097   2.055
 1086HOH     H1 3463   2.379   0.135   2.095
 1086HOH     H2 3464   2.476   0.155   1.981
 1087HOH      O 3465   3.050   2.608   2.014
 1087HOH     H1 3466   3.035   2.571   2.101
 1087HOH     H2 3467   2.963   2.608   1.973
 1088HOH      O 3468   0.686   2.266   1.424
 1088HOH     H1 3469   0.617   2.214   1.464
 1088HOH     H2 3470   0.745   2.287   1.497
 1089HOH      O 3471   1.974   1.150   3.894
 1089HOH     H1 3472   1.901   1.095   3.924
 1089HOH     H2 3473   2.007   1.190   3.974
 1090HOH      O 3474   2.915   2.218   1.992
 1090HOH     H1 3475   2.875   2.196   2.076
 1090HOH     H2 3476   2.878   2.156   1.930
 1091HOH      O 3477   3.995   0.172   2.920
 1091HOH     H1 3478   4.047   0.171   3.001
 1091HOH     H2 3479   4.058   0.191   2.851
 1092HOH      O 3480   2.372   1.942   1.590
 1092HOH     H1 3481   2.443   2.003   1.570
 1092HOH     H2 3482   2.319   1.988   1.655
 1093HOH      O 3483   2.746   0.179   3.570
 1093HOH     H1 3484   2.752   0.262   3.522
 1093HOH     H2 3485   2.661   0.183   3.614
 1094HOH      O 3486   0.979   0.339   2.916
 1094HOH     H1 3487   0.937   0.261   2.952
 1094HOH     H2 3488   1.042   0.366   2.982
 1095HOH      O 3489   2.779   1.971   0.402
 1095HOH     H1 3490   2.733   1.934   0.477
 1095HOH     H2 3491   2.829   2.044   0.439
 1096HOH      O 3492   0.960   0.075   0.118
 1096HOH     H1 3493   1.025   0.021   0.074
 1096HOH     H2 3494   0.981   0.068   0.211
 1097HOH      O 3495   3.102   3.672   0.679
 1097HOH     H1 3496   3.062   3.622   0.607
 1097HOH     H2 3497   3.068   3.760   0.668
 1098HOH      O 3498   0.343   1.647   0.826
 1098HOH     H1 3499   0.250   1.623   0.833
 1098HOH     H2 3500   0.345   1.713   0.757
 1099HOH      O 3501   1.793   0.123   3.427
 1099HOH     H1 3502   1.791   0.046   3.370
 1099HOH     H2 3503   1.715   0.114   3.482
 1100HOH      O 3504   0.094   1.657   1.445
 1100HOH     H1 3505   0.030   1.622   1.507
 1100HOH     H2 3506   0.072   1.750   1.438
 1101HOH      O 3507   3.786   1.379   0.332
 1101HOH     H1 3508   3.710   1.321   0.326
 1101HOH     H2 3509   3.796   1.394   0.426
 1102HOH      O 3510   3.089   1.710   1.217
 1102HOH     H1 3511   3.139   1.704   1.299
 1102HOH     H2 3512   3.100   1.624   1.176
 1103HOH      O 3513   3.121   2.867   3.650
 1103HOH     H1 3514   3.026   2.867   3.649
 1103HOH     H2 3515   3.145   2.775   3.640
 1104HOH      O 3516   0.826   1.933   1.480
 1104HOH     H1 3517   0.830   1.911   1.573
 1104HOH     H2 3518   0.755   1.878   1.446
 1105HOH      O 3519   1.820   0.992   3.408
 1105HOH     H1 3520   1.911   1.020   3.414
 1105HOH     H2 3521   1.774   1.068   3.372
 1106HOH      O 3522   3.524   1.198   1.732
 1106HOH     H1 3523   3.617   1.202   1.709
 1106HOH     H2 3524   3.507   1.105   1.748
 1107HOH      O 3525   0.713  -0.015   2.428
 1107HOH     H1 3526   0.626  -0.049   2.448
 1107HOH     H2 3527   0.721   0.064   2.482
 1108HOH      O 3528   1.485   0.828   0.522
 1108HOH     H1 3529   1.399   0.868   0.529
 1108HOH     H2 3530   1.546   0.898   0.545
 1109HOH      O 3531   0.650   0.133   3.475
 1109HOH     H1 3532   0.745   0.141   3.479
 1109HOH     H2 3533   0.620   0.222   3.458
 1110HOH      O 3534   0.242   3.348   0.192
 1110HOH     H1 3535   0.288   3.363   0.110
 1110HOH     H2 3536   0.270   3.420   0.249
 1111HOH      O 3537   1.622   2.494   0.323
 1111HOH     H1 3538   1.582   2.532   0.245
 1111HOH     H2 3539   1.597   2.402   0.319
 1112HOH      O 3540   3.151   1.260   2.058
 1112HOH     H1 3541   3.159   1.180   2.110
 1112HOH     H2 3542   3.228   1.312   2.080
 1113HOH      O 3543   3.540   1.712   0.010
 1113HOH     H1 3544   3.636   1.718   0.011
 1113HOH     H2 3545   3.522   1.618   0.011
 1114HOH      O 3546   0.875   1.103   2.778
 1114HOH     H1 3547   0.854   1.183   2.827
 1114HOH     H2 3548   0.864   1.127   2.686
 1115HOH      O 3549   1.429   1.898   3.377
 1115HOH     H1 3550   1.365   1.937   3.436
 1115HOH     H2 3551   1.514   1.919   3.415
 1116HOH      O 3552   3.395   2.354   2.890
 1116HOH     H1 3553   3.477   2.348   2.842
 1116HOH     H2 3554   3.329   2.375   2.824
 1117HOH      O 3555   3.706   2.034   0.475
 1117HOH     H1 3556   3.765   2.082   0.533
 1117HOH     H2 3557   3.764   1.991   0.412
 1118HOH      O 3558   2.236   0.186   2.187
 1118HOH     H1 3559   2.166   0.248   2.168
 1118HOH     H2 3560   2.200   0.101   2.161
 1119HOH      O 3561   1.892   3.763   3.742
 1119HOH     H1 3562   1.845   3.847   3.736
 1119HOH     H2 3563   1.984   3.787   3.732
 1120HOH      O 3564   1.104   1.091   3.915
 1120HOH     H1 3565   1.096   1.171   3.967
 1120HOH     H2 3566   1.127   1.023   3.979
 1121HOH      O 3567   3.961   1.525   0.617
 1121HOH     H1 3568   4.010   1.448   0.588
 1121HOH     H2 3569   3.872   1.492   0.634
 1122HOH      O 3570   0.624   0.607   0.034
 1122HOH     H1 3571   0.632   0.667   0.108
 1122HOH     H2 3572   0.688   0.639  -0.030
 1123HOH      O 3573   3.653   1.889   2.443
 1123HOH     H1 3574   3.644   1.919   2.353
 1123HOH     H2 3575   3.747   1.900   2.462
 1124HOH      O 3576   3.218   2.881   0.985
 1124HOH     H1 3577   3.227   2.959   0.930
 1124HOH     H2 3578   3.282   2.894   1.055
 1125HOH      O 3579   4.016   0.895   3.785
 1125HOH     H1 3580   4.021   0.830   3.856
 1125HOH     H2 3581   4.044   0.848   3.707
 1126HOH      O 3582   3.890   0.541   1.342
 1126HOH     H1 3583   3.859   0.453   1.318
 1126HOH     H2 3584   3.911   0.582   1.258
 1127HOH      O 3585   1.205   3.668   0.861
 1127HOH     H1 3586   1.116   3.633   0.871
 1127HOH     H2 3587   1.254   3.630   0.933
 1128HOH      O 3588   1.110   0.475   3.510
 1128HOH     H1 3589   1.121   0.408   3.443
 1128HOH     H2 3590   1.108   0.558   3.462
 1129HOH      O 3591   0.970   3.528   0.860
 1129HOH     H1 3592   0.959   3.481   0.943
 1129HOH     H2 3593   0.969   3.459   0.793
 1130HOH      O 3594   3.319   1.534   1.425
 1130HOH     H1 3595   3.347   1.443   1.435
 1130HOH     H2 3596   3.224   1.529   1.423
 1131HOH      O 3597   3.389   1.242   0.951
 1131HOH     H1 3598   3.348   1.239   0.864
 1131HOH     H2 3599   3.380   1.153   0.985
 1132HOH      O 3600   0.082   1.153   3.845
 1132HOH     H1 3601   0.127   1.111   3.918
 1132HOH     H2 3602   0.023   1.086   3.812
 1133HOH      O 3603   2.066   1.651   0.223
 1133HOH     H1 3604   2.077   1.558   0.242
 1133HOH     H2 3605   2.127   1.669   0.152
 1134HOH      O 3606   1.424   0.779   3.993
 1134HOH     H1 3607   1.439   0.868   3.960
 1134HOH     H2 3608   1.402   0.728   3.915
 1135HOH      O 3609   0.100   0.409   3.232
 1135HOH     H1 3610   0.188   0.397   3.196
 1135HOH     H2 3611   0.059   0.323   3.224
 1136HOH      O 3612   3.844   0.701   0.191
 1136HOH     H1 3613   3.807   0.628   0.240
 1136HOH     H2 3614   3.929   0.669   0.160
 1137HOH      O 3615   2.752   1.090   2.925
 1137HOH     H1 3616   2.671   1.134   2.951
 1137HOH     H2 3617   2.724   1.002   2.900
 1138HOH      O 3618   2.547   3.021   2.856
 1138HOH     H1 3619   2.460   2.983   2.867
 1138HOH     H2 3620   2.600   2.980   2.924
 1139HOH      O 3621   2.652   1.616   2.819
 1139HOH     H1 3622   2.597   1.656   2.752
 1139HOH     H2 3623   2.621   1.525   2.824
 1140HOH      O 3624   1.047   2.440   2.729
 1140HOH     H1 3625   1.135   2.402   2.730
 1140HOH     H2 3626   1.047   2.498   2.653
 1141HOH      O 3627   0.237   0.929   1.047
 1141HOH     H1 3628   0.273   0.974   0.970
 1141HOH     H2 3629   0.294   0.958   1.119
 1142HOH      O 3630   4.044   1.919   1.436
 1142HOH     H1 3631   3.969   1.976   1.422
 1142HOH     H2 3632   4.088   1.956   1.513
 1143HOH      O 3633   3.177   3.689   3.782
 1143HOH     H1 3634   3.172   3.724   3.693
 1143HOH     H2 3635   3.265   3.651   3.787
 1144HOH      O 3636   3.317   2.596   2.498
 1144HOH     H1 3637   3.403   2.554   2.494
 1144HOH     H2 3638   3.282   2.571   2.584
 1145HOH      O 3639   1.792   3.991   0.170
 1145HOH     H1 3640   1.724   3.926   0.187
 1145HOH     H2 3641   1.746   4.065   0.130
 1146HOH      O 3642   1.158   1.852   0.396
 1146HOH     H1 3643   1.127   1.866   0.485
 1146HOH     H2 3644   1.153   1.938   0.354
 1147HOH      O 3645   3.409   2.977   1.141
 1147HOH     H1 3646   3.471   2.907   1.162
 1147HOH     H2 3647   3.413   3.036   1.217
 1148HOH      O 3648   3.990   2.477   3.714
 1148HOH     H1 3649   4.066   2.522   3.749
 1148HOH     H2 3650   3.994   2.389   3.753
 1149HOH      O 3651   0.464   1.265   0.603
 1149HOH     H1 3652   0.498   1.184   0.564
 1149HOH     H2 3653   0.459   1.246   0.696
 1150HOH      O 3654   2.783   2.490   1.712
 1150HOH     H1 3655   2.834   2.556   1.665
 1150HOH     H2 3656   2.822   2.406   1.686
 1151HOH      O 3657   2.620   0.426   3.743
 1151HOH     H1 3658   2.547   0.370   3.768
 1151HOH     H2 3659   2.582   0.493   3.687
 1152HOH      O 3660   2.173   3.526   3.971
 1152HOH     H1 3661   2.083   3.509   3.942
 1152HOH     H2 3662   2.215   3.440   3.970
 1153HOH      O 3663   2.900   3.680   1.792
 1153HOH     H1 3664   2.981   3.631   1.803
 1153HOH     H2 3665   2.832   3.622   1.824
 1154HOH      O 3666   2.994   1.360   2.638
 1154HOH     H1 3667   2.904   1.336   2.615
 1154HOH     H2 3668   3.014   1.434   2.581
 1155HOH      O 3669   3.126   1.576   1.708
 1155HOH     H1 3670   3.171   1.496   1.736
 1155HOH     H2 3671   3.111   1.562   1.614
 1156HOH      O 3672   2.047   1.716   3.342
 1156HOH     H1 3673   2.028   1.677   3.257
 1156HOH     H2 3674   1.963   1.746   3.375
 1157HOH      O 3675   0.840   3.770   1.726
 1157HOH     H1 3676   0.810   3.719   1.651
 1157HOH     H2 3677   0.806   3.858   1.710
 1158HOH      O 3678   0.435   1.472   3.657
 1158HOH     H1 3679   0.373   1.399   3.658
 1158HOH     H2 3680   0.414   1.520   3.576
 1159HOH      O 3681   3.735   2.319   3.640
 1159HOH     H1 3682   3.817   2.270   3.635
 1159HOH     H2 3683   3.761   2.410   3.624
 1160HOH      O 3684   1.025   1.173   0.398
 1160HOH     H1 3685   0.993   1.172   0.308
 1160HOH     H2 3686   1.102   1.230   0.395
 1161HOH      O 3687   0.991   0.845   3.609
 1161HOH     H1 3688   0.961   0.834   3.519
 1161HOH     H2 3689   1.084   0.820   3.607
 1162HOH      O 3690   0.247   2.203   0.811
 1162HOH     H1 3691   0.193   2.234   0.884
 1162HOH     H2 3692   0.324   2.260   0.813
 1163HOH      O 3693   0.103   0.673   3.306
 1163HOH     H1 3694   0.119   0.580   3.287
 1163HOH     H2 3695   0.025   0.694   3.254
 1164HOH      O 3696   0.778   0.132   3.021
 1164HOH     H1 3697   0.822   0.056   3.060
 1164HOH     H2 3698   0.728   0.170   3.093
 1165HOH      O 3699   2.154   2.409   3.197
 1165HOH     H1 3700   2.089   2.479   3.204
 1165HOH     H2 3701   2.194   2.404   3.284
 1166HOH      O 3702   2.726   1.205   1.304
 1166HOH     H1 3703   2.750   1.152   1.227
 1166HOH     H2 3704   2.809   1.225   1.346
 1167HOH      O 3705   1.967   0.189   1.370
 1167HOH     H1 3706   2.058   0.184   1.398
 1167HOH     H2 3707   1.964   0.137   1.290
 1168HOH      O 3708   4.006   0.683   3.951
 1168HOH     H1 3709   4.045   0.641   3.874
 1168HOH     H2 3710   3.926   0.632   3.968
 1169HOH      O 3711   1.613   1.207   3.599
 1169HOH     H1 3712   1.653   1.129   3.637
 1169HOH     H2 3713   1.679   1.240   3.538
 1170HOH      O 3714   3.317   3.009   3.811
 1170HOH     H1 3715   3.375   2.939   3.839
 1170HOH     H2 3716   3.258   2.968   3.748
 1171HOH      O 3717   1.385   1.619   1.307
 1171HOH     H1 3718   1.425   1.652   1.227
 1171HOH     H2 3719   1.340   1.694   1.345
 1172HOH      O 3720   1.173   1.021   2.564
 1172HOH     H1 3721   1.106   1.085   2.589
 1172HOH     H2 3722   1.123   0.943   2.541
 1173HOH      O 3723   4.019   2.097   2.276
 1173HOH     H1 3724   4.040   2.166   2.339
 1173HOH     H2 3725   3.974   2.030   2.328
 1174HOH      O 3726   0.289   0.341   3.581
 1174HOH     H1 3727   0.276   0.429   3.617
 1174HOH     H2 3728   0.318   0.288   3.655
 1175HOH      O 3729   1.118   1.551   1.611
 1175HOH     H1 3730   1.206   1.517   1.592
 1175HOH     H2 3731   1.071   1.539   1.529
 1176HOH      O 3732   0.076   2.495   1.869
 1176HOH     H1 3733   0.127   2.564   1.912
 1176HOH     H2 3734   0.141   2.442   1.823
 1177HOH      O 3735   3.553   3.181   1.580
 1177HOH     H1 3736   3.633   3.145   1.542
 1177HOH     H2 3737   3.567   3.173   1.675
 1178HOH      O 3738   1.372   0.436   1.366
 1178HOH     H1 3739   1.442   0.461   1.305
 1178HOH     H2 3740   1.334   0.520   1.393
 1179HOH      O 3741   3.853   1.514   1.556
 1179HOH     H1 3742   3.778   1.518   1.615
 1179HOH     H2 3743   3.815   1.528   1.469
 1180HOH      O 3744   3.206   2.188   0.494
 1180HOH     H1 3745   3.259   2.209   0.571
 1180HOH     H2 3746   3.256   2.223   0.420
 1181HOH      O 3747   1.252   0.733   1.475
 1181HOH     H1 3748   1.336   0.776   1.463
 1181HOH     H2 3749   1.211   0.781   1.547
 1182HOH      O 3750   0.927   1.636   1.255
 1182HOH     H1 3751   0.848   1.593   1.222
 1182HOH     H2 3752   0.913   1.729   1.236
 1183HOH      O 3753   0.553   1.637   1.711
 1183HOH     H1 3754   0.461   1.643   1.686
 1183HOH     H2 3755   0.600   1.626   1.629
 1184HOH      O 3756   2.513   0.251   2.981
 1184HOH     H1 3757   2.585   0.231   2.921
 1184HOH     H2 3758   2.524   0.189   3.053
 1185HOH      O 3759   3.073   1.873   2.377
 1185HOH     H1 3760   3.155   1.919   2.393
 1185HOH     H2 3761   3.049   1.896   2.287
 1186HOH      O 3762   2.174   0.841   1.684
 1186HOH     H1 3763   2.175   0.752   1.722
 1186HOH     H2 3764   2.101   0.840   1.623
 1187HOH      O 3765   0.547   1.240   1.178
 1187HOH     H1 3766   0.524   1.204   1.264
 1187HOH     H2 3767   0.637   1.211   1.163
 1188HOH      O 3768   0.242   3.583   1.267
 1188HOH     H1 3769   0.284   3.624   1.191
 1188HOH     H2 3770   0.311   3.576   1.332
 1189HOH      O 3771   3.490   3.127   2.882
 1189HOH     H1 3772   3.436   3.067   2.831
 1189HOH     H2 3773   3.454   3.121   2.971
 1190HOH      O 3774   1.709   0.706   2.370
 1190HOH     H1 3775   1.691   0.734   2.460
 1190HOH     H2 3776   1.623   0.684   2.334
 1191HOH      O 3777   0.070   3.383   1.332
 1191HOH     H1 3778   0.107   3.325   1.399
 1191HOH     H2 3779   0.143   3.436   1.303
 1192HOH      O 3780   0.993   0.843   2.407
 1192HOH     H1 3781   0.983   0.749   2.390
 1192HOH     H2 3782   0.929   0.862   2.475
 1193HOH      O 3783   0.500   2.624   2.026
 1193HOH     H1 3784   0.547   2.696   2.067
 1193HOH     H2 3785   0.526   2.628   1.934
 1194HOH      O 3786   1.392   2.551   0.803
 1194HOH     H1 3787   1.316   2.577   0.855
 1194HOH     H2 3788   1.381   2.597   0.720
 1195HOH      O 3789   1.910   1.675   2.314
 1195HOH     H1 3790   1.928   1.699   2.224
 1195HOH     H2 3791   1.912   1.758   2.362
 1196HOH      O 3792   0.609   1.633   0.462
 1196HOH     H1 3793   0.580   1.682   0.539
 1196HOH     H2 3794   0.669   1.566   0.497
 1197HOH      O 3795   0.675   0.899   2.361
 1197HOH     H1 3796   0.715   0.830   2.413
 1197HOH     H2 3797   0.627   0.852   2.293
 1198HOH      O 3798   3.060   0.815   3.284
 1198HOH     H1 3799   3.002   0.877   3.240
 1198HOH     H2 3800   3.148   0.851   3.273
 1199HOH      O 3801   2.369   3.913   0.931
 1199HOH     H1 3802   2.399   3.950   0.849
 1199HOH     H2 3803   2.373   3.818   0.918
 1200HOH      O 3804   2.302   3.082   0.533
 1200HOH     H1 3805   2.370   3.015   0.527
 1200HOH     H2 3806   2.227   3.044   0.488
 1201HOH      O 3807   2.434   0.315   2.283
 1201HOH     H1 3808   2.426   0.389   2.224
 1201HOH     H2 3809   2.359   0.259   2.262
 1202HOH      O 3810   2.368   2.105   0.296
 1202HOH     H1 3811   2.305   2.033   0.296
 1202HOH     H2 3812   2.352   2.152   0.378
 1203HOH      O 3813   1.484   4.040   1.950
 1203HOH     H1 3814   1.545   3.983   1.904
 1203HOH     H2 3815   1.413   3.982   1.978
 1204HOH      O 3816   3.831   2.456   0.477
 1204HOH     H1 3817   3.882   2.375   0.485
 1204HOH     H2 3818   3.826   2.471   0.382
 1205HOH      O 3819   1.459   2.083   3.146
 1205HOH     H1 3820   1.408   2.162   3.167
 1205HOH     H2 3821   1.419   2.015   3.200
 1206HOH      O 3822   2.053   0.937   0.811
 1206HOH     H1 3823   2.134   0.943   0.760
 1206HOH     H2 3824   2.011   0.857   0.779
 1207HOH      O 3825   1.716   1.431   1.233
 1207HOH     H1 3826   1.778   1.502   1.248
 1207HOH     H2 3827   1.768   1.362   1.192
 1208HOH      O 3828   1.031   2.272   3.161
 1208HOH     H1 3829   0.967   2.231   3.219
 1208HOH     H2 3830   0.985   2.283   3.078
 1209HOH      O 3831   3.055   0.063   3.681
 1209HOH     H1 3832   3.111   0.016   3.743
 1209HOH     H2 3833   3.103   0.060   3.599
 1210HOH      O 3834   2.635   1.601   3.812
 1210HOH     H1 3835   2.562   1.662   3.823
 1210HOH     H2 3836   2.681   1.632   3.734
 1211HOH      O 3837   1.844   0.959   0.450
 1211HOH     H1 3838   1.927   1.002   0.470
 1211HOH     H2 3839   1.843   0.881   0.505
 1212HOH      O 3840   1.837   3.639   2.650
 1212HOH     H1 3841   1.830   3.558   2.600
 1212HOH     H2 3842   1.766   3.694   2.616
 1213HOH      O 3843   3.741   2.510   1.556
 1213HOH     H1 3844   3.671   2.501   1.491
 1213HOH     H2 3845   3.733   2.431   1.610
 1214HOH      O 3846   2.955   1.041   2.483
 1214HOH     H1 3847   2.955   0.954   2.522
 1214HOH     H2 3848   2.886   1.088   2.531
 1215HOH      O 3849   2.280   1.260   3.744
 1215HOH     H1 3850   2.257   1.195   3.810
 1215HOH     H2 3851   2.201   1.312   3.732
 1216HOH      O 3852   1.349   0.173   2.896
 1216HOH     H1 3853   1.370   0.252   2.946
 1216HOH     H2 3854   1.434   0.129   2.884
 1217HOH      O 3855   2.676   0.950   2.489
 1217HOH     H1 3856   2.606   0.957   2.555
 1217HOH     H2 3857   2.753   0.922   2.539
 1218HOH      O 3858   0.244   0.636   0.286
 1218HOH     H1 3859   0.195   0.617   0.366
 1218HOH     H2 3860   0.325   0.676   0.316
 1219HOH      O 3861   0.617   1.805   0.732
 1219HOH     H1 3862   0.538   1.859   0.736
 1219HOH     H2 3863   0.592   1.724   0.777
 1220HOH      O 3864   2.465   0.372   1.644
 1220HOH     H1 3865   2.443   0.289   1.602
 1220HOH     H2 3866   2.542   0.403   1.596
 1221HOH      O 3867   2.830   3.544   1.352
 1221HOH     H1 3868   2.813   3.459   1.394
 1221HOH     H2 3869   2.883   3.592   1.416
 1222HOH      O 3870   2.722   0.393   3.265
 1222HOH     H1 3871   2.738   0.474   3.313
 1222HOH     H2 3872   2.631   0.372   3.284
 1223HOH      O 3873   2.013   4.020   0.858
 1223HOH     H1 3874   1.990   4.047   0.769
 1223HOH     H2 3875   2.061   3.938   0.847
 1224HOH      O 3876   0.385   1.974   0.807
 1224HOH     H1 3877   0.344   2.061   0.813
 1224HOH     H2 3878   0.336   1.929   0.738
 1225HOH      O 3879   0.068   3.378   2.886
 1225HOH     H1 3880   0.146   3.343   2.929
 1225HOH     H2 3881   0.099   3.411   2.802
 1226HOH      O 3882   3.501   0.572   1.229
 1226HOH     H1 3883   3.490   0.544   1.138
 1226HOH     H2 3884   3.420   0.546   1.272
 1227HOH      O 3885   0.284   0.749   2.394
 1227HOH     H1 3886   0.321   0.661   2.398
 1227HOH     H2 3887   0.283   0.779   2.485
 1228HOH      O 3888   0.854   3.760   0.902
 1228HOH     H1 3889   0.907   3.835   0.875
 1228HOH     H2 3890   0.904   3.683   0.874
 1229HOH      O 3891   3.675   2.697   2.900
 1229HOH     H1 3892   3.601   2.679   2.958
 1229HOH     H2 3893   3.748   2.648   2.938
 1230HOH      O 3894   2.494   0.893   3.560
 1230HOH     H1 3895   2.473   0.872   3.651
 1230HOH     H2 3896   2.473   0.986   3.551
 1231HOH      O 3897   3.465   3.207   1.302
 1231HOH     H1 3898   3.533   3.165   1.354
 1231HOH     H2 3899   3.506   3.287   1.268
 1232HOH      O 3900   2.473   2.412   0.504
 1232HOH     H1 3901   2.432   2.330   0.477
 1232HOH     H2 3902   2.400   2.473   0.514
 1233HOH      O 3903   3.215   2.201   2.354
 1233HOH     H1 3904   3.144   2.215   2.417
 1233HOH     H2 3905   3.295   2.220   2.404
 1234HOH      O 3906   2.460   3.808   3.169
 1234HOH     H1 3907   2.544   3.779   3.204
 1234HOH     H2 3908   2.477   3.897   3.139
 1235HOH      O 3909   0.728   3.228   2.814
 1235HOH     H1 3910   0.805   3.180   2.783
 1235HOH     H2 3911   0.669   3.230   2.738
 1236HOH      O 3912   0.717   3.510   3.669
 1236HOH     H1 3913   0.634   3.497   3.623
 1236HOH     H2 3914   0.704   3.470   3.755
 1237HOH      O 3915   1.499   1.178   2.357
 1237HOH     H1 3916   1.485   1.243   2.289
 1237HOH     H2 3917   1.526   1.229   2.434
 1238HOH      O 3918   1.990   2.107   3.990
 1238HOH     H1 3919   2.048   2.084   3.918
 1238HOH     H2 3920   2.033   2.181   4.033
 1239HOH      O 3921   0.095   2.184   0.143
 1239HOH     H1 3922   0.162   2.215   0.204
 1239HOH     H2 3923   0.106   2.089   0.140
 1240HOH      O 3924   1.525   0.823   1.403
 1240HOH     H1 3925   1.544   0.809   1.310
 1240HOH     H2 3926   1.522   0.918   1.413
 1241HOH      O 3927   2.217   3.625   2.122
 1241HOH     H1 3928   2.224   3.664   2.208
 1241HOH     H2 3929   2.133   3.579   2.122
 1242HOH      O 3930   1.817   0.432   2.326
 1242HOH     H1 3931   1.751   0.391   2.270
 1242HOH     H2 3932   1.779   0.517   2.349
 1243HOH      O 3933   1.147   0.073   2.346
 1243HOH     H1 3934   1.108   0.086   2.259
 1243HOH     H2 3935   1.079   0.026   2.395
 1244HOH      O 3936   0.738   0.829   0.918
 1244HOH     H1 3937   0.703   0.740   0.926
 1244HOH     H2 3938   0.719   0.870   1.003
 1245HOH      O 3939   2.980   1.147   0.399
 1245HOH     H1 3940   3.005   1.214   0.334
 1245HOH     H2 3941   2.925   1.086   0.350
 1246HOH      O 3942   0.826   2.333   1.642
 1246HOH     H1 3943   0.907   2.286   1.661
 1246HOH     H2 3944   0.784   2.344   1.727
 1247HOH      O 3945   0.182   1.049   0.504
 1247HOH     H1 3946   0.246   1.019   0.440
 1247HOH     H2 3947   0.098   1.021   0.468
 1248HOH      O 3948   2.353   3.411   0.771
 1248HOH     H1 3949   2.384   3.371   0.690
 1248HOH     H2 3950   2.367   3.344   0.838
 1249HOH      O 3951   1.308   3.049   2.936
 1249HOH     H1 3952   1.225   3.012   2.906
 1249HOH     H2 3953   1.311   3.027   3.029
 1250HOH      O 3954   0.081   0.200   0.667
 1250HOH     H1 3955   0.140   0.206   0.592
 1250HOH     H2 3956   0.131   0.235   0.740
 1251HOH      O 3957   1.808   1.697   0.136
 1251HOH     H1 3958   1.881   1.680   0.197
 1251HOH     H2 3959   1.757   1.766   0.179
 1252HOH      O 3960   3.081   3.517   4.006
 1252HOH     H1 3961   3.159   3.503   4.059
 1252HOH     H2 3962   3.112   3.568   3.931
 1253HOH      O 3963   3.999   2.918   0.591
 1253HOH     H1 3964   4.046   2.995   0.561
 1253HOH     H2 3965   3.919   2.916   0.539
 1254HOH      O 3966   3.028   3.439   0.810
 1254HOH     H1 3967   2.938   3.419   0.786
 1254HOH     H2 3968   3.055   3.506   0.747
 1255HOH      O 3969   1.963   1.661   2.760
 1255HOH     H1 3970   1.910   1.739   2.745
 1255HOH     H2 3971   1.919   1.592   2.710
 1256HOH      O 3972   0.718   2.405   1.901
 1256HOH     H1 3973   0.773   2.378   1.974
 1256HOH     H2 3974   0.754   2.489   1.873
 1257HOH      O 3975   0.618   2.505   2.231
 1257HOH     H1 3976   0.619   2.415   2.198
 1257HOH     H2 3977   0.577   2.555   2.161
 1258HOH      O 3978   1.517   1.077   1.334
 1258HOH     H1 3979   1.512   1.165   1.371
 1258HOH     H2 3980   1.527   1.091   1.240
 1259HOH      O 3981   0.507   3.951   3.425
 1259HOH     H1 3982   0.564   4.027   3.435
 1259HOH     H2 3983   0.507   3.909   3.512
 1260HOH      O 3984   0.944   2.115   3.813
 1260HOH     H1 3985   0.880   2.063   3.862
 1260HOH     H2 3986   1.023   2.061   3.813
 1261HOH      O 3987   2.824   0.756   3.829
 1261HOH     H1 3988   2.891   0.727   3.891
 1261HOH     H2 3989   2.741   0.731   3.870
 1262HOH      O 3990   1.591   0.518   1.238
 1262HOH     H1 3991   1.650   0.465   1.183
 1262HOH     H2 3992   1.547   0.576   1.176
 1263HOH      O 3993   1.473   3.163   1.643
 1263HOH     H1 3994   1.382   3.132   1.640
 1263HOH     H2 3995   1.524   3.085   1.662
 1264HOH      O 3996   0.339   1.623   3.888
 1264HOH     H1 3997   0.276   1.566   3.930
 1264HOH     H2 3998   0.385   1.567   3.826
 1265HOH      O 3999   0.138   1.805   2.960
 1265HOH     H1 4000   0.189   1.737   2.917
 1265HOH     H2 4001   0.064   1.758   2.999
 1266HOH      O 4002   1.123   3.625   3.616
 1266HOH     H1 4003   1.075   3.543   3.602
 1266HOH     H2 4004   1.151   3.651   3.528
 1267HOH      O 4005   3.663   0.037   3.449
 1267HOH     H1 4006   3.690   0.012   3.537
 1267HOH     H2 4007   3.730  -0.001   3.392
 1268HOH      O 4008   1.961   2.837   1.222
 1268HOH     H1 4009   1.887   2.816   1.279
 1268HOH     H2 4010   2.001   2.752   1.201
 1269HOH      O 4011   0.443   3.906   1.443
 1269HOH     H1 4012   0.508   3.977   1.441
 1269HOH     H2 4013   0.360   3.950   1.425
 1270HOH      O 4014   3.853   0.181   1.748
 1270HOH     H1 4015   3.810   0.188   1.833
 1270HOH     H2 4016   3.781   0.194   1.685
 1271HOH      O 4017   1.963   2.753   0.548
 1271HOH     H1 4018   1.889   2.754   0.487
 1271HOH     H2 4019   1.923   2.751   0.635
 1272HOH      O 4020   2.800   1.980   3.637
 1272HOH     H1 4021   2.731   1.933   3.590
 1272HOH     H2 4022   2.854   1.911   3.676
 1273HOH      O 4023   0.988   2.169   2.705
 1273HOH     H1 4024   1.010   2.136   2.618
 1273HOH     H2 4025   0.991   2.264   2.697
 1274HOH      O 4026   0.635   1.516   1.945
 1274HOH     H1 4027   0.622   1.566   1.864
 1274HOH     H2 4028   0.637   1.425   1.917
 1275HOH      O 4029   0.551   3.485   1.685
 1275HOH     H1 4030   0.509   3.405   1.717
 1275HOH     H2 4031   0.624   3.499   1.746
 1276HOH      O 4032   1.765   1.935   3.374
 1276HOH     H1 4033   1.753   2.030   3.365
 1276HOH     H2 4034   1.745   1.918   3.466
 1277HOH      O 4035   1.573   3.999   3.633
 1277HOH     H1 4036   1.576   4.088   3.597
 1277HOH     H2 4037   1.522   3.949   3.568
 1278HOH      O 4038   0.865   3.641   3.291
 1278HOH     H1 4039   0.880   3.560   3.244
 1278HOH     H2 4040   0.797   3.686   3.241
 1279HOH      O 4041   1.380   0.078   0.170
 1279HOH     H1 4042   1.367   0.170   0.190
 1279HOH     H2 4043   1.310   0.056   0.108
 1280HOH      O 4044   1.585   2.587   2.904
 1280HOH     H1 4045   1.594   2.516   2.967
 1280HOH     H2 4046   1.603   2.666   2.954
 1281HOH      O 4047   3.257   3.969   1.525
 1281HOH     H1 4048   3.202   3.958   1.448
 1281HOH     H2 4049   3.307   3.888   1.531
 1282HOH      O 4050   2.084   0.454   2.449
 1282HOH     H1 4051   2.155   0.458   2.385
 1282HOH     H2 4052   2.004   0.453   2.397
 1283HOH      O 4053   0.842   3.942   3.758
 1283HOH     H1 4054   0.834   3.916   3.666
 1283HOH     H2 4055   0.752   3.951   3.788
 1284HOH      O 4056   2.592   2.232   1.101
 1284HOH     H1 4057   2.522   2.298   1.097
 1284HOH     H2 4058   2.659   2.272   1.156
 1285HOH      O 4059   3.235   2.761   0.746
 1285HOH     H1 4060   3.188   2.678   0.738
 1285HOH     H2 4061   3.224   2.786   0.838
 1286HOH      O 4062   3.016   0.807   1.624
 1286HOH     H1 4063   3.055   0.732   1.578
 1286HOH     H2 4064   3.076   0.824   1.696
 1287HOH      O 4065   3.528   1.631   1.600
 1287HOH     H1 4066   3.518   1.641   1.695
 1287HOH     H2 4067   3.438   1.622   1.568
 1288HOH      O 4068   3.344   1.059   1.967
 1288HOH     H1 4069   3.378   0.979   2.007
 1288HOH     H2 4070   3.379   1.129   2.022
 1289HOH      O 4071   3.256   2.004   1.802
 1289HOH     H1 4072   3.195   1.931   1.807
 1289HOH     H2 4073   3.258   2.039   1.891
 1290HOH      O 4074   1.267   0.588   2.548
 1290HOH     H1 4075   1.212   0.634   2.612
 1290HOH     H2 4076   1.234   0.617   2.463
 1291HOH      O 4077   1.277   2.291   3.239
 1291HOH     H1 4078   1.306   2.382   3.230
 1291HOH     H2 4079   1.189   2.291   3.202
 1292HOH      O 4080   0.768   2.166   0.912
 1292HOH     H1 4081   0.814   2.242   0.874
 1292HOH     H2 4082   0.758   2.189   1.004
 1293HOH      O 4083   3.963   3.804   3.489
 1293HOH     H1 4084   4.032   3.812   3.555
 1293HOH     H2 4085   3.883   3.829   3.534
 1294HOH      O 4086   1.352   3.481   2.490
 1294HOH     H1 4087   1.365   3.394   2.528
 1294HOH     H2 4088   1.350   3.466   2.396
 1295HOH      O 4089   1.577   2.970   0.397
 1295HOH     H1 4090   1.485   2.998   0.394
 1295HOH     H2 4091   1.611   3.008   0.478
 1296HOH      O 4092   2.553   3.654   2.800
 1296HOH     H1 4093   2.626   3.631   2.743
 1296HOH     H2 4094   2.578   3.739   2.838
 1297HOH      O 4095   0.056   0.095   1.651
 1297HOH     H1 4096  -0.028   0.136   1.674
 1297HOH     H2 4097   0.046   0.005   1.680
 1298HOH      O 4098   2.577   1.248   3.013
 1298HOH     H1 4099   2.513   1.319   3.019
 1298HOH     H2 4100   2.601   1.229   3.104
 1299HOH      O 4101   0.221   1.424   3.321
 1299HOH     H1 4102   0.139   1.452   3.360
 1299HOH     H2 4103   0.223   1.329   3.336
 1300HOH      O 4104   0.170   2.190   0.540
 1300HOH     H1 4105   0.224   2.268   0.529
 1300HOH     H2 4106   0.176   2.169   0.633
 1301HOH      O 4107   1.259   3.022   1.905
 1301HOH     H1 4108   1.251   3.048   1.814
 1301HOH     H2 4109   1.342   3.060   1.934
 1302HOH      O 4110   0.547   3.999   2.841
 1302HOH     H1 4111   0.531   4.030   2.930
 1302HOH     H2 4112   0.629   3.951   2.846
 1303HOH      O 4113   3.544   0.088   0.554
 1303HOH     H1 4114   3.559   0.011   0.609
 1303HOH     H2 4115   3.468   0.131   0.593
 1304HOH      O 4116   3.011   2.297   1.645
 1304HOH     H1 4117   2.971   2.226   1.696
 1304HOH     H2 4118   3.039   2.255   1.564
 1305HOH      O 4119   2.786   3.916   3.530
 1305HOH     H1 4120   2.771   4.010   3.529
 1305HOH     H2 4121   2.856   3.902   3.466
 1306HOH      O 4122   0.292   3.399   2.700
 1306HOH     H1 4123   0.275   3.481   2.653
 1306HOH     H2 4124   0.337   3.427   2.780
 1307HOH      O 4125   3.717   1.743   0.394
 1307HOH     H1 4126   3.737   1.792   0.474
 1307HOH     H2 4127   3.653   1.797   0.348
 1308HOH      O 4128   2.448   1.627   2.214
 1308HOH     H1 4129   2.368   1.679   2.206
 1308HOH     H2 4130   2.490   1.634   2.128
 1309HOH      O 4131   1.240   3.652   0.047
 1309HOH     H1 4132   1.315   3.599   0.074
 1309HOH     H2 4133   1.200   3.602  -0.024
 1310HOH      O 4134   3.764  -0.011   0.897
 1310HOH     H1 4135   3.685  -0.030   0.847
 1310HOH     H2 4136   3.788   0.078   0.871
 1311HOH      O 4137   2.197   0.740   1.381
 1311HOH     H1 4138   2.223   0.793   1.456
 1311HOH     H2 4139   2.118   0.782   1.348
 1312HOH      O 4140   4.054   0.737   3.544
 1312HOH     H1 4141   4.085   0.698   3.463
 1312HOH     H2 4142   3.972   0.781   3.520
 1313HOH      O 4143   1.166   0.063   3.072
 1313HOH     H1 4144   1.204   0.107   2.996
 1313HOH     H2 4145   1.237   0.060   3.135
 1314HOH      O 4146   1.588   2.369   1.530
 1314HOH     H1 4147   1.572   2.320   1.611
 1314HOH     H2 4148   1.507   2.420   1.516
 1315HOH      O 4149   3.694   3.337   3.951
 1315HOH     H1 4150   3.621   3.329   3.889
 1315HOH     H2 4151   3.659   3.390   4.022
 1316HOH      O 4152   3.918   0.762   1.824
 1316HOH     H1 4153   3.902   0.720   1.740
 1316HOH     H2 4154   4.013   0.759   1.836
 1317HOH      O 4155   1.575   3.662   1.619
 1317HOH     H1 4156   1.601   3.570   1.612
 1317HOH     H2 4157   1.504   3.662   1.684
 1318HOH      O 4158   3.080   3.098   2.560
 1318HOH     H1 4159   3.077   3.019   2.506
 1318HOH     H2 4160   3.071   3.067   2.650
 1319HOH      O 4161   0.705   1.872   1.724
 1319HOH     H1 4162   0.768   1.804   1.748
 1319HOH     H2 4163   0.620   1.829   1.730
 1320HOH      O 4164   3.690   3.426   1.201
 1320HOH     H1 4165   3.773   3.452   1.162
 1320HOH     H2 4166   3.703   3.436   1.295
 1321HOH      O 4167   1.416   2.908   1.121
 1321HOH     H1 4168   1.351   2.932   1.055
 1321HOH     H2 4169   1.500   2.911   1.075
 1322HOH      O 4170   0.594   0.289   2.832
 1322HOH     H1 4171   0.636   0.370   2.802
 1322HOH     H2 4172   0.663   0.241   2.878
 1323HOH      O 4173   0.804   3.340   0.652
 1323HOH     H1 4174   0.745   3.299   0.588
 1323HOH     H2 4175   0.882   3.363   0.602
 1324HOH      O 4176   1.411   3.343   1.411
 1324HOH     H1 4177   1.448   3.291   1.483
 1324HOH     H2 4178   1.333   3.384   1.449
 1325HOH      O 4179   4.007   2.880   2.361
 1325HOH     H1 4180   3.951   2.917   2.429
 1325HOH     H2 4181   4.096   2.887   2.397
 1326HOH      O 4182   3.724   0.751   2.011
 1326HOH     H1 4183   3.790   0.738   1.942
 1326HOH     H2 4184   3.774   0.779   2.087
 1327HOH      O 4185   0.395   1.298   1.628
 1327HOH     H1 4186   0.302   1.288   1.646
 1327HOH     H2 4187   0.404   1.389   1.598
 1328HOH      O 4188   2.343   3.312   1.146
 1328HOH     H1 4189   2.321   3.369   1.220
 1328HOH     H2 4190   2.330   3.223   1.180
 1329HOH      O 4191   1.240   1.803   2.900
 1329HOH     H1 4192   1.296   1.772   2.972
 1329HOH     H2 4193   1.168   1.848   2.945
 1330HOH      O 4194   2.450  -0.011   1.568
 1330HOH     H1 4195   2.442   0.056   1.500
 1330HOH     H2 4196   2.528   0.015   1.617
 1331HOH      O 4197   0.259   3.003   1.984
 1331HOH     H1 4198   0.264   2.908   1.997
 1331HOH     H2 4199   0.272   3.039   2.071
 1332HOH      O 4200   0.820   3.941   2.198
 1332HOH     H1 4201   0.853   3.854   2.221
 1332HOH     H2 4202   0.759   3.963   2.268
 1333HOH      O 4203   2.506   0.741   1.832
 1333HOH     H1 4204   2.553   0.709   1.755
 1333HOH     H2 4205   2.494   0.834   1.815
 1334HOH      O 4206   3.846   3.971   3.275
 1334HOH     H1 4207   3.821   3.882   3.252
 1334HOH     H2 4208   3.926   3.961   3.327
 1335HOH      O 4209   0.493   3.483   3.442
 1335HOH     H1 4210   0.461   3.569   3.413
 1335HOH     H2 4211   0.413   3.431   3.454
 1336HOH      O 4212   2.572   0.532   0.465
 1336HOH     H1 4213   2.654   0.497   0.499
 1336HOH     H2 4214   2.547   0.599   0.529
 1337HOH      O 4215   3.739   1.078   0.071
 1337HOH     H1 4216   3.760   1.051   0.161
 1337HOH     H2 4217   3.718   1.171   0.078
 1338HOH      O 4218   2.703   2.359   1.337
 1338HOH     H1 4219   2.658   2.381   1.419
 1338HOH     H2 4220   2.761   2.434   1.321
 1339HOH      O 4221   0.607   1.879   1.024
 1339HOH     H1 4222   0.646   1.897   0.938
 1339HOH     H2 4223   0.561   1.959   1.047
 1340HOH      O 4224   0.966   1.300   1.839
 1340HOH     H1 4225   0.960   1.274   1.931
 1340HOH     H2 4226   1.048   1.260   1.808
 1341HOH      O 4227   0.704   2.676   0.031
 1341HOH     H1 4228   0.677   2.706   0.118
 1341HOH     H2 4229   0.791   2.715   0.018
 1342HOH      O 4230   3.497   2.201   3.637
 1342HOH     H1 4231   3.588   2.229   3.629
 1342HOH     H2 4232   3.448   2.262   3.580
 1343HOH      O 4233   3.126   3.444   1.527
 1343HOH     H1 4234   3.195   3.507   1.547
 1343HOH     H2 4235   3.164   3.359   1.551
 1344HOH      O 4236   1.401   0.585   0.837
 1344HOH     H1 4237   1.365   0.504   0.873
 1344HOH     H2 4238   1.360   0.655   0.888
 1345HOH      O 4239   0.324   0.839   2.048
 1345HOH     H1 4240   0.416   0.849   2.073
 1345HOH     H2 4241   0.276   0.855   2.129
 1346HOH      O 4242   3.506   1.913   1.023
 1346HOH     H1 4243   3.548   1.827   1.014
 1346HOH     H2 4244   3.543   1.949   1.104
 1347HOH      O 4245   2.001   0.880   2.923
 1347HOH     H1 4246   1.980   0.824   2.848
 1347HOH     H2 4247   2.048   0.954   2.884
 1348HOH      O 4248   1.259   2.793   3.119
 1348HOH     H1 4249   1.265   2.773   3.213
 1348HOH     H2 4250   1.339   2.755   3.082
 1349HOH      O 4251   1.757   3.900   3.359
 1349HOH     H1 4252   1.724   3.865   3.442
 1349HOH     H2 4253   1.690   3.876   3.294
 1350HOH      O 4254   1.449   3.786   3.756
 1350HOH     H1 4255   1.486   3.874   3.744
 1350HOH     H2 4256   1.472   3.739   3.676
 1351HOH      O 4257   2.752   0.109   2.935
 1351HOH     H1 4258   2.838   0.068   2.927
 1351HOH     H2 4259   2.746   0.135   3.027
 1352HOH      O 4260   2.130   3.967   2.969
 1352HOH     H1 4261   2.051   4.020   2.957
 1352HOH     H2 4262   2.104   3.880   2.937
 1353HOH      O 4263   3.220   2.043   3.735
 1353HOH     H1 4264   3.293   2.077   3.787
 1353HOH     H2 4265   3.259   2.024   3.650
 1354HOH      O 4266   1.073   1.259   1.498
 1354HOH     H1 4267   1.145   1.279   1.558
 1354HOH     H2 4268   1.093   1.308   1.418
 1355HOH      O 4269   0.028   3.696   1.112
 1355HOH     H1 4270   0.101   3.680   1.172
 1355HOH     H2 4271  -0.031   3.754   1.160
 1356HOH      O 4272   1.283   1.273   1.064
 1356HOH     H1 4273   1.229   1.325   1.125
 1356HOH     H2 4274   1.355   1.332   1.040
 1357HOH      O 4275   3.578   0.491   2.998
 1357HOH     H1 4276   3.620   0.576   3.010
 1357HOH     H2 4277   3.641   0.440   2.947
 1358HOH      O 4278   3.921   2.955   2.993
 1358HOH     H1 4279   3.901   3.048   2.987
 1358HOH     H2 4280   3.989   2.950   3.061
 1359HOH      O 4281   2.461   3.488   0.459
 1359HOH     H1 4282   2.397   3.421   0.433
 1359HOH     H2 4283   2.408   3.557   0.499
 1360HOH      O 4284   3.252   1.558   2.878
 1360HOH     H1 4285   3.169   1.515   2.897
 1360HOH     H2 4286   3.229   1.648   2.859
 1361HOH      O 4287   3.100   3.550   0.427
 1361HOH     H1 4288   3.115   3.635   0.386
 1361HOH     H2 4289   3.021   3.517   0.384
 1362HOH      O 4290   3.697   0.590   3.416
 1362HOH     H1 4291   3.736   0.658   3.361
 1362HOH     H2 4292   3.763   0.520   3.417
 1363HOH      O 4293   2.364   0.470   2.074
 1363HOH     H1 4294   2.277   0.494   2.040
 1363HOH     H2 4295   2.405   0.421   2.003
 1364HOH      O 4296   3.930   0.708   2.171
 1364HOH     H1 4297   3.988   0.766   2.222
 1364HOH     H2 4298   3.969   0.621   2.180
 1365HOH      O 4299   1.316   1.634   2.178
 1365HOH     H1 4300   1.232   1.669   2.209
 1365HOH     H2 4301   1.293   1.582   2.101
 1366HOH      O 4302   0.034   2.285   2.507
 1366HOH     H1 4303   0.097   2.316   2.572
 1366HOH     H2 4304   0.054   2.334   2.427
 1367HOH      O 4305   3.580   1.580   2.494
 1367HOH     H1 4306   3.646   1.644   2.469
 1367HOH     H2 4307   3.504   1.601   2.440
 1368HOH      O 4308   1.928   1.925   2.726
 1368HOH     H1 4309   1.917   1.902   2.633
 1368HOH     H2 4310   1.952   2.018   2.725
 1369HOH      O 4311   3.886   0.048   0.152
 1369HOH     H1 4312   3.817   0.100   0.192
 1369HOH     H2 4313   3.841  -0.006   0.086
 1370HOH      O 4314   1.285   1.994   1.059
 1370HOH     H1 4315   1.343   1.985   0.984
 1370HOH     H2 4316   1.222   2.061   1.033
 1371HOH      O 4317   0.090   3.993   0.217
 1371HOH     H1 4318   0.022   4.043   0.172
 1371HOH     H2 4319   0.068   4.002   0.310
 1372HOH      O 4320   0.562   0.976   3.400
 1372HOH     H1 4321   0.650   1.003   3.428
 1372HOH     H2 4322   0.526   1.055   3.359
 1373HOH      O 4323   3.488   1.432   2.750
 1373HOH     H1 4324   3.411   1.458   2.801
 1373HOH     H2 4325   3.485   1.490   2.673
 1374HOH      O 4326   3.871   2.617   3.923
 1374HOH     H1 4327   3.930   2.583   3.855
 1374HOH     H2 4328   3.798   2.556   3.924
 1375HOH      O 4329   3.492   2.643   3.352
 1375HOH     H1 4330   3.584   2.643   3.328
 1375HOH     H2 4331   3.491   2.667   3.444
 1376HOH      O 4332   3.933   3.429   1.083
 1376HOH     H1 4333   3.979   3.509   1.058
 1376HOH     H2 4334   3.978   3.399   1.162
 1377HOH      O 4335   0.359   1.535   2.603
 1377HOH     H1 4336   0.305   1.511   2.528
 1377HOH     H2 4337   0.422   1.464   2.612
 1378HOH      O 4338   1.227   3.237   3.570
 1378HOH     H1 4339   1.196   3.320   3.535
 1378HOH     H2 4340   1.272   3.195   3.496
 1379HOH      O 4341   0.528   3.112   0.923
 1379HOH     H1 4342   0.518   3.138   1.015
 1379HOH     H2 4343   0.532   3.195   0.875
 1380HOH      O 4344   3.123   3.558   2.741
 1380HOH     H1 4345   3.182   3.486   2.720
 1380HOH     H2 4346   3.036   3.524   2.724
 1381HOH      O 4347   2.068   3.727   2.879
 1381HOH     H1 4348   2.001   3.660   2.864
 1381HOH     H2 4349   2.147   3.677   2.903
 1382HOH      O 4350   2.206   1.253   2.651
 1382HOH     H1 4351   2.212   1.349   2.652
 1382HOH     H2 4352   2.165   1.233   2.567
 1383HOH      O 4353   1.902   0.536   1.296
 1383HOH     H1 4354   1.881   0.626   1.273
 1383HOH     H2 4355   1.819   0.488   1.284
 1384HOH      O 4356   1.774   0.992   2.648
 1384HOH     H1 4357   1.840   1.041   2.599
 1384HOH     H2 4358   1.823   0.923   2.692
 1385HOH      O 4359   2.887   0.694   0.984
 1385HOH     H1 4360   2.872   0.779   0.944
 1385HOH     H2 4361   2.980   0.677   0.971
 1386HOH      O 4362   2.155   2.397   1.028
 1386HOH     H1 4363   2.106   2.440   0.958
 1386HOH     H2 4364   2.089   2.344   1.074
 1387HOH      O 4365   3.392   3.857   3.333
 1387HOH     H1 4366   3.389   3.802   3.412
 1387HOH     H2 4367   3.485   3.880   3.324
 1388HOH      O 4368   1.671   0.671   3.766
 1388HOH     H1 4369   1.730   0.675   3.691
 1388HOH     H2 4370   1.724   0.631   3.835
 1389HOH      O 4371   1.021   2.046   2.160
 1389HOH     H1 4372   0.963   1.970   2.157
 1389HOH     H2 4373   1.097   2.019   2.108
 1390HOH      O 4374   0.060   3.654   0.306
 1390HOH     H1 4375   0.034   3.616   0.223
 1390HOH     H2 4376   0.155   3.657   0.303
 1391HOH      O 4377   2.007   1.931   1.249
 1391HOH     H1 4378   2.016   1.838   1.272
 1391HOH     H2 4379   1.985   1.974   1.332
 1392HOH      O 4380   1.199   2.996   2.237
 1392HOH     H1 4381   1.110   3.022   2.212
 1392HOH     H2 4382   1.225   3.060   2.303
 1393HOH      O 4383   2.990   1.117   2.792
 1393HOH     H1 4384   2.898   1.113   2.820
 1393HOH     H2 4385   2.993   1.189   2.730
 1394HOH      O 4386   2.441   2.272   3.234
 1394HOH     H1 4387   2.390   2.225   3.300
 1394HOH     H2 4388   2.529   2.278   3.271
 1395HOH      O 4389   3.536   3.965   0.779
 1395HOH     H1 4390   3.498   3.913   0.850
 1395HOH     H2 4391   3.559   3.901   0.712
 1396HOH      O 4392   1.704   2.219   3.393
 1396HOH     H1 4393   1.624   2.271   3.388
 1396HOH     H2 4394   1.767   2.265   3.337
 1397HOH      O 4395   2.212   1.678   3.540
 1397HOH     H1 4396   2.293   1.681   3.490
 1397HOH     H2 4397   2.142   1.682   3.474
 1398HOH      O 4398   3.801   0.780   0.511
 1398HOH     H1 4399   3.812   0.846   0.442
 1398HOH     H2 4400   3.880   0.789   0.565
 1399HOH      O 4401   2.695   0.034   1.678
 1399HOH     H1 4402   2.671   0.058   1.767
 1399HOH     H2 4403   2.750  -0.043   1.687
 1400HOH      O 4404   3.237   0.673   2.826
 1400HOH     H1 4405   3.212   0.601   2.768
 1400HOH     H2 4406   3.153   0.714   2.849
 1401HOH      O 4407   0.399   2.972   0.514
 1401HOH     H1 4408   0.336   2.938   0.450
 1401HOH     H2 4409   0.355   3.049   0.550
 1402HOH      O 4410   3.306   2.150   2.038
 1402HOH     H1 4411   3.260   2.232   2.018
 1402HOH     H2 4412   3.395   2.164   2.005
 1403HOH      O 4413   1.685   1.453   0.168
 1403HOH     H1 4414   1.738   1.531   0.183
 1403HOH     H2 4415   1.626   1.448   0.243
 1404HOH      O 4416   1.932   1.715   1.391
 1404HOH     H1 4417   1.857   1.774   1.403
 1404HOH     H2 4418   1.972   1.711   1.478
 1405HOH      O 4419   0.010   3.229   0.895
 1405HOH     H1 4420  -0.019   3.280   0.970
 1405HOH     H2 4421   0.014   3.293   0.823
 1406HOH      O 4422   0.144   0.227   2.710
 1406HOH     H1 4423   0.103   0.295   2.657
 1406HOH     H2 4424   0.143   0.149   2.654
 1407HOH      O 4425   0.661   2.100   3.893
 1407HOH     H1 4426   0.606   2.172   3.862
 1407HOH     H2 4427   0.601   2.044   3.942
 1408HOH      O 4428   1.958   1.826   2.982
 1408HOH     H1 4429   1.944   1.872   2.899
 1408HOH     H2 4430   1.987   1.738   2.957
 1409HOH      O 4431   1.098   3.719   0.311
 1409HOH     H1 4432   1.135   3.734   0.224
 1409HOH     H2 4433   1.174   3.717   0.369
 1410HOH      O 4434   3.263   1.911   2.565
 1410HOH     H1 4435   3.271   1.955   2.649
 1410HOH     H2 4436   3.270   1.818   2.587
 1411HOH      O 4437   2.720   1.710   1.641
 1411HOH     H1 4438   2.785   1.681   1.576
 1411HOH     H2 4439   2.768   1.712   1.723
 1412HOH      O 4440   2.022   2.465   0.759
 1412HOH     H1 4441   1.964   2.489   0.688
 1412HOH     H2 4442   1.970   2.408   0.815
 1413HOH      O 4443   1.510   2.488   3.289
 1413HOH     H1 4444   1.572   2.559   3.305
 1413HOH     H2 4445   1.548   2.440   3.215
 1414HOH      O 4446   0.100   1.832   3.255
 1414HOH     H1 4447   0.140   1.766   3.198
 1414HOH     H2 4448   0.039   1.782   3.310
 1415HOH      O 4449   3.253   2.961   1.473
 1415HOH     H1 4450   3.326   2.899   1.481
 1415HOH     H2 4451   3.195   2.939   1.546
 1416HOH      O 4452   2.392   2.722   0.296
 1416HOH     H1 4453   2.339   2.796   0.326
 1416HOH     H2 4454   2.328   2.663   0.255
 1417HOH      O 4455   3.309   0.320   2.990
 1417HOH     H1 4456   3.257   0.385   3.039
 1417HOH     H2 4457   3.392   0.363   2.974
 1418HOH      O 4458   0.616   0.812   1.191
 1418HOH     H1 4459   0.579   0.740   1.242
 1418HOH     H2 4460   0.696   0.836   1.237
 1419HOH      O 4461   2.903   0.320   3.073
 1419HOH     H1 4462   2.925   0.246   3.129
 1419HOH     H2 4463   2.833   0.365   3.120
 1420HOH      O 4464   0.246   2.800   1.444
 1420HOH     H1 4465   0.220   2.760   1.361
 1420HOH     H2 4466   0.333   2.837   1.427
 1421HOH      O 4467   1.798   1.665   0.598
 1421HOH     H1 4468   1.840   1.738   0.552
 1421HOH     H2 4469   1.808   1.590   0.539
 1422HOH      O 4470   1.138   0.661   0.712
 1422HOH     H1 4471   1.120   0.733   0.772
 1422HOH     H2 4472   1.233   0.651   0.715
 1423HOH      O 4473   3.578   2.837   2.658
 1423HOH     H1 4474   3.647   2.812   2.596
 1423HOH     H2 4475   3.604   2.795   2.740
 1424HOH      O 4476   0.217   3.562   0.657
 1424HOH     H1 4477   0.195   3.631   0.720
 1424HOH     H2 4478   0.257   3.493   0.711
 1425HOH      O 4479   3.645   3.907   1.583
 1425HOH     H1 4480   3.688   3.845   1.641
 1425HOH     H2 4481   3.586   3.956   1.640
 1426HOH      O 4482   1.814   1.398   0.783
 1426HOH     H1 4483   1.857   1.347   0.851
 1426HOH     H2 4484   1.868   1.476   0.774
 1427HOH      O 4485   0.823   1.679   3.280
 1427HOH     H1 4486   0.896   1.661   3.339
 1427HOH     H2 4487   0.821   1.603   3.221
 1428HOH      O 4488   2.101   1.378   0.580
 1428HOH     H1 4489   2.159   1.414   0.512
 1428HOH     H2 4490   2.158   1.364   0.655
 1429HOH      O 4491   2.075   1.376   0.255
 1429HOH     H1 4492   2.169   1.367   0.240
 1429HOH     H2 4493   2.036   1.300   0.214
 1430HOH      O 4494   0.546   0.069   1.238
 1430HOH     H1 4495   0.467   0.062   1.183
 1430HOH     H2 4496   0.570   0.161   1.233
 1431HOH      O 4497   2.475   1.753   1.744
 1431HOH     H1 4498   2.445   1.828   1.694
 1431HOH     H2 4499   2.560   1.731   1.706
 1432HOH      O 4500   0.594   1.229   3.831
 1432HOH     H1 4501   0.534   1.235   3.906
 1432HOH     H2 4502   0.546   1.177   3.766
 1433HOH      O 4503   2.383   3.363   3.968
 1433HOH     H1 4504   2.352   3.289   3.916
 1433HOH     H2 4505   2.478   3.353   3.972
 1434HOH      O 4506   2.914   0.796   3.560
 1434HOH     H1 4507   3.005   0.773   3.544
 1434HOH     H2 4508   2.902   0.783   3.654
 1435HOH      O 4509   3.755   2.430   0.205
 1435HOH     H1 4510   3.769   2.335   0.213
 1435HOH     H2 4511   3.695   2.439   0.131
 1436HOH      O 4512   0.323   0.736   3.843
 1436HOH     H1 4513   0.402   0.786   3.860
 1436HOH     H2 4514   0.280   0.729   3.928
 1437HOH      O 4515   3.874   0.323   3.727
 1437HOH     H1 4516   3.872   0.233   3.758
 1437HOH     H2 4517   3.889   0.375   3.805
 1438HOH      O 4518   2.779   0.093   1.406
 1438HOH     H1 4519   2.838   0.019   1.390
 1438HOH     H2 4520   2.776   0.101   1.502
 1439HOH      O 4521   0.243   1.412   2.136
 1439HOH     H1 4522   0.328   1.452   2.154
 1439HOH     H2 4523   0.194   1.480   2.090
 1440HOH      O 4524   2.209   1.543   2.534
 1440HOH     H1 4525   2.295   1.535   2.576
 1440HOH     H2 4526   2.195   1.638   2.528
 1441HOH      O 4527   1.678   3.637   3.213
 1441HOH     H1 4528   1.756   3.654   3.162
 1441HOH     H2 4529   1.704   3.569   3.275
 1442HOH      O 4530   2.488   1.581   1.956
 1442HOH     H1 4531   2.475   1.630   1.875
 1442HOH     H2 4532   2.406   1.533   1.968
 1443HOH      O 4533   0.138   0.807   1.857
 1443HOH     H1 4534   0.215   0.802   1.913
 1443HOH     H2 4535   0.118   0.901   1.853
 1444HOH      O 4536   1.344   1.141   2.038
 1444HOH     H1 4537   1.431   1.127   2.000
 1444HOH     H2 4538   1.340   1.080   2.111
 1445HOH      O 4539   3.718   3.753   2.083
 1445HOH     H1 4540   3.737   3.775   2.174
 1445HOH     H2 4541   3.623   3.741   2.081
 1446HOH      O 4542   1.192   1.617   3.514
 1446HOH     H1 4543   1.285   1.635   3.501
 1446HOH     H2 4544   1.148   1.698   3.491
 1447HOH      O 4545   0.825   2.312   3.658
 1447HOH     H1 4546   0.867   2.249   3.716
 1447HOH     H2 4547   0.895   2.373   3.634
 1448HOH      O 4548   0.364   0.048   0.283
 1448HOH     H1 4549   0.422   0.000   0.342
 1448HOH     H2 4550   0.288  -0.009   0.273
 1449HOH      O 4551   2.709   3.284   0.437
 1449HOH     H1 4552   2.712   3.201   0.389
 1449HOH     H2 4553   2.618   3.312   0.430
 1450HOH      O 4554   1.313   1.379   0.621
 1450HOH     H1 4555   1.400   1.356   0.653
 1450HOH     H2 4556   1.291   1.459   0.669
 1451HOH      O 4557   3.657   3.200   1.821
 1451HOH     H1 4558   3.597   3.264   1.861
 1451HOH     H2 4559   3.664   3.131   1.887
 1452HOH      O 4560   2.048   0.608   3.374
 1452HOH     H1 4561   1.977   0.543   3.375
 1452HOH     H2 4562   2.021   0.672   3.307
 1453HOH      O 4563  -0.006   3.012   1.358
 1453HOH     H1 4564   0.081   3.051   1.359
 1453HOH     H2 4565  -0.015   2.971   1.444
 1454HOH      O 4566   2.176   3.449   1.361
 1454HOH     H1 4567   2.123   3.372   1.380
 1454HOH     H2 4568   2.113   3.515   1.332
 1455HOH      O 4569   3.323   3.479   2.433
 1455HOH     H1 4570   3.283   3.565   2.439
 1455HOH     H2 4571   3.413   3.496   2.406
 1456HOH      O 4572   3.524   0.120   3.943
 1456HOH     H1 4573   3.489   0.136   3.855
 1456HOH     H2 4574   3.555   0.206   3.972
 1457HOH      O 4575   0.731   1.440   0.094
 1457HOH     H1 4576   0.641   1.410   0.086
 1457HOH     H2 4577   0.776   1.370   0.142
 1458HOH      O 4578   3.494   0.445   0.711
 1458HOH     H1 4579   3.423   0.428   0.649
 1458HOH     H2 4580   3.554   0.503   0.663
 1459HOH      O 4581   3.046   2.530   0.758
 1459HOH     H1 4582   3.030   2.439   0.784
 1459HOH     H2 4583   2.961   2.572   0.768
 1460HOH      O 4584   2.106   1.672   0.599
 1460HOH     H1 4585   2.045   1.609   0.561
 1460HOH     H2 4586   2.193   1.633   0.585
 1461HOH      O 4587   3.924   0.650   2.686
 1461HOH     H1 4588   3.828   0.652   2.683
 1461HOH     H2 4589   3.949   0.741   2.702
 1462HOH      O 4590   1.369   2.423   0.476
 1462HOH     H1 4591   1.405   2.488   0.416
 1462HOH     H2 4592   1.281   2.455   0.495
 1463HOH      O 4593   2.441   1.264   3.291
 1463HOH     H1 4594   2.356   1.298   3.319
 1463HOH     H2 4595   2.504   1.330   3.320
 1464HOH      O 4596   3.236   1.534   2.109
 1464HOH     H1 4597   3.306   1.513   2.047
 1464HOH     H2 4598   3.245   1.628   2.125
 1465HOH      O 4599   0.079   1.900   2.651
 1465HOH     H1 4600   0.137   1.899   2.727
 1465HOH     H2 4601   0.125   1.954   2.586
 1466HOH      O 4602   0.465   3.826   2.396
 1466HOH     H1 4603   0.462   3.781   2.481
 1466HOH     H2 4604   0.485   3.758   2.333
 1467HOH      O 4605   2.986   1.241   1.492
 1467HOH     H1 4606   2.994   1.150   1.519
 1467HOH     H2 4607   2.921   1.278   1.552
 1468HOH      O 4608   3.853   0.240   1.344
 1468HOH     H1 4609   3.904   0.160   1.338
 1468HOH     H2 4610   3.794   0.226   1.418
 1469HOH      O 4611   0.609   2.250   3.453
 1469HOH     H1 4612   0.655   2.189   3.396
 1469HOH     H2 4613   0.673   2.275   3.519
 1470HOH      O 4614   0.811   3.787   3.540
 1470HOH     H1 4615   0.807   3.703   3.585
 1470HOH     H2 4616   0.812   3.765   3.447
 1471HOH      O 4617   2.297   1.673   0.036
 1471HOH     H1 4618   2.379   1.629   0.059
 1471HOH     H2 4619   2.282   1.647  -0.055
 1472HOH      O 4620   3.754   1.366   0.015
 1472HOH     H1 4621   3.667   1.395  -0.013
 1472HOH     H2 4622   3.752   1.373   0.110
 1473HOH      O 4623   3.716   3.934   3.879
 1473HOH     H1 4624   3.680   3.901   3.962
 1473HOH     H2 4625   3.639   3.962   3.830
 1474HOH      O 4626   1.647   3.671   3.928
 1474HOH     H1 4627   1.719   3.733   3.938
 1474HOH     H2 4628   1.576   3.723   3.889
 1475HOH      O 4629   1.896   0.264   0.896
 1475HOH     H1 4630   1.937   0.184   0.928
 1475HOH     H2 4631   1.963   0.304   0.840
 1476HOH      O 4632   3.232   2.030   0.215
 1476HOH     H1 4633   3.239   1.962   0.149
 1476HOH     H2 4634   3.266   1.990   0.295
 1477HOH      O 4635   1.711   0.202   1.943
 1477HOH     H1 4636   1.700   0.244   1.858
 1477HOH     H2 4637   1.714   0.274   2.006
 1478HOH      O 4638   2.117   2.939   0.423
 1478HOH     H1 4639   2.058   2.934   0.348
 1478HOH     H2 4640   2.085   2.872   0.484
 1479HOH      O 4641   3.439   0.395   2.104
 1479HOH     H1 4642   3.378   0.469   2.099
 1479HOH     H2 4643   3.389   0.322   2.067
 1480HOH      O 4644   3.289   0.018   0.040
 1480HOH     H1 4645   3.349   0.085   0.010
 1480HOH     H2 4646   3.310   0.005   0.132
 1481HOH      O 4647   1.391   3.307   0.123
 1481HOH     H1 4648   1.422   3.243   0.059
 1481HOH     H2 4649   1.451   3.381   0.114
 1482HOH      O 4650   3.035   0.350   1.596
 1482HOH     H1 4651   2.967   0.383   1.655
 1482HOH     H2 4652   3.065   0.268   1.637
 1483HOH      O 4653   3.048   2.915   0.602
 1483HOH     H1 4654   3.097   2.856   0.660
 1483HOH     H2 4655   3.007   2.858   0.537
 1484HOH      O 4656   0.360   2.348   1.691
 1484HOH     H1 4657   0.312   2.381   1.614
 1484HOH     H2 4658   0.402   2.268   1.660
 1485HOH      O 4659   1.379   1.294   3.688
 1485HOH     H1 4660   1.396   1.373   3.739
 1485HOH     H2 4661   1.466   1.260   3.666
 1486HOH      O 4662   0.987   2.446   3.472
 1486HOH     H1 4663   1.001   2.497   3.392
 1486HOH     H2 4664   0.971   2.357   3.441
 1487HOH      O 4665   3.571   1.839   2.694
 1487HOH     H1 4666   3.582   1.861   2.602
 1487HOH     H2 4667   3.510   1.905   2.727
 1488HOH      O 4668   1.178   0.327   3.306
 1488HOH     H1 4669   1.222   0.244   3.321
 1488HOH     H2 4670   1.203   0.352   3.217
 1489HOH      O 4671   0.573   1.685   0.190
 1489HOH     H1 4672   0.578   1.728   0.276
 1489HOH     H2 4673   0.635   1.612   0.196
 1490HOH      O 4674   2.550   1.834   0.184
 1490HOH     H1 4675   2.552   1.758   0.126
 1490HOH     H2 4676   2.517   1.800   0.267
 1491HOH      O 4677   1.490   2.450   3.931
 1491HOH     H1 4678   1.484   2.414   3.842
 1491HOH     H2 4679   1.569   2.504   3.929
 1492HOH      O 4680   1.607   1.188   3.111
 1492HOH     H1 4681   1.630   1.202   3.203
 1492HOH     H2 4682   1.676   1.131   3.078
 1493HOH      O 4683   0.168   3.202   2.277
 1493HOH     H1 4684   0.093   3.257   2.301
 1493HOH     H2 4685   0.183   3.148   2.355
 1494HOH      O 4686   2.939   2.174   0.501
 1494HOH     H1 4687   2.920   2.187   0.594
 1494HOH     H2 4688   3.024   2.131   0.500
 1495HOH      O 4689   0.613   3.647   0.833
 1495HOH     H1 4690   0.703   3.675   0.849
 1495HOH     H2 4691   0.585   3.698   0.757
 1496HOH      O 4692   2.470   2.819   1.148
 1496HOH     H1 4693   2.424   2.881   1.205
 1496HOH     H2 4694   2.472   2.737   1.199
 1497HOH      O 4695   2.299   2.142   1.397
 1497HOH     H1 4696   2.318   2.234   1.412
 1497HOH     H2 4697   2.229   2.121   1.458
 1498HOH      O 4698   2.501   2.697   0.048
 1498HOH     H1 4699   2.561   2.657   0.112
 1498HOH     H2 4700   2.559   2.744  -0.013
 1499HOH      O 4701   0.960   0.678   2.984
 1499HOH     H1 4702   0.920   0.618   2.921
 1499HOH     H2 4703   0.888   0.705   3.040
 1500HOH      O 4704   1.159   2.961   3.497
 1500HOH     H1 4705   1.167   2.865   3.500
 1500HOH     H2 4706   1.247   2.992   3.518
 1501HOH      O 4707   1.869   3.752   1.897
 1501HOH     H1 4708   1.905   3.697   1.966
 1501HOH     H2 4709   1.846   3.834   1.941
 1502HOH      O 4710   0.321   2.842   2.771
 1502HOH     H1 4711   0.351   2.904   2.837
 1502HOH     H2 4712   0.243   2.801   2.810
 1503HOH      O 4713   3.346   2.654   3.996
 1503HOH     H1 4714   3.267   2.703   4.017
 1503HOH     H2 4715   3.415   2.699   4.045
 1504HOH      O 4716   2.220   2.132   3.817
 1504HOH     H1 4717   2.222   2.055   3.761
 1504HOH     H2 4718   2.293   2.118   3.878
 1505HOH      O 4719   1.229   1.153   1.776
 1505HOH     H1 4720   1.284   1.223   1.740
 1505HOH     H2 4721   1.266   1.135   1.862
 1506HOH      O 4722   1.665   1.691   2.065
 1506HOH     H1 4723   1.739   1.651   2.020
 1506HOH     H2 4724   1.604   1.714   1.995
 1507HOH      O 4725   2.750   0.115   3.221
 1507HOH     H1 4726   2.666   0.079   3.250
 1507HOH     H2 4727   2.746   0.208   3.245
 1508HOH      O 4728   1.711   1.898   1.268
 1508HOH     H1 4729   1.722   1.892   1.173
 1508HOH     H2 4730   1.786   1.949   1.298
 1509HOH      O 4731   1.490   3.268   2.607
 1509HOH     H1 4732   1.514   3.193   2.553
 1509HOH     H2 4733   1.574   3.305   2.634
 1510HOH      O 4734   1.230   3.549   0.600
 1510HOH     H1 4735   1.199   3.459   0.612
 1510HOH     H2 4736   1.204   3.594   0.681
 1511HOH      O 4737   0.826   1.957   0.753
 1511HOH     H1 4738   0.805   2.023   0.819
 1511HOH     H2 4739   0.747   1.903   0.748
 1512HOH      O 4740   3.508   1.642   3.020
 1512HOH     H1 4741   3.472   1.701   3.086
 1512HOH     H2 4742   3.432   1.613   2.970
 1513HOH      O 4743   4.016   0.887   0.975
 1513HOH     H1 4744   4.105   0.902   1.009
 1513HOH     H2 4745   3.961   0.882   1.054
 1514HOH      O 4746   0.397   1.198   2.426
 1514HOH     H1 4747   0.486   1.188   2.392
 1514HOH     H2 4748   0.342   1.154   2.361
 1515HOH      O 4749   2.611   3.763   0.721
 1515HOH     H1 4750   2.645   3.674   0.712
 1515HOH     H2 4751   2.516   3.752   0.720
 1516HOH      O 4752   1.424   0.692   2.895
 1516HOH     H1 4753   1.478   0.768   2.873
 1516HOH     H2 4754   1.363   0.724   2.962
 1517HOH      O 4755   0.121   4.047   2.201
 1517HOH     H1 4756   0.080   3.972   2.242
 1517HOH     H2 4757   0.126   4.024   2.108
 1518HOH      O 4758   0.876   3.387   2.390
 1518HOH     H1 4759   0.915   3.410   2.474
 1518HOH     H2 4760   0.947   3.401   2.326
 1519HOH      O 4761   1.632   0.687   2.625
 1519HOH     H1 4762   1.579   0.611   2.651
 1519HOH     H2 4763   1.577   0.762   2.643
 1520HOH      O 4764   0.034   3.054   2.781
 1520HOH     H1 4765   0.080   3.102   2.849
 1520HOH     H2 4766  -0.045   3.020   2.825
 1521HOH      O 4767   3.440   3.319   2.216
 1521HOH     H1 4768   3.394   3.354   2.293
 1521HOH     H2 4769   3.450   3.226   2.235
 1522HOH      O 4770   3.905   2.188   0.557
 1522HOH     H1 4771   3.966   2.250   0.595
 1522HOH     H2 4772   3.960   2.131   0.503
 1523HOH      O 4773   0.541   3.462   0.173
 1523HOH     H1 4774   0.538   3.372   0.206
 1523HOH     H2 4775   0.594   3.456   0.093
 1524HOH      O 4776   0.148   0.632   0.559
 1524HOH     H1 4777   0.075   0.573   0.579
 1524HOH     H2 4778   0.217   0.607   0.620
 1525HOH      O 4779   3.827   2.091   1.480
 1525HOH     H1 4780   3.822   2.182   1.508
 1525HOH     H2 4781   3.758   2.081   1.414
 1526HOH      O 4782   3.286   3.480   3.587
 1526HOH     H1 4783   3.290   3.405   3.527
 1526HOH     H2 4784   3.192   3.500   3.593
 1527HOH      O 4785   2.381   1.073   0.222
 1527HOH     H1 4786   2.407   1.046   0.310
 1527HOH     H2 4787   2.359   0.991   0.177
 1528HOH      O 4788   2.028   1.730   2.062
 1528HOH     H1 4789   2.067   1.763   1.981
 1528HOH     H2 4790   2.071   1.781   2.131
 1529HOH      O 4791   1.544   3.644   2.590
 1529HOH     H1 4792   1.539   3.586   2.666
 1529HOH     H2 4793   1.476   3.611   2.531
 1530HOH      O 4794   2.818   2.719   1.249
 1530HOH     H1 4795   2.832   2.806   1.287
 1530HOH     H2 4796   2.737   2.688   1.289
 1531HOH      O 4797   0.810   1.146   3.981
 1531HOH     H1 4798   0.851   1.080   3.925
 1531HOH     H2 4799   0.723   1.157   3.945
 1532HOH      O 4800   0.185   2.182   1.403
 1532HOH     H1 4801   0.204   2.273   1.424
 1532HOH     H2 4802   0.168   2.140   1.487
 1533HOH      O 4803   0.903   1.685   1.712
 1533HOH     H1 4804   0.998   1.670   1.704
 1533HOH     H2 4805   0.864   1.602   1.684
 1534HOH      O 4806   0.178   2.757   0.273
 1534HOH     H1 4807   0.165   2.825   0.339
 1534HOH     H2 4808   0.090   2.741   0.238
 1535HOH      O 4809   1.176   2.032   3.235
 1535HOH     H1 4810   1.121   2.030   3.157
 1535HOH     H2 4811   1.185   2.124   3.256
 1536HOH      O 4812   2.204   0.166   0.660
 1536HOH     H1 4813   2.173   0.252   0.687
 1536HOH     H2 4814   2.124   0.118   0.637
 1537HOH      O 4815   0.177   2.048   2.109
 1537HOH     H1 4816   0.100   2.042   2.167
 1537HOH     H2 4817   0.185   2.141   2.090
 1538HOH      O 4818   3.575   0.960   3.551
 1538HOH     H1 4819   3.581   1.036   3.492
 1538HOH     H2 4820   3.498   0.978   3.605
 1539HOH      O 4821   3.297   1.231   0.290
 1539HOH     H1 4822   3.229   1.298   0.295
 1539HOH     H2 4823   3.276   1.182   0.210
 1540HOH      O 4824   3.087   3.749   2.087
 1540HOH     H1 4825   3.084   3.745   1.991
 1540HOH     H2 4826   3.014   3.806   2.110
 1541HOH      O 4827   0.263   0.085   3.126
 1541HOH     H1 4828   0.276   0.141   3.049
 1541HOH     H2 4829   0.169   0.090   3.144
 1542HOH      O 4830   3.891   1.169   3.547
 1542HOH     H1 4831   3.932   1.255   3.548
 1542HOH     H2 4832   3.820   1.175   3.612
 1543HOH      O 4833   3.075   0.211   1.333
 1543HOH     H1 4834   3.025   0.131   1.347
 1543HOH     H2 4835   3.029   0.278   1.384
 1544HOH      O 4836   0.627   1.801   3.125
 1544HOH     H1 4837   0.567   1.726   3.128
 1544HOH     H2 4838   0.702   1.774   3.177
 1545HOH      O 4839   1.445   2.079   1.536
 1545HOH     H1 4840   1.454   2.090   1.441
 1545HOH     H2 4841   1.350   2.082   1.551
 1546HOH      O 4842   3.625   3.755   0.104
 1546HOH     H1 4843   3.701   3.763   0.162
 1546HOH     H2 4844   3.557   3.807   0.146
 1547HOH      O 4845   0.738   3.869   1.956
 1547HOH     H1 4846   0.796   3.804   1.917
 1547HOH     H2 4847   0.773   3.883   2.044
 1548HOH      O 4848   0.413   3.131   0.092
 1548HOH     H1 4849   0.403   3.088   0.007
 1548HOH     H2 4850   0.325   3.164   0.113
 1549HOH      O 4851   0.209   0.023   1.445
 1549HOH     H1 4852   0.197   0.102   1.393
 1549HOH     H2 4853   0.143   0.029   1.515
 1550HOH      O 4854   2.214   1.421   3.391
 1550HOH     H1 4855   2.221   1.484   3.462
 1550HOH     H2 4856   2.182   1.471   3.316
 1551HOH      O 4857   2.264   1.130   2.358
 1551HOH     H1 4858   2.357   1.122   2.380
 1551HOH     H2 4859   2.251   1.224   2.345
 1552HOH      O 4860   3.193   2.172   1.427
 1552HOH     H1 4861   3.124   2.210   1.373
 1552HOH     H2 4862   3.271   2.173   1.370
 1553HOH      O 4863   0.356   2.397   0.537
 1553HOH     H1 4864   0.427   2.339   0.565
 1553HOH     H2 4865   0.380   2.482   0.574
 1554HOH      O 4866   3.995   0.437   0.595
 1554HOH     H1 4867   3.914   0.468   0.636
 1554HOH     H2 4868   4.013   0.354   0.639
 1555HOH      O 4869   3.044   1.790   1.830
 1555HOH     H1 4870   2.953   1.774   1.857
 1555HOH     H2 4871   3.075   1.705   1.799
 1556HOH      O 4872   2.320   0.538   3.303
 1556HOH     H1 4873   2.370   0.618   3.317
 1556HOH     H2 4874   2.230   0.567   3.293
 1557HOH      O 4875   2.385   0.953   2.889
 1557HOH     H1 4876   2.350   0.869   2.918
 1557HOH     H2 4877   2.320   1.018   2.916
 1558HOH      O 4878   1.725   2.733   0.395
 1558HOH     H1 4879   1.662   2.799   0.425
 1558HOH     H2 4880   1.681   2.649   0.411
 1559HOH      O 4881   0.631   0.758   1.800
 1559HOH     H1 4882   0.599   0.686   1.854
 1559HOH     H2 4883   0.624   0.835   1.857
 1560HOH      O 4884   2.688   1.527   3.222
 1560HOH     H1 4885   2.757   1.590   3.243
 1560HOH     H2 4886   2.611   1.582   3.203
 1561HOH      O 4887   2.543   2.276   3.972
 1561HOH     H1 4888   2.530   2.341   4.041
 1561HOH     H2 4889   2.517   2.321   3.891
 1562HOH      O 4890   2.583   1.046   1.520
 1562HOH     H1 4891   2.622   1.114   1.464
 1562HOH     H2 4892   2.586   0.967   1.467
 1563HOH      O 4893   3.529   3.030   0.343
 1563HOH     H1 4894   3.435   3.028   0.364
 1563HOH     H2 4895   3.537   2.974   0.266
 1564HOH      O 4896   1.155   3.211   0.227
 1564HOH     H1 4897   1.138   3.166   0.144
 1564HOH     H2 4898   1.238   3.256   0.213
 1565HOH      O 4899   1.965   2.966   3.553
 1565HOH     H1 4900   1.903   3.023   3.600
 1565HOH     H2 4901   2.015   2.923   3.622
 1566HOH      O 4902   3.700   1.903   3.355
 1566HOH     H1 4903   3.742   1.930   3.273
 1566HOH     H2 4904   3.655   1.982   3.385
 1567HOH      O 4905   0.312   1.761   0.163
 1567HOH     H1 4906   0.274   1.697   0.223
 1567HOH     H2 4907   0.406   1.739   0.162
 1568HOH      O 4908   0.631   3.247   1.962
 1568HOH     H1 4909   0.704   3.184   1.966
 1568HOH     H2 4910   0.575   3.223   2.035
 1569HOH      O 4911   2.682   1.985   3.986
 1569HOH     H1 4912   2.621   1.935   3.931
 1569HOH     H2 4913   2.684   2.072   3.947
 1570HOH      O 4914   0.951   3.121   2.382
 1570HOH     H1 4915   1.036   3.133   2.424
 1570HOH     H2 4916   0.909   3.206   2.388
 1571HOH      O 4917   3.849   1.390   2.670
 1571HOH     H1 4918   3.940   1.393   2.641
 1571HOH     H2 4919   3.824   1.482   2.679
 1572HOH      O 4920   2.124   1.531   3.131
 1572HOH     H1 4921   2.167   1.447   3.116
 1572HOH     H2 4922   2.136   1.579   3.049
 1573HOH      O 4923   3.470   0.830   2.046
 1573HOH     H1 4924   3.452   0.850   2.138
 1573HOH     H2 4925   3.553   0.782   2.049
 1574HOH      O 4926   2.682   2.991   1.084
 1574HOH     H1 4927   2.730   2.943   1.017
 1574HOH     H2 4928   2.607   2.935   1.105
 1575HOH      O 4929   2.678   1.078   0.601
 1575HOH     H1 4930   2.657   1.045   0.514
 1575HOH     H2 4931   2.603   1.133   0.624
 1576HOH      O 4932   3.754   0.839   3.999
 1576HOH     H1 4933   3.793   0.793   4.074
 1576HOH     H2 4934   3.753   0.931   4.026
 1577HOH      O 4935   4.058   1.163   0.143
 1577HOH     H1 4936   4.066   1.086   0.199
 1577HOH     H2 4937   3.971   1.156   0.105
 1578HOH      O 4938   0.316   0.455   3.020
 1578HOH     H1 4939   0.320   0.530   2.960
 1578HOH     H2 4940   0.336   0.379   2.966
 1579HOH      O 4941   1.575   2.236   0.224
 1579HOH     H1 4942   1.642   2.221   0.158
 1579HOH     H2 4943   1.587   2.164   0.286
 1580HOH      O 4944   3.526   2.441   1.402
 1580HOH     H1 4945   3.440   2.451   1.444
 1580HOH     H2 4946   3.506   2.417   1.311
 1581HOH      O 4947   3.974   3.614   3.077
 1581HOH     H1 4948   4.014   3.540   3.031
 1581HOH     H2 4949   4.027   3.625   3.156
 1582HOH      O 4950   1.762   2.213   0.601
 1582HOH     H1 4951   1.702   2.263   0.656
 1582HOH     H2 4952   1.820   2.279   0.562
 1583HOH      O 4953   0.881   2.753   1.996
 1583HOH     H1 4954   0.895   2.690   1.926
 1583HOH     H2 4955   0.934   2.720   2.069
 1584HOH      O 4956   3.136   3.974   2.445
 1584HOH     H1 4957   3.062   3.958   2.503
 1584HOH     H2 4958   3.144   4.070   2.443
 1585HOH      O 4959   0.872   0.186   2.219
 1585HOH     H1 4960   0.787   0.217   2.251
 1585HOH     H2 4961   0.862   0.091   2.215
 1586HOH      O 4962   0.556   0.352   1.784
 1586HOH     H1 4963   0.606   0.272   1.798
 1586HOH     H2 4964   0.477   0.323   1.738
 1587HOH      O 4965   0.610   0.210   1.522
 1587HOH     H1 4966   0.705   0.210   1.522
 1587HOH     H2 4967   0.585   0.227   1.432
 1588HOH      O 4968   3.930   1.954   0.327
 1588HOH     H1 4969   3.991   1.943   0.254
 1588HOH     H2 4970   3.952   1.882   0.387
 1589HOH      O 4971   0.410   0.960   1.257
 1589HOH     H1 4972   0.444   1.008   1.332
 1589HOH     H2 4973   0.488   0.922   1.215
 1590HOH      O 4974   3.276   1.638   2.621
 1590HOH     H1 4975   3.286   1.580   2.696
 1590HOH     H2 4976   3.194   1.611   2.580
 1591HOH      O 4977   0.579   3.212   0.481
 1591HOH     H1 4978   0.529   3.134   0.509
 1591HOH     H2 4979   0.522   3.286   0.504
 1592HOH      O 4980   0.309   3.130   1.329
 1592HOH     H1 4981   0.329   3.205   1.385
 1592HOH     H2 4982   0.373   3.064   1.355
 1593HOH      O 4983   1.575   1.983   4.014
 1593HOH     H1 4984   1.494   1.999   4.061
 1593HOH     H2 4985   1.605   1.898   4.045
 1594HOH      O 4986   0.709   3.240   3.809
 1594HOH     H1 4987   0.712   3.209   3.719
 1594HOH     H2 4988   0.670   3.168   3.859
 1595HOH      O 4989   1.851   0.828   1.219
 1595HOH     H1 4990   1.780   0.847   1.158
 1595HOH     H2 4991   1.927   0.872   1.181
 1596HOH      O 4992   3.592   3.546   2.404
 1596HOH     H1 4993   3.623   3.457   2.423
 1596HOH     H2 4994   3.608   3.594   2.486
 1597HOH      O 4995   2.938   3.546   3.251
 1597HOH     H1 4996   2.933   3.497   3.168
 1597HOH     H2 4997   3.018   3.598   3.243
 1598HOH      O 4998   0.954   0.652   1.512
 1598HOH     H1 4999   0.937   0.615   1.599
 1598HOH     H2 5000   1.049   0.646   1.501
 1599HOH      O 5001   0.942   2.366   2.061
 1599HOH     H1 5002   1.014   2.419   2.026
 1599HOH     H2 5003   0.935   2.292   2.000
 1600HOH      O 5004   0.682   2.744   3.352
 1600HOH     H1 5005   0.625   2.686   3.301
 1600HOH     H2 5006   0.682   2.706   3.440
 1601HOH      O 5007   0.933   1.587   2.708
 1601HOH     H1 5008   0.858   1.539   2.673
 1601HOH     H2 5009   0.985   1.610   2.631
 1602HOH      O 5010   0.543   1.918   2.015
 1602HOH     H1 5011   0.465   1.954   1.972
 1602HOH     H2 5012   0.602   1.895   1.943
 1603HOH      O 5013   0.048   3.013  -0.016
 1603HOH     H1 5014  -0.016   2.982   0.049
 1603HOH     H2 5015   0.045   3.108  -0.009
 1604HOH      O 5016   3.682   0.035   2.163
 1604HOH     H1 5017   3.700  -0.051   2.203
 1604HOH     H2 5018   3.759   0.088   2.184
 1605HOH      O 5019   1.468   2.325   1.783
 1605HOH     H1 5020   1.407   2.385   1.739
 1605HOH     H2 5021   1.487   2.366   1.867
 1606HOH      O 5022   3.824   3.100   3.970
 1606HOH     H1 5023   3.774   3.182   3.967
 1606HOH     H2 5024   3.916   3.129   3.970
 1607HOH      O 5025   2.835   0.999   1.183
 1607HOH     H1 5026   2.807   0.908   1.171
 1607HOH     H2 5027   2.885   0.999   1.265
 1608HOH      O 5028   0.199   3.182   2.571
 1608HOH     H1 5029   0.136   3.154   2.638
 1608HOH     H2 5030   0.219   3.273   2.594
 1609HOH      O 5031   2.538   1.859   2.613
 1609HOH     H1 5032   2.489   1.938   2.591
 1609HOH     H2 5033   2.571   1.827   2.530
 1610HOH      O 5034   1.529   0.344   3.929
 1610HOH     H1 5035   1.441   0.341   3.893
 1610HOH     H2 5036   1.534   0.429   3.973
 1611HOH      O 5037   3.623   0.687   1.433
 1611HOH     H1 5038   3.600   0.616   1.372
 1611HOH     H2 5039   3.718   0.680   1.441
 1612HOH      O 5040   0.588   2.754   2.729
 1612HOH     H1 5041   0.496   2.766   2.755
 1612HOH     H2 5042   0.589   2.776   2.636
 1613HOH      O 5043   0.139   1.123   3.346
 1613HOH     H1 5044   0.113   1.097   3.434
 1613HOH     H2 5045   0.057   1.151   3.304
 1614HOH      O 5046   0.459   3.445   2.901
 1614HOH     H1 5047   0.519   3.415   2.970
 1614HOH     H2 5048   0.471   3.540   2.899
 1615HOH      O 5049   2.066   0.643   0.944
 1615HOH     H1 5050   2.127   0.711   0.975
 1615HOH     H2 5051   2.107   0.561   0.972
 1616HOH      O 5052   3.161   0.428   1.853
 1616HOH     H1 5053   3.231   0.434   1.789
 1616HOH     H2 5054   3.183   0.352   1.906
 1617HOH      O 5055   2.447   0.951   2.630
 1617HOH     H1 5056   2.415   0.946   2.720
 1617HOH     H2 5057   2.378   0.911   2.578
 1618HOH      O 5058   3.576   1.697   2.113
 1618HOH     H1 5059   3.511   1.670   2.177
 1618HOH     H2 5060   3.658   1.701   2.162
 1619HOH      O 5061   3.749   2.601   3.297
 1619HOH     H1 5062   3.768   2.686   3.257
 1619HOH     H2 5063   3.759   2.615   3.391
 1620HOH      O 5064   0.574   2.853   1.165
 1620HOH     H1 5065   0.497   2.801   1.145
 1620HOH     H2 5066   0.648   2.799   1.136
 1621HOH      O 5067   3.666   1.793   0.731
 1621HOH     H1 5068   3.687   1.732   0.801
 1621HOH     H2 5069   3.717   1.872   0.751
 1622HOH      O 5070   3.166   1.828   2.912
 1622HOH     H1 5071   3.175   1.900   2.849
 1622HOH     H2 5072   3.084   1.785   2.888
 1623HOH      O 5073   2.347   2.346   2.751
 1623HOH     H1 5074   2.414   2.288   2.715
 1623HOH     H2 5075   2.328   2.407   2.680
 1624HOH      O 5076   3.499   2.722   1.865
 1624HOH     H1 5077   3.527   2.672   1.942
 1624HOH     H2 5078   3.416   2.762   1.890
 1625HOH      O 5079   3.622   0.243   1.945
 1625HOH     H1 5080   3.611   0.334   1.972
 1625HOH     H2 5081   3.647   0.197   2.025
 1626HOH      O 5082   3.371   3.048   3.122
 1626HOH     H1 5083   3.355   2.967   3.171
 1626HOH     H2 5084   3.439   3.093   3.174
 1627HOH      O 5085   2.735   2.518   0.755
 1627HOH     H1 5086   2.677   2.549   0.685
 1627HOH     H2 5087   2.709   2.570   0.831
 1628HOH      O 5088   2.542   1.343   0.547
 1628HOH     H1 5089   2.631   1.369   0.523
 1628HOH     H2 5090   2.490   1.358   0.468
 1629HOH      O 5091   1.847   1.462   0.427
 1629HOH     H1 5092   1.861   1.440   0.335
 1629HOH     H2 5093   1.912   1.409   0.474
 1630HOH      O 5094   0.820   1.866   3.905
 1630HOH     H1 5095   0.728   1.879   3.882
 1630HOH     H2 5096   0.856   1.817   3.831
 1631HOH      O 5097   2.714   0.811   2.872
 1631HOH     H1 5098   2.687   0.794   2.962
 1631HOH     H2 5099   2.657   0.755   2.819
 1632HOH      O 5100   1.042   1.528   0.663
 1632HOH     H1 5101   1.108   1.587   0.699
 1632HOH     H2 5102   1.032   1.556   0.572
 1633HOH      O 5103   3.872   3.839   2.554
 1633HOH     H1 5104   3.846   3.814   2.643
 1633HOH     H2 5105   3.957   3.881   2.565
 1634HOH      O 5106   0.647   1.670   1.446
 1634HOH     H1 5107   0.729   1.635   1.411
 1634HOH     H2 5108   0.581   1.645   1.381
 1635HOH      O 5109   3.300   3.914   3.085
 1635HOH     H1 5110   3.362   3.987   3.080
 1635HOH     H2 5111   3.323   3.870   3.167
 1636HOH      O 5112   2.339   0.771   1.031
 1636HOH     H1 5113   2.320   0.804   1.119
 1636HOH     H2 5114   2.418   0.819   1.005
 1637HOH      O 5115   2.460   0.999   1.741
 1637HOH     H1 5116   2.520   1.032   1.674
 1637HOH     H2 5117   2.393   0.952   1.692
 1638HOH      O 5118   3.412   1.908   0.773
 1638HOH     H1 5119   3.443   1.906   0.863
 1638HOH     H2 5120   3.491   1.893   0.720
 1639HOH      O 5121   3.567   3.759   1.382
 1639HOH     H1 5122   3.557   3.804   1.298
 1639HOH     H2 5123   3.604   3.826   1.440
 1640HOH      O 5124   3.020   1.910   1.031
 1640HOH     H1 5125   2.993   1.840   0.972
 1640HOH     H2 5126   3.067   1.865   1.101
 1641HOH      O 5127   4.061   0.134   3.206
 1641HOH     H1 5128   4.062   0.163   3.297
 1641HOH     H2 5129   3.969   0.116   3.188
 1642HOH      O 5130   3.272   0.396   3.539
 1642HOH     H1 5131   3.362   0.378   3.512
 1642HOH     H2 5132   3.221   0.392   3.458
 1643HOH      O 5133   2.347   1.335   0.205
 1643HOH     H1 5134   2.350   1.239   0.209
 1643HOH     H2 5135   2.388   1.357   0.121
 1644HOH      O 5136   1.415   0.085   3.255
 1644HOH     H1 5137   1.400  -0.000   3.296
 1644HOH     H2 5138   1.500   0.076   3.212
 1645HOH      O 5139   2.317   1.493   0.454
 1645HOH     H1 5140   2.380   1.564   0.465
 1645HOH     H2 5141   2.348   1.444   0.378
 1646HOH      O 5142   0.061   2.152   1.136
 1646HOH     H1 5143   0.085   2.076   1.083
 1646HOH     H2 5144   0.106   2.138   1.219
 1647HOH      O 5145   2.346   1.702   3.277
 1647HOH     H1 5146   2.395   1.745   3.206
 1647HOH     H2 5147   2.271   1.662   3.233
 1648HOH      O 5148   0.966   2.933   0.652
 1648HOH     H1 5149   0.907   2.918   0.578
 1648HOH     H2 5150   0.910   2.929   0.729
 1649HOH      O 5151   1.210   3.425   1.602
 1649HOH     H1 5152   1.238   3.402   1.690
 1649HOH     H2 5153   1.159   3.506   1.614
 1650HOH      O 5154   2.237   2.015   0.802
 1650HOH     H1 5155   2.225   2.107   0.823
 1650HOH     H2 5156   2.303   1.984   0.865
 1651HOH      O 5157   2.838   3.050   1.678
 1651HOH     H1 5158   2.876   3.114   1.617
 1651HOH     H2 5159   2.750   3.083   1.695
 1652HOH      O 5160   1.186   2.924   2.649
 1652HOH     H1 5161   1.198   2.894   2.739
 1652HOH     H2 5162   1.192   2.845   2.597
 1653HOH      O 5163   0.998   1.913   3.018
 1653HOH     H1 5164   0.956   1.837   3.059
 1653HOH     H2 5165   0.926   1.966   2.986
 1654HOH      O 5166   2.026   0.568   3.052
 1654HOH     H1 5167   2.086   0.514   3.000
 1654HOH     H2 5168   2.081   0.638   3.088
 1655HOH      O 5169   2.878   0.815   2.611
 1655HOH     H1 5170   2.857   0.725   2.587
 1655HOH     H2 5171   2.910   0.809   2.701
 1656HOH      O 5172   3.230   3.972   3.834
 1656HOH     H1 5173   3.221   3.882   3.863
 1656HOH     H2 5174   3.246   4.022   3.914
 1657HOH      O 5175   3.456   3.704   2.102
 1657HOH     H1 5176   3.446   3.648   2.179
 1657HOH     H2 5177   3.388   3.675   2.042
 1658HOH      O 5178   2.115   2.623   0.232
 1658HOH     H1 5179   2.063   2.702   0.221
 1658HOH     H2 5180   2.143   2.600   0.144
 1659HOH      O 5181   1.929   1.784   3.940
 1659HOH     H1 5182   1.943   1.870   3.978
 1659HOH     H2 5183   1.892   1.731   4.011
 1660HOH      O 5184   3.885   2.190   2.066
 1660HOH     H1 5185   3.948   2.166   2.134
 1660HOH     H2 5186   3.830   2.113   2.056
 1661HOH      O 5187   1.877   1.998   1.497
 1661HOH     H1 5188   1.827   1.969   1.574
 1661HOH     H2 5189   1.942   2.058   1.533
 1662HOH      O 5190   1.397   0.349   0.183
 1662HOH     H1 5191   1.418   0.433   0.142
 1662HOH     H2 5192   1.435   0.355   0.271
 1663HOH      O 5193   0.156   0.849   1.342
 1663HOH     H1 5194   0.190   0.769   1.381
 1663HOH     H2 5195   0.233   0.893   1.307
 1664HOH      O 5196   3.651   3.468   1.710
 1664HOH     H1 5197   3.586   3.453   1.779
 1664HOH     H2 5198   3.702   3.387   1.706
 1665HOH      O 5199   0.048   3.876   1.784
 1665HOH     H1 5200   0.074   3.811   1.718
 1665HOH     H2 5201  -0.002   3.826   1.848
 1666HOH      O 5202   0.144   3.689   1.606
 1666HOH     H1 5203   0.165   3.645   1.688
 1666HOH     H2 5204   0.228   3.722   1.573
 1667HOH      O 5205   0.398   0.894   3.110
 1667HOH     H1 5206   0.409   0.850   3.026
 1667HOH     H2 5207   0.405   0.824   3.175
 1668HOH      O 5208   1.161   3.501   3.049
 1668HOH     H1 5209   1.177   3.568   2.983
 1668HOH     H2 5210   1.230   3.435   3.033
 1669HOH      O 5211   1.207   2.918   0.173
 1669HOH     H1 5212   1.115   2.903   0.194
 1669HOH     H2 5213   1.236   2.983   0.238
 1670HOH      O 5214   0.646   3.233   1.382
 1670HOH     H1 5215   0.631   3.306   1.441
 1670HOH     H2 5216   0.656   3.157   1.439
 1671HOH      O 5217   3.936   0.889   1.281
 1671HOH     H1 5218   4.026   0.879   1.311
 1671HOH     H2 5219   3.911   0.803   1.247
 1672HOH      O 5220   3.707   2.285   1.710
 1672HOH     H1 5221   3.663   2.244   1.784
 1672HOH     H2 5222   3.799   2.290   1.737
 1673HOH      O 5223   0.815   1.802   0.315
 1673HOH     H1 5224   0.797   1.727   0.372
 1673HOH     H2 5225   0.808   1.766   0.226
 1674HOH      O 5226   2.043   3.709   0.125
 1674HOH     H1 5227   1.960   3.665   0.138
 1674HOH     H2 5228   2.084   3.664   0.051
 1675HOH      O 5229   0.155   0.561   3.710
 1675HOH     H1 5230   0.219   0.632   3.714
 1675HOH     H2 5231   0.088   0.593   3.651
 1676HOH      O 5232   1.596   3.616   0.361
 1676HOH     H1 5233   1.571   3.662   0.441
 1676HOH     H2 5234   1.543   3.536   0.361
 1677HOH      O 5235   3.482   2.527   0.834
 1677HOH     H1 5236   3.425   2.500   0.762
 1677HOH     H2 5237   3.517   2.612   0.806
 1678HOH      O 5238   1.425   3.278   0.732
 1678HOH     H1 5239   1.372   3.257   0.809
 1678HOH     H2 5240   1.442   3.372   0.739
 1679HOH      O 5241   0.860   4.001   2.808
 1679HOH     H1 5242   0.858   4.076   2.867
 1679HOH     H2 5243   0.949   4.000   2.774
 1680HOH      O 5244   1.887   0.701  -0.001
 1680HOH     H1 5245   1.860   0.618  -0.041
 1680HOH     H2 5246   1.847   0.700   0.086
 1681HOH      O 5247   1.203   3.820   3.874
 1681HOH     H1 5248   1.291   3.821   3.836
 1681HOH     H2 5249   1.210   3.760   3.948
 1682HOH      O 5250   3.406   3.267   3.853
 1682HOH     H1 5251   3.343   3.325   3.812
 1682HOH     H2 5252   3.368   3.180   3.846
 1683HOH      O 5253   3.425   3.635   3.865
 1683HOH     H1 5254   3.429   3.540   3.867
 1683HOH     H2 5255   3.427   3.661   3.957
 1684HOH      O 5256   2.669   3.598   3.291
 1684HOH     H1 5257   2.759   3.594   3.260
 1684HOH     H2 5258   2.676   3.636   3.378
 1685HOH      O 5259   3.017   0.953   1.391
 1685HOH     H1 5260   3.001   0.897   1.467
 1685HOH     H2 5261   3.109   0.940   1.371
 1686HOH      O 5262   3.807   0.305   2.666
 1686HOH     H1 5263   3.833   0.311   2.758
 1686HOH     H2 5264   3.722   0.260   2.669
 1687HOH      O 5265   3.022   2.434   3.855
 1687HOH     H1 5266   2.951   2.397   3.802
 1687HOH     H2 5267   3.068   2.358   3.890
 1688HOH      O 5268   3.109   2.784   2.687
 1688HOH     H1 5269   3.025   2.822   2.712
 1688HOH     H2 5270   3.144   2.748   2.769
 1689HOH      O 5271   1.652   3.251   2.937
 1689HOH     H1 5272   1.627   3.175   2.885
 1689HOH     H2 5273   1.671   3.216   3.024
 1690HOH      O 5274   3.856   1.053   3.275
 1690HOH     H1 5275   3.836   1.131   3.326
 1690HOH     H2 5276   3.823   0.981   3.328
 1691HOH      O 5277   1.943   0.434   1.564
 1691HOH     H1 5278   1.919   0.505   1.505
 1691HOH     H2 5279   1.949   0.357   1.508
 1692HOH      O 5280   2.993   2.237   2.509
 1692HOH     H1 5281   2.920   2.178   2.490
 1692HOH     H2 5282   2.954   2.308   2.559
 1693HOH      O 5283   2.306   0.574   2.314
 1693HOH     H1 5284   2.369   0.592   2.384
 1693HOH     H2 5285   2.360   0.549   2.239
 1694HOH      O 5286   2.578   2.936   0.525
 1694HOH     H1 5287   2.616   2.849   0.535
 1694HOH     H2 5288   2.636   2.981   0.463
 1695HOH      O 5289   3.369   1.252   1.509
 1695HOH     H1 5290   3.358   1.242   1.603
 1695HOH     H2 5291   3.453   1.210   1.490
 1696HOH      O 5292   3.607   2.640   0.322
 1696HOH     H1 5293   3.527   2.613   0.368
 1696HOH     H2 5294   3.657   2.559   0.311
 1697HOH      O 5295   2.161   3.673   1.745
 1697HOH     H1 5296   2.136   3.752   1.793
 1697HOH     H2 5297   2.077   3.633   1.721
 1698HOH      O 5298   3.216   0.757   1.188
 1698HOH     H1 5299   3.236   0.799   1.271
 1698HOH     H2 5300   3.301   0.738   1.149
 1699HOH      O 5301   1.514   2.049   1.789
 1699HOH     H1 5302   1.522   2.142   1.811
 1699HOH     H2 5303   1.495   2.048   1.695
 1700HOH      O 5304   3.146   0.507   0.839
 1700HOH     H1 5305   3.158   0.475   0.750
 1700HOH     H2 5306   3.132   0.429   0.892
 1701HOH      O 5307   1.805   2.554   3.562
 1701HOH     H1 5308   1.770   2.599   3.639
 1701HOH     H2 5309   1.774   2.463   3.571
 1702HOH      O 5310   0.310   0.180   0.039
 1702HOH     H1 5311   0.340   0.124   0.110
 1702HOH     H2 5312   0.216   0.189   0.054
 1703HOH      O 5313   0.697   3.994   1.609
 1703HOH     H1 5314   0.728   3.939   1.537
 1703HOH     H2 5315   0.661   4.072   1.567
 1704HOH      O 5316   2.293   0.817   0.173
 1704HOH     H1 5317   2.345   0.763   0.114
 1704HOH     H2 5318   2.303   0.776   0.259
 1705HOH      O 5319   0.657   2.065   3.169
 1705HOH     H1 5320   0.576   2.084   3.122
 1705HOH     H2 5321   0.660   1.969   3.174
 1706HOH      O 5322   3.987   3.797   0.701
 1706HOH     H1 5323   3.925   3.726   0.720
 1706HOH     H2 5324   4.053   3.790   0.769
 1707HOH      O 5325   3.450   0.694   3.526
 1707HOH     H1 5326   3.517   0.646   3.478
 1707HOH     H2 5327   3.499   0.759   3.576
 1708HOH      O 5328   0.023   0.469   2.232
 1708HOH     H1 5329  -0.055   0.452   2.285
 1708HOH     H2 5330   0.092   0.418   2.274
 1709HOH      O 5331   2.913   0.655   3.069
 1709HOH     H1 5332   2.825   0.692   3.080
 1709HOH     H2 5333   2.964   0.691   3.141
 1710HOH      O 5334   3.666   2.285   0.695
 1710HOH     H1 5335   3.710   2.368   0.710
 1710HOH     H2 5336   3.736   2.220   0.699
 1711HOH      O 5337   1.923   0.809   1.568
 1711HOH     H1 5338   1.875   0.746   1.622
 1711HOH     H2 5339   1.888   0.894   1.594
 1712HOH      O 5340   3.005   3.994   0.942
 1712HOH     H1 5341   2.978   3.925   1.002
 1712HOH     H2 5342   2.923   4.031   0.910
 1713HOH      O 5343   1.056   0.998   2.971
 1713HOH     H1 5344   0.994   0.959   3.032
 1713HOH     H2 5345   1.000   1.042   2.906
 1714HOH      O 5346   2.016   3.397   0.310
 1714HOH     H1 5347   1.984   3.338   0.378
 1714HOH     H2 5348   1.979   3.482   0.333
 1715HOH      O 5349   2.034   1.431   1.286
 1715HOH     H1 5350   2.003   1.502   1.342
 1715HOH     H2 5351   2.065   1.365   1.347
 1716HOH      O 5352   0.451   0.872   2.671
 1716HOH     H1 5353   0.547   0.864   2.676
 1716HOH     H2 5354   0.433   0.960   2.704
 1717HOH      O 5355   3.600   0.162   2.760
 1717HOH     H1 5356   3.535   0.093   2.773
 1717HOH     H2 5357   3.636   0.179   2.847
 1718HOH      O 5358   3.319   0.954   1.384
 1718HOH     H1 5359   3.363   1.040   1.382
 1718HOH     H2 5360   3.359   0.910   1.459
 1719HOH      O 5361   1.805   0.673   0.927
 1719HOH     H1 5362   1.898   0.658   0.945
 1719HOH     H2 5363   1.764   0.588   0.940
 1720HOH      O 5364   2.730   3.649   0.950
 1720HOH     H1 5365   2.643   3.622   0.978
 1720HOH     H2 5366   2.717   3.690   0.864
 1721HOH      O 5367   3.628   0.775   3.011
 1721HOH     H1 5368   3.533   0.782   3.022
 1721HOH     H2 5369   3.649   0.835   2.940
 1722HOH      O 5370   1.795   3.982   1.993
 1722HOH     H1 5371   1.769   4.034   1.917
 1722HOH     H2 5372   1.768   4.035   2.068
 1723HOH      O 5373   1.956   2.987   0.965
 1723HOH     H1 5374   1.958   2.902   0.921
 1723HOH     H2 5375   1.895   3.039   0.912
 1724HOH      O 5376   3.484   3.365   1.946
 1724HOH     H1 5377   3.536   3.375   2.026
 1724HOH     H2 5378   3.397   3.398   1.970
 1725HOH      O 5379   2.902   1.891   2.592
 1725HOH     H1 5380   2.813   1.886   2.555
 1725HOH     H2 5381   2.959   1.889   2.515
 1726HOH      O 5382   3.625   0.374   4.055
 1726HOH     H1 5383   3.710   0.415   4.040
 1726HOH     H2 5384   3.567   0.416   3.992
 1727HOH      O 5385   3.247   1.393   4.028
 1727HOH     H1 5386   3.289   1.336   3.963
 1727HOH     H2 5387   3.159   1.357   4.036
 1728HOH      O 5388   2.419   0.225   3.638
 1728HOH     H1 5389   2.330   0.258   3.641
 1728HOH     H2 5390   2.412   0.139   3.597
 1729HOH      O 5391   2.235   1.877   0.306
 1729HOH     H1 5392   2.166   1.885   0.372
 1729HOH     H2 5393   2.211   1.800   0.255
 1730HOH      O 5394   1.743   4.022   3.838
 1730HOH     H1 5395   1.714   4.082   3.906
 1730HOH     H2 5396   1.670   4.016   3.777
 1731HOH      O 5397   3.478   2.609   3.054
 1731HOH     H1 5398   3.465   2.604   3.149
 1731HOH     H2 5399   3.482   2.518   3.025
 1732HOH      O 5400   0.689   1.838   2.857
 1732HOH     H1 5401   0.641   1.781   2.918
 1732HOH     H2 5402   0.713   1.914   2.909
 1733HOH      O 5403   0.159   1.466   2.383
 1733HOH     H1 5404   0.200   1.410   2.317
 1733HOH     H2 5405   0.074   1.425   2.400
 1734HOH      O 5406   4.053   0.948   0.327
 1734HOH     H1 5407   4.088   0.902   0.251
 1734HOH     H2 5408   3.959   0.929   0.324
 1735HOH      O 5409   1.813   1.120   2.320
 1735HOH     H1 5410   1.738   1.067   2.346
 1735HOH     H2 5411   1.821   1.105   2.226
 1736HOH      O 5412   1.140   0.229   2.719
 1736HOH     H1 5413   1.083   0.285   2.772
 1736HOH     H2 5414   1.215   0.210   2.776
 1737HOH      O 5415   2.750   0.309   2.001
 1737HOH     H1 5416   2.731   0.299   2.095
 1737HOH     H2 5417   2.806   0.235   1.980
 1738HOH      O 5418   0.590   1.282   0.889
 1738HOH     H1 5419   0.680   1.251   0.902
 1738HOH     H2 5420   0.537   1.228   0.947
 1739HOH      O 5421   2.173   1.803   2.555
 1739HOH     H1 5422   2.177   1.807   2.650
 1739HOH     H2 5423   2.101   1.861   2.531
 1740HOH      O 5424  -0.001   2.781   2.693
 1740HOH     H1 5425   0.071   2.755   2.636
 1740HOH     H2 5426   0.003   2.877   2.693
 1741HOH      O 5427   3.804   1.707   1.254
 1741HOH     H1 5428   3.822   1.779   1.315
 1741HOH     H2 5429   3.727   1.663   1.291
 1742HOH      O 5430   0.114   1.288   0.600
 1742HOH     H1 5431   0.137   1.212   0.546
 1742HOH     H2 5432   0.198   1.332   0.615
 1743HOH      O 5433   2.753   1.515   2.043
 1743HOH     H1 5434   2.785   1.430   2.074
 1743HOH     H2 5435   2.660   1.502   2.029
 1744HOH      O 5436   0.370   1.152   3.224
 1744HOH     H1 5437   0.299   1.144   3.288
 1744HOH     H2 5438   0.357   1.079   3.165
 1745HOH      O 5439   3.996   2.593   1.481
 1745HOH     H1 5440   4.016   2.569   1.390
 1745HOH     H2 5441   3.905   2.566   1.494
 1746HOH      O 5442   1.987   1.705   1.685
 1746HOH     H1 5443   1.937   1.787   1.691
 1746HOH     H2 5444   2.065   1.720   1.738
 1747HOH      O 5445   0.572   0.343   1.256
 1747HOH     H1 5446   0.507   0.386   1.311
 1747HOH     H2 5447   0.639   0.410   1.241
 1748HOH      O 5448   3.083   1.801   1.504
 1748HOH     H1 5449   3.071   1.742   1.578
 1748HOH     H2 5450   3.169   1.839   1.517
 1749HOH      O 5451   1.336   3.281   3.293
 1749HOH     H1 5452   1.341   3.301   3.199
 1749HOH     H2 5453   1.339   3.185   3.296
 1750HOH      O 5454   1.266   0.464   1.928
 1750HOH     H1 5455   1.361   0.464   1.940
 1750HOH     H2 5456   1.254   0.492   1.837
 1751HOH      O 5457   3.978   0.561   1.606
 1751HOH     H1 5458   4.073   0.575   1.607
 1751HOH     H2 5459   3.956   0.551   1.513
 1752HOH      O 5460   0.928   0.698   4.018
 1752HOH     H1 5461   0.979   0.638   3.963
 1752HOH     H2 5462   0.972   0.695   4.103
 1753HOH      O 5463   1.196   1.524   2.807
 1753HOH     H1 5464   1.129   1.542   2.741
 1753HOH     H2 5465   1.201   1.605   2.858
 1754HOH      O 5466   3.578   1.403   3.699
 1754HOH     H1 5467   3.651   1.441   3.747
 1754HOH     H2 5468   3.532   1.479   3.662
 1755HOH      O 5469   1.767   3.140   1.252
 1755HOH     H1 5470   1.672   3.136   1.238
 1755HOH     H2 5471   1.796   3.050   1.239
 1756HOH      O 5472   0.452   3.764   1.953
 1756HOH     H1 5473   0.542   3.777   1.982
 1756HOH     H2 5474   0.434   3.838   1.895
 1757HOH      O 5475   1.207   3.721   2.489
 1757HOH     H1 5476   1.267   3.786   2.453
 1757HOH     H2 5477   1.245   3.637   2.464
 1758HOH      O 5478   0.114   0.394   1.110
 1758HOH     H1 5479   0.180   0.461   1.123
 1758HOH     H2 5480   0.143   0.346   1.032
 1759HOH      O 5481   3.955   1.332   2.355
 1759HOH     H1 5482   3.869   1.318   2.396
 1759HOH     H2 5483   3.936   1.365   2.268
 1760HOH      O 5484   2.470   3.853   1.991
 1760HOH     H1 5485   2.390   3.887   2.031
 1760HOH     H2 5486   2.444   3.769   1.953
 1761HOH      O 5487   3.849   3.785   0.253
 1761HOH     H1 5488   3.915   3.716   0.244
 1761HOH     H2 5489   3.892   3.852   0.307
 1762HOH      O 5490   2.390   0.109   2.679
 1762HOH     H1 5491   2.329   0.153   2.619
 1762HOH     H2 5492   2.424   0.035   2.629
 1763HOH      O 5493   3.096   1.044   2.220
 1763HOH     H1 5494   3.107   1.051   2.315
 1763HOH     H2 5495   3.018   1.096   2.201
 1764HOH      O 5496   0.444   2.110   1.598
 1764HOH     H1 5497   0.404   2.064   1.672
 1764HOH     H2 5498   0.455   2.043   1.531
 1765HOH      O 5499   3.395   2.434   3.835
 1765HOH     H1 5500   3.375   2.490   3.910
 1765HOH     H2 5501   3.340   2.468   3.765
 1766HOH      O 5502   0.124   3.390   3.490
 1766HOH     H1 5503   0.039   3.389   3.533
 1766HOH     H2 5504   0.109   3.438   3.408
 1767HOH      O 5505   0.478   3.012   2.566
 1767HOH     H1 5506   0.524   3.096   2.567
 1767HOH     H2 5507   0.482   2.982   2.657
 1768HOH      O 5508   2.690   0.169   0.113
 1768HOH     H1 5509   2.606   0.136   0.143
 1768HOH     H2 5510   2.683   0.264   0.121
 1769HOH      O 5511   2.536   1.522   1.522
 1769HOH     H1 5512   2.612   1.557   1.475
 1769HOH     H2 5513   2.572   1.481   1.601
 1770HOH      O 5514   3.650   3.837   0.543
 1770HOH     H1 5515   3.734   3.879   0.561
 1770HOH     H2 5516   3.672   3.758   0.494
 1771HOH      O 5517   3.670   3.312   2.466
 1771HOH     H1 5518   3.640   3.237   2.415
 1771HOH     H2 5519   3.690   3.275   2.552
 1772HOH      O 5520   3.019   0.565   1.435
 1772HOH     H1 5521   3.091   0.611   1.478
 1772HOH     H2 5522   3.023   0.477   1.470
 1773HOH      O 5523   0.696   0.043   0.168
 1773HOH     H1 5524   0.671   0.105   0.237
 1773HOH     H2 5525   0.791   0.053   0.160
 1774HOH      O 5526   0.337   3.628   0.301
 1774HOH     H1 5527   0.375   3.540   0.306
 1774HOH     H2 5528   0.411   3.685   0.280
 1775HOH      O 5529   3.460   0.888   0.024
 1775HOH     H1 5530   3.543   0.864  -0.018
 1775HOH     H2 5531   3.481   0.893   0.117
 1776HOH      O 5532   3.220   0.614   1.581
 1776HOH     H1 5533   3.282   0.682   1.606
 1776HOH     H2 5534   3.272   0.534   1.577
 1777HOH      O 5535   0.816   0.364   3.412
 1777HOH     H1 5536   0.876   0.388   3.342
 1777HOH     H2 5537   0.872   0.328   3.481
 1778HOH      O 5538   2.425   0.383   2.719
 1778HOH     H1 5539   2.408   0.290   2.737
 1778HOH     H2 5540   2.496   0.382   2.655
 1779HOH      O 5541   2.674   0.988   3.804
 1779HOH     H1 5542   2.738   0.920   3.782
 1779HOH     H2 5543   2.594   0.940   3.825
 1780HOH      O 5544   0.591   0.064   2.072
 1780HOH     H1 5545   0.547   0.063   2.156
 1780HOH     H2 5546   0.597  -0.028   2.047
 1781HOH      O 5547   0.444   3.207   3.649
 1781HOH     H1 5548   0.532   3.230   3.620
 1781HOH     H2 5549   0.396   3.289   3.648
 1782HOH      O 5550   2.880   1.325   3.148
 1782HOH     H1 5551   2.829   1.405   3.160
 1782HOH     H2 5552   2.820   1.255   3.174
 1783HOH      O 5553   3.726   3.842   3.618
 1783HOH     H1 5554   3.637   3.863   3.590
 1783HOH     H2 5555   3.727   3.860   3.712
 1784HOH      O 5556   2.220   0.855   2.471
 1784HOH     H1 5557   2.198   0.789   2.406
 1784HOH     H2 5558   2.152   0.922   2.462
 1785HOH      O 5559   0.336   1.812   0.594
 1785HOH     H1 5560   0.382   1.886   0.553
 1785HOH     H2 5561   0.291   1.769   0.522
 1786HOH      O 5562   1.275   1.668   0.697
 1786HOH     H1 5563   1.367   1.652   0.676
 1786HOH     H2 5564   1.264   1.762   0.688
 1787HOH      O 5565   2.905   2.702   0.493
 1787HOH     H1 5566   2.810   2.699   0.496
 1787HOH     H2 5567   2.930   2.627   0.439
 1788HOH      O 5568   1.139   0.349   0.632
 1788HOH     H1 5569   1.123   0.426   0.688
 1788HOH     H2 5570   1.232   0.331   0.643
 1789HOH      O 5571   0.923   2.965   0.232
 1789HOH     H1 5572   0.895   2.913   0.156
 1789HOH     H2 5573   0.853   3.030   0.242
 1790HOH      O 5574   0.730   3.155   0.261
 1790HOH     H1 5575   0.798   3.220   0.274
 1790HOH     H2 5576   0.671   3.166   0.335
 1791HOH      O 5577   1.468   2.817   3.698
 1791HOH     H1 5578   1.408   2.764   3.646
 1791HOH     H2 5579   1.442   2.803   3.788
 1792HOH      O 5580   3.844   1.036   1.884
 1792HOH     H1 5581   3.872   0.944   1.882
 1792HOH     H2 5582   3.838   1.057   1.977
 1793HOH      O 5583   3.813   2.238   1.104
 1793HOH     H1 5584   3.816   2.326   1.066
 1793HOH     H2 5585   3.902   2.205   1.094
 1794HOH      O 5586   2.844   0.450   2.826
 1794HOH     H1 5587   2.863   0.530   2.875
 1794HOH     H2 5588   2.838   0.382   2.894
 1795HOH      O 5589   1.912   3.199   3.733
 1795HOH     H1 5590   1.951   3.266   3.677
 1795HOH     H2 5591   1.981   3.178   3.796
 1796HOH      O 5592   3.040   1.423   2.946
 1796HOH     H1 5593   2.973   1.392   3.008
 1796HOH     H2 5594   3.019   1.377   2.864
 1797HOH      O 5595   2.636   1.324   2.317
 1797HOH     H1 5596   2.639   1.416   2.343
 1797HOH     H2 5597   2.723   1.306   2.283
 1798HOH      O 5598   2.017   2.110   3.377
 1798HOH     H1 5599   1.995   2.065   3.295
 1798HOH     H2 5600   1.962   2.067   3.443
 1799HOH      O 5601   1.521   1.114   1.647
 1799HOH     H1 5602   1.604   1.161   1.643
 1799HOH     H2 5603   1.457   1.173   1.607
 1800HOH      O 5604   0.701   0.612   3.135
 1800HOH     H1 5605   0.615   0.577   3.156
 1800HOH     H2 5606   0.739   0.635   3.220
 1801HOH      O 5607   0.981   2.596   0.623
 1801HOH     H1 5608   1.046   2.591   0.553
 1801HOH     H2 5609   0.928   2.673   0.602
 1802HOH      O 5610   3.617   2.999   0.701
 1802HOH     H1 5611   3.559   2.948   0.646
 1802HOH     H2 5612   3.567   3.014   0.781
 1803HOH      O 5613   3.341   0.125   0.775
 1803HOH     H1 5614   3.411   0.061   0.782
 1803HOH     H2 5615   3.352   0.181   0.852
 1804HOH      O 5616   2.367   2.293   1.706
 1804HOH     H1 5617   2.343   2.339   1.786
 1804HOH     H2 5618   2.322   2.209   1.712
 1805HOH      O 5619   0.102   0.854   2.244
 1805HOH     H1 5620   0.162   0.797   2.292
 1805HOH     H2 5621   0.121   0.942   2.277
 1806HOH      O 5622   3.769   3.748   0.930
 1806HOH     H1 5623   3.776   3.750   1.026
 1806HOH     H2 5624   3.771   3.841   0.905
 1807HOH      O 5625   1.283   1.373   0.360
 1807HOH     H1 5626   1.299   1.357   0.453
 1807HOH     H2 5627   1.347   1.440   0.335
 1808HOH      O 5628   2.407   1.846   0.641
 1808HOH     H1 5629   2.492   1.861   0.682
 1808HOH     H2 5630   2.346   1.900   0.691
 1809HOH      O 5631   1.004   3.129   2.747
 1809HOH     H1 5632   1.083   3.148   2.697
 1809HOH     H2 5633   1.018   3.041   2.782
 1810HOH      O 5634   1.154   1.638   1.038
 1810HOH     H1 5635   1.170   1.676   1.124
 1810HOH     H2 5636   1.223   1.674   0.982
 1811HOH      O 5637   1.778   3.661   2.947
 1811HOH     H1 5638   1.687   3.691   2.956
 1811HOH     H2 5639   1.780   3.617   2.862
 1812HOH      O 5640   2.693   0.477   0.961
 1812HOH     H1 5641   2.662   0.387   0.969
 1812HOH     H2 5642   2.780   0.476   1.000
 1813HOH      O 5643   3.794   1.735   4.005
 1813HOH     H1 5644   3.873   1.774   3.967
 1813HOH     H2 5645   3.814   1.724   4.098
 1814HOH      O 5646   2.314   3.330   3.633
 1814HOH     H1 5647   2.279   3.302   3.718
 1814HOH     H2 5648   2.244   3.385   3.596
 1815HOH      O 5649   0.481   1.567   3.088
 1815HOH     H1 5650   0.521   1.481   3.084
 1815HOH     H2 5651   0.434   1.576   3.005
 1816HOH      O 5652   2.716   2.674   0.972
 1816HOH     H1 5653   2.803   2.714   0.981
 1816HOH     H2 5654   2.687   2.660   1.063
 1817HOH      O 5655   1.966   3.965   3.957
 1817HOH     H1 5656   1.940   3.890   4.011
 1817HOH     H2 5657   1.887   3.987   3.907
 1818HOH      O 5658   1.282   2.281   3.963
 1818HOH     H1 5659   1.371   2.315   3.965
 1818HOH     H2 5660   1.239   2.329   3.892
 1819HOH      O 5661   2.481   0.781   3.306
 1819HOH     H1 5662   2.454   0.859   3.257
 1819HOH     H2 5663   2.483   0.810   3.398
 1820HOH      O 5664   3.333   1.916   0.462
 1820HOH     H1 5665   3.321   1.992   0.520
 1820HOH     H2 5666   3.299   1.842   0.512
 1821HOH      O 5667   0.477   0.477   0.454
 1821HOH     H1 5668   0.475   0.562   0.410
 1821HOH     H2 5669   0.388   0.443   0.444
 1822HOH      O 5670   2.895   2.563   0.037
 1822HOH     H1 5671   2.975   2.525   0.074
 1822HOH     H2 5672   2.912   2.566  -0.058
 1823HOH      O 5673   1.792   0.442   3.904
 1823HOH     H1 5674   1.840   0.381   3.848
 1823HOH     H2 5675   1.706   0.401   3.917
 1824HOH      O 5676   1.196   2.941   0.928
 1824HOH     H1 5677   1.187   2.845   0.924
 1824HOH     H2 5678   1.132   2.968   0.994
 1825HOH      O 5679   1.072   1.134   3.389
 1825HOH     H1 5680   1.090   1.159   3.479
 1825HOH     H2 5681   1.076   1.216   3.339
 1826HOH      O 5682   1.937   4.062   1.138
 1826HOH     H1 5683   1.931   4.017   1.054
 1826HOH     H2 5684   1.875   4.016   1.195
 1827HOH      O 5685   3.781   1.078   3.802
 1827HOH     H1 5686   3.763   1.080   3.896
 1827HOH     H2 5687   3.866   1.035   3.795
 1828HOH      O 5688   1.909   3.617   1.667
 1828HOH     H1 5689   1.868   3.670   1.736
 1828HOH     H2 5690   1.845   3.548   1.648
 1829HOH      O 5691   0.703   1.448   2.688
 1829HOH     H1 5692   0.739   1.402   2.764
 1829HOH     H2 5693   0.615   1.412   2.678
 1830HOH      O 5694   0.108   3.937   2.541
 1830HOH     H1 5695   0.140   3.874   2.477
 1830HOH     H2 5696   0.188   3.973   2.580
 1831HOH      O 5697   0.982   2.910   3.787
 1831HOH     H1 5698   1.052   2.970   3.814
 1831HOH     H2 5699   1.000   2.894   3.694
 1832HOH      O 5700   2.862   1.552   3.980
 1832HOH     H1 5701   2.779   1.525   3.940
 1832HOH     H2 5702   2.848   1.643   4.005
 1833HOH      O 5703   1.243   2.133   2.803
 1833HOH     H1 5704   1.151   2.116   2.787
 1833HOH     H2 5705   1.278   2.049   2.834
 1834HOH      O 5706   0.923   3.345   0.347
 1834HOH     H1 5707   0.934   3.429   0.304
 1834HOH     H2 5708   1.003   3.297   0.326
 1835HOH      O 5709   0.161   0.033   3.801
 1835HOH     H1 5710   0.240   0.078   3.771
 1835HOH     H2 5711   0.194  -0.040   3.853
 1836HOH      O 5712   3.916   1.694   3.365
 1836HOH     H1 5713   3.894   1.666   3.454
 1836HOH     H2 5714   3.845   1.753   3.340
 1837HOH      O 5715   2.657   1.252   3.776
 1837HOH     H1 5716   2.710   1.287   3.704
 1837HOH     H2 5717   2.657   1.157   3.761
 1838HOH      O 5718   0.135   1.154   2.291
 1838HOH     H1 5719   0.086   1.213   2.348
 1838HOH     H2 5720   0.180   1.212   2.229
 1839HOH      O 5721   3.772   2.882   0.378
 1839HOH     H1 5722   3.689   2.930   0.370
 1839HOH     H2 5723   3.748   2.791   0.362
 1840HOH      O 5724   0.271   1.222   0.212
 1840HOH     H1 5725   0.193   1.217   0.156
 1840HOH     H2 5726   0.254   1.298   0.268
 1841HOH      O 5727   2.487   1.525   2.600
 1841HOH     H1 5728   2.561   1.561   2.552
 1841HOH     H2 5729   2.507   1.432   2.608
 1842HOH      O 5730   3.272   3.224   1.565
 1842HOH     H1 5731   3.366   3.234   1.584
 1842HOH     H2 5732   3.264   3.135   1.531
 1843HOH      O 5733   3.982   3.134   1.668
 1843HOH     H1 5734   3.962   3.192   1.594
 1843HOH     H2 5735   3.966   3.046   1.635
 1844HOH      O 5736   2.466   3.325   3.395
 1844HOH     H1 5737   2.386   3.365   3.360
 1844HOH     H2 5738   2.435   3.264   3.462
 1845HOH      O 5739   0.557   3.840   1.139
 1845HOH     H1 5740   0.571   3.924   1.181
 1845HOH     H2 5741   0.631   3.786   1.168
 1846HOH      O 5742   3.303   2.438   1.527
 1846HOH     H1 5743   3.245   2.364   1.515
 1846HOH     H2 5744   3.327   2.436   1.620
 1847HOH      O 5745   3.928   1.609   3.615
 1847HOH     H1 5746   3.991   1.678   3.633
 1847HOH     H2 5747   3.866   1.613   3.688
 1848HOH      O 5748   3.474   1.668   3.582
 1848HOH     H1 5749   3.469   1.702   3.493
 1848HOH     H2 5750   3.520   1.736   3.631
 1849HOH      O 5751   0.867   0.902   1.310
 1849HOH     H1 5752   0.962   0.910   1.301
 1849HOH     H2 5753   0.853   0.884   1.403
 1850HOH      O 5754   0.678   3.006   1.556
 1850HOH     H1 5755   0.707   2.915   1.555
 1850HOH     H2 5756   0.656   3.023   1.647
 1851HOH      O 5757   1.784   0.257   0.236
 1851HOH     H1 5758   1.720   0.244   0.306
 1851HOH     H2 5759   1.737   0.232   0.156
 1852HOH      O 5760   2.007   2.431   3.706
 1852HOH     H1 5761   1.942   2.363   3.690
 1852HOH     H2 5762   1.967   2.511   3.672
 1853HOH      O 5763   2.291   0.593   1.785
 1853HOH     H1 5764   2.335   0.550   1.712
 1853HOH     H2 5765   2.355   0.655   1.818
 1854HOH      O 5766   1.047   1.718   2.237
 1854HOH     H1 5767   1.022   1.758   2.320
 1854HOH     H2 5768   0.965   1.686   2.199
 1855HOH      O 5769   1.999   3.408   3.541
 1855HOH     H1 5770   1.941   3.461   3.486
 1855HOH     H2 5771   2.083   3.408   3.494
 1856HOH      O 5772   3.707   2.872   3.211
 1856HOH     H1 5773   3.742   2.882   3.122
 1856HOH     H2 5774   3.651   2.949   3.223
 1857HOH      O 5775   1.107   2.223   0.815
 1857HOH     H1 5776   1.153   2.293   0.861
 1857HOH     H2 5777   1.017   2.254   0.807
 1858HOH      O 5778   2.155   3.790   3.641
 1858HOH     H1 5779   2.134   3.852   3.571
 1858HOH     H2 5780   2.155   3.704   3.598
 1859HOH      O 5781   2.708   2.802   3.937
 1859HOH     H1 5782   2.736   2.808   3.846
 1859HOH     H2 5783   2.714   2.892   3.971
 1860HOH      O 5784   3.646   0.475   0.293
 1860HOH     H1 5785   3.585   0.543   0.263
 1860HOH     H2 5786   3.638   0.405   0.228
 1861HOH      O 5787   3.707   2.247   3.201
 1861HOH     H1 5788   3.770   2.317   3.218
 1861HOH     H2 5789   3.622   2.289   3.210
 1862HOH      O 5790   2.345   2.109   2.889
 1862HOH     H1 5791   2.361   2.199   2.863
 1862HOH     H2 5792   2.276   2.114   2.956
 1863HOH      O 5793   1.199   0.093   1.014
 1863HOH     H1 5794   1.105   0.112   1.006
 1863HOH     H2 5795   1.216   0.095   1.108
 1864HOH      O 5796   3.890   3.222   0.228
 1864HOH     H1 5797   3.868   3.153   0.165
 1864HOH     H2 5798   3.807   3.242   0.271
 1865HOH      O 5799   3.642   2.091   0.040
 1865HOH     H1 5800   3.680   2.097   0.127
 1865HOH     H2 5801   3.718   2.095  -0.019
 1866HOH      O 5802   1.793   0.486   0.643
 1866HOH     H1 5803   1.833   0.442   0.717
 1866HOH     H2 5804   1.728   0.544   0.681
 1867HOH      O 5805   0.713   3.089   1.167
 1867HOH     H1 5806   0.660   3.009   1.163
 1867HOH     H2 5807   0.679   3.137   1.242
 1868HOH      O 5808   0.689   3.180   3.528
 1868HOH     H1 5809   0.620   3.147   3.472
 1868HOH     H2 5810   0.768   3.133   3.500
 1869HOH      O 5811   2.214   0.992   3.856
 1869HOH     H1 5812   2.141   1.008   3.916
 1869HOH     H2 5813   2.171   0.975   3.772
 1870HOH      O 5814   0.621   0.346   2.250
 1870HOH     H1 5815   0.552   0.325   2.187
 1870HOH     H2 5816   0.591   0.426   2.292
 1871HOH      O 5817   1.119   3.302   0.680
 1871HOH     H1 5818   1.173   3.298   0.759
 1871HOH     H2 5819   1.114   3.212   0.650
 1872HOH      O 5820   0.554   1.150   1.448
 1872HOH     H1 5821   0.636   1.145   1.496
 1872HOH     H2 5822   0.488   1.172   1.514
 1873HOH      O 5823   2.334   2.929   3.231
 1873HOH     H1 5824   2.381   2.995   3.180
 1873HOH     H2 5825   2.347   2.848   3.183
 1874HOH      O 5826   3.521   1.230   3.468
 1874HOH     H1 5827   3.552   1.273   3.547
 1874HOH     H2 5828   3.511   1.300   3.404
 1875HOH      O 5829   0.486   0.400   3.373
 1875HOH     H1 5830   0.461   0.488   3.345
 1875HOH     H2 5831   0.434   0.384   3.452
 1876HOH      O 5832   0.075   1.211   1.933
 1876HOH     H1 5833  -0.010   1.248   1.960
 1876HOH     H2 5834   0.139   1.262   1.982
 1877HOH      O 5835   3.842   2.203   2.628
 1877HOH     H1 5836   3.924   2.238   2.591
 1877HOH     H2 5837   3.789   2.182   2.551
 1878HOH      O 5838   0.328   3.439   3.656
 1878HOH     H1 5839   0.315   3.532   3.674
 1878HOH     H2 5840   0.254   3.414   3.600
 1879HOH      O 5841   2.852   1.344   3.605
 1879HOH     H1 5842   2.911   1.279   3.568
 1879HOH     H2 5843   2.908   1.400   3.658
 1880HOH      O 5844   0.311   2.877   3.310
 1880HOH     H1 5845   0.392   2.928   3.306
 1880HOH     H2 5846   0.332   2.804   3.367
 1881HOH      O 5847   0.849   1.634   0.952
 1881HOH     H1 5848   0.932   1.629   0.999
 1881HOH     H2 5849   0.861   1.705   0.889
 1882HOH      O 5850   1.723   2.483   0.786
 1882HOH     H1 5851   1.746   2.409   0.842
 1882HOH     H2 5852   1.637   2.511   0.818
 1883HOH      O 5853   3.126   4.011   0.700
 1883HOH     H1 5854   3.067   4.029   0.772
 1883HOH     H2 5855   3.204   4.063   0.719
 1884HOH      O 5856   1.786   1.210   0.578
 1884HOH     H1 5857   1.787   1.274   0.649
 1884HOH     H2 5858   1.877   1.180   0.571
 1885HOH      O 5859   1.195   1.812   1.261
 1885HOH     H1 5860   1.224   1.863   1.185
 1885HOH     H2 5861   1.164   1.877   1.324
 1886HOH      O 5862   1.857   3.244   1.542
 1886HOH     H1 5863   1.809   3.161   1.545
 1886HOH     H2 5864   1.927   3.229   1.479
 1887HOH      O 5865   1.620   1.389   1.992
 1887HOH     H1 5866   1.710   1.407   1.967
 1887HOH     H2 5867   1.614   1.415   2.084
 1888HOH      O 5868   1.398   1.837   3.816
 1888HOH     H1 5869   1.323   1.884   3.851
 1888HOH     H2 5870   1.441   1.799   3.893
 1889HOH      O 5871   0.850   2.775   1.097
 1889HOH     H1 5872   0.899   2.851   1.128
 1889HOH     H2 5873   0.852   2.784   1.001
 1890HOH      O 5874   2.055   0.928   0.060
 1890HOH     H1 5875   2.011   0.846   0.036
 1890HOH     H2 5876   2.132   0.900   0.110
 1891HOH      O 5877   3.641   3.297   0.955
 1891HOH     H1 5878   3.655   3.376   0.903
 1891HOH     H2 5879   3.657   3.325   1.045
 1892HOH      O 5880   1.822   1.288   2.666
 1892HOH     H1 5881   1.737   1.332   2.659
 1892HOH     H2 5882   1.879   1.337   2.607
 1893HOH      O 5883   2.337   1.834   2.787
 1893HOH     H1 5884   2.408   1.826   2.723
 1893HOH     H2 5885   2.343   1.924   2.819
 1894HOH      O 5886   2.542   1.572   0.094
 1894HOH     H1 5887   2.581   1.528   0.169
 1894HOH     H2 5888   2.550   1.510   0.022
 1895HOH      O 5889   0.351   2.573   1.315
 1895HOH     H1 5890   0.420   2.523   1.271
 1895HOH     H2 5891   0.309   2.623   1.244
 1896HOH      O 5892   3.228   0.590   2.092
 1896HOH     H1 5893   3.209   0.604   1.999
 1896HOH     H2 5894   3.179   0.660   2.137
 1897HOH      O 5895   0.844   0.557   0.841
 1897HOH     H1 5896   0.851   0.643   0.800
 1897HOH     H2 5897   0.757   0.526   0.817
 1898HOH      O 5898   2.240   2.090   2.230
 1898HOH     H1 5899   2.203   2.166   2.186
 1898HOH     H2 5900   2.180   2.073   2.303
 1899HOH      O 5901   2.943   2.937   3.134
 1899HOH     H1 5902   2.993   3.002   3.085
 1899HOH     H2 5903   2.897   2.987   3.201
 1900HOH      O 5904   3.256   1.796   2.082
 1900HOH     H1 5905   3.292   1.834   2.162
 1900HOH     H2 5906   3.176   1.846   2.065
 1901HOH      O 5907   2.495   1.239   2.668
 1901HOH     H1 5908   2.508   1.145   2.675
 1901HOH     H2 5909   2.401   1.252   2.676
 1902HOH      O 5910   3.862   1.451   2.031
 1902HOH     H1 5911   3.819   1.468   1.947
 1902HOH     H2 5912   3.802   1.393   2.077
 1903HOH      O 5913   1.441   3.185   2.336
 1903HOH     H1 5914   1.419   3.276   2.313
 1903HOH     H2 5915   1.434   3.137   2.254
 1904HOH      O 5916   3.158   2.596   1.385
 1904HOH     H1 5917   3.172   2.549   1.303
 1904HOH     H2 5918   3.236   2.575   1.438
 1905HOH      O 5919   0.620   3.720   3.894
 1905HOH     H1 5920   0.601   3.632   3.926
 1905HOH     H2 5921   0.710   3.737   3.920
 1906HOH      O 5922   0.904   1.661   3.758
 1906HOH     H1 5923   0.826   1.607   3.758
 1906HOH     H2 5924   0.977   1.599   3.763
 1907HOH      O 5925   4.027   3.154   3.416
 1907HOH     H1 5926   3.950   3.210   3.425
 1907HOH     H2 5927   4.101   3.210   3.438
 1908HOH      O 5928   3.338   0.825   3.319
 1908HOH     H1 5929   3.368   0.776   3.395
 1908HOH     H2 5930   3.375   0.778   3.244
 1909HOH      O 5931   3.816   2.977   2.554
 1909HOH     H1 5932   3.755   3.001   2.485
 1909HOH     H2 5933   3.822   3.054   2.610
 1910HOH      O 5934   2.540   0.664   2.476
 1910HOH     H1 5935   2.526   0.673   2.570
 1910HOH     H2 5936   2.581   0.578   2.466
 1911HOH      O 5937   0.286   1.581   2.873
 1911HOH     H1 5938   0.226   1.508   2.884
 1911HOH     H2 5939   0.304   1.584   2.779
 1912HOH      O 5940   3.401   2.067   2.776
 1912HOH     H1 5941   3.317   2.104   2.748
 1912HOH     H2 5942   3.464   2.137   2.757
 1913HOH      O 5943   0.829   0.692   3.356
 1913HOH     H1 5944   0.924   0.682   3.352
 1913HOH     H2 5945   0.804   0.651   3.439
 1914HOH      O 5946   2.717   2.070   2.749
 1914HOH     H1 5947   2.714   1.987   2.701
 1914HOH     H2 5948   2.655   2.127   2.702
 1915HOH      O 5949   3.249   2.742   2.939
 1915HOH     H1 5950   3.328   2.696   2.968
 1915HOH     H2 5951   3.282   2.817   2.890
 1916HOH      O 5952   0.883   1.664   0.086
 1916HOH     H1 5953   0.848   1.575   0.091
 1916HOH     H2 5954   0.874   1.688  -0.006
 1917HOH      O 5955   3.697   0.783   0.809
 1917HOH     H1 5956   3.733   0.699   0.780
 1917HOH     H2 5957   3.753   0.848   0.766
 1918HOH      O 5958   1.573   3.695   3.504
 1918HOH     H1 5959   1.514   3.624   3.481
 1918HOH     H2 5960   1.660   3.654   3.506
 1919HOH      O 5961   0.768   2.923   0.840
 1919HOH     H1 5962   0.709   2.969   0.900
 1919HOH     H2 5963   0.712   2.896   0.767
 1920HOH      O 5964   2.517   3.849   3.765
 1920HOH     H1 5965   2.578   3.834   3.837
 1920HOH     H2 5966   2.436   3.807   3.794
 1921HOH      O 5967   2.859   0.466   1.772
 1921HOH     H1 5968   2.946   0.452   1.810
 1921HOH     H2 5969   2.802   0.408   1.822
 1922HOH      O 5970   2.312   2.783   2.151
 1922HOH     H1 5971   2.316   2.822   2.238
 1922HOH     H2 5972   2.395   2.808   2.110
 1923HOH      O 5973   2.263   2.405   1.438
 1923HOH     H1 5974   2.251   2.499   1.431
 1923HOH     H2 5975   2.307   2.392   1.522
 1924HOH      O 5976   0.445   1.775   2.485
 1924HOH     H1 5977   0.376   1.840   2.468
 1924HOH     H2 5978   0.402   1.709   2.539
 1925HOH      O 5979   3.424   0.169   3.704
 1925HOH     H1 5980   3.433   0.184   3.610
 1925HOH     H2 5981   3.348   0.222   3.730
 1926HOH      O 5982   3.307   1.971   1.532
 1926HOH     H1 5983   3.306   1.991   1.626
 1926HOH     H2 5984   3.251   2.039   1.493
 1927HOH      O 5985   1.198   3.159   2.520
 1927HOH     H1 5986   1.291   3.164   2.499
 1927HOH     H2 5987   1.186   3.071   2.557
 1928HOH      O 5988   0.704   3.769   2.724
 1928HOH     H1 5989   0.747   3.846   2.759
 1928HOH     H2 5990   0.774   3.705   2.713
 1929HOH      O 5991   0.906   0.957   0.588
 1929HOH     H1 5992   0.910   1.049   0.562
 1929HOH     H2 5993   0.944   0.956   0.676
 1930HOH      O 5994   0.332   2.135   3.467
 1930HOH     H1 5995   0.273   2.194   3.420
 1930HOH     H2 5996   0.418   2.175   3.459
 1931HOH      O 5997   0.523   3.268   2.624
 1931HOH     H1 5998   0.436   3.289   2.657
 1931HOH     H2 5999   0.519   3.287   2.530
 1932HOH      O 6000   2.429   3.944   2.492
 1932HOH     H1 6001   2.360   3.878   2.496
 1932HOH     H2 6002   2.420   3.983   2.405
 1933HOH      O 6003   0.431   3.723   3.011
 1933HOH     H1 6004   0.358   3.700   2.954
 1933HOH     H2 6005   0.436   3.819   3.007
 1934HOH      O 6006   3.000   3.975   3.306
 1934HOH     H1 6007   2.912   4.012   3.296
 1934HOH     H2 6008   3.053   4.048   3.338
 1935HOH      O 6009   3.476   2.771   0.648
 1935HOH     H1 6010   3.442   2.719   0.575
 1935HOH     H2 6011   3.399   2.791   0.701
 1936HOH      O 6012   3.975   1.509   1.083
 1936HOH     H1 6013   3.992   1.575   1.150
 1936HOH     H2 6014   3.883   1.484   1.096
 1937HOH      O 6015   0.454   2.013   0.470
 1937HOH     H1 6016   0.438   2.100   0.434
 1937HOH     H2 6017   0.549   2.004   0.470
 1938HOH      O 6018   1.874   1.063   1.370
 1938HOH     H1 6019   1.845   0.974   1.352
 1938HOH     H2 6020   1.870   1.107   1.285
 1939HOH      O 6021   1.316   2.406   2.759
 1939HOH     H1 6022   1.408   2.401   2.733
 1939HOH     H2 6023   1.298   2.323   2.802
 1940HOH      O 6024   0.327   2.236   0.323
 1940HOH     H1 6025   0.271   2.166   0.357
 1940HOH     H2 6026   0.343   2.293   0.398
 1941HOH      O 6027   2.987   1.530   3.741
 1941HOH     H1 6028   3.080   1.553   3.743
 1941HOH     H2 6029   2.950   1.573   3.818
 1942HOH      O 6030   3.868   1.037   2.165
 1942HOH     H1 6031   3.844   0.975   2.233
 1942HOH     H2 6032   3.963   1.031   2.159
 1943HOH      O 6033   2.784   1.310   1.669
 1943HOH     H1 6034   2.787   1.214   1.671
 1943HOH     H2 6035   2.772   1.335   1.761
 1944HOH      O 6036   1.716   2.649   3.809
 1944HOH     H1 6037   1.755   2.597   3.879
 1944HOH     H2 6038   1.729   2.740   3.835
 1945HOH      O 6039   0.978   3.963   2.465
 1945HOH     H1 6040   0.981   3.901   2.538
 1945HOH     H2 6041   0.886   3.962   2.436
 1946HOH      O 6042   2.344   1.099   0.743
 1946HOH     H1 6043   2.404   1.091   0.817
 1946HOH     H2 6044   2.329   1.193   0.734
 1947HOH      O 6045   3.681   1.431   1.826
 1947HOH     H1 6046   3.620   1.501   1.802
 1947HOH     H2 6047   3.630   1.350   1.818
 1948HOH      O 6048   3.917   3.359   2.123
 1948HOH     H1 6049   3.834   3.374   2.077
 1948HOH     H2 6050   3.958   3.287   2.076
 1949HOH      O 6051   0.580   3.378   2.367
 1949HOH     H1 6052   0.671   3.365   2.394
 1949HOH     H2 6053   0.570   3.325   2.288
 1950HOH      O 6054   2.736   2.113   1.507
 1950HOH     H1 6055   2.790   2.066   1.444
 1950HOH     H2 6056   2.696   2.183   1.456
 1951HOH      O 6057   1.560   3.485   2.813
 1951HOH     H1 6058   1.470   3.492   2.846
 1951HOH     H2 6059   1.599   3.415   2.864
 1952HOH      O 6060   1.982   3.277   1.299
 1952HOH     H1 6061   2.032   3.202   1.266
 1952HOH     H2 6062   1.891   3.249   1.294
 1953HOH      O 6063   0.244   3.016   3.573
 1953HOH     H1 6064   0.282   2.986   3.491
 1953HOH     H2 6065   0.317   3.057   3.620
 1954HOH      O 6066   1.858   2.357   3.232
 1954HOH     H1 6067   1.932   2.297   3.225
 1954HOH     H2 6068   1.896   2.444   3.218
 1955HOH      O 6069   0.959   0.354   2.010
 1955HOH     H1 6070   0.912   0.427   2.049
 1955HOH     H2 6071   0.946   0.281   2.071
 1956HOH      O 6072   3.421   3.469   1.151
 1956HOH     H1 6073   3.390   3.560   1.151
 1956HOH     H2 6074   3.509   3.474   1.188
 1957HOH      O 6075   1.942   3.487   3.853
 1957HOH     H1 6076   1.938   3.402   3.809
 1957HOH     H2 6077   1.922   3.551   3.785
 1958HOH      O 6078   0.449   3.035   3.879
 1958HOH     H1 6079   0.503   2.979   3.823
 1958HOH     H2 6080   0.420   3.105   3.820
 1959HOH      O 6081   0.926   3.771   3.936
 1959HOH     H1 6082   1.018   3.772   3.912
 1959HOH     H2 6083   0.887   3.841   3.883
 1960HOH      O 6084   2.057   1.112   0.524
 1960HOH     H1 6085   2.132   1.081   0.474
 1960HOH     H2 6086   2.071   1.206   0.532
 1961HOH      O 6087   1.596   4.003   1.022
 1961HOH     H1 6088   1.551   3.943   0.963
 1961HOH     H2 6089   1.666   3.951   1.060
 1962HOH      O 6090   2.787   1.671   3.603
 1962HOH     H1 6091   2.806   1.684   3.510
 1962HOH     H2 6092   2.860   1.620   3.636
 1963HOH      O 6093   0.193   2.887   2.504
 1963HOH     H1 6094   0.242   2.948   2.559
 1963HOH     H2 6095   0.254   2.815   2.488
 1964HOH      O 6096   3.989   1.589   3.124
 1964HOH     H1 6097   3.912   1.630   3.083
 1964HOH     H2 6098   3.970   1.592   3.218
 1965HOH      O 6099   1.680   1.023   0.220
 1965HOH     H1 6100   1.726   0.990   0.297
 1965HOH     H2 6101   1.627   1.095   0.254
 1966HOH      O 6102   1.193   0.491   2.234
 1966HOH     H1 6103   1.182   0.510   2.141
 1966HOH     H2 6104   1.277   0.531   2.257
 1967HOH      O 6105   0.863   2.521   1.125
 1967HOH     H1 6106   0.917   2.503   1.048
 1967HOH     H2 6107   0.861   2.617   1.130
 1968HOH      O 6108   3.466   3.372   3.071
 1968HOH     H1 6109   3.491   3.351   2.981
 1968HOH     H2 6110   3.373   3.394   3.065
 1969HOH      O 6111   1.397   3.691   3.215
 1969HOH     H1 6112   1.384   3.701   3.121
 1969HOH     H2 6113   1.488   3.660   3.223
 1970HOH      O 6114   1.752   0.732   0.218
 1970HOH     H1 6115   1.698   0.805   0.245
 1970HOH     H2 6116   1.744   0.668   0.288
 1971HOH      O 6117   3.844   2.113   3.913
 1971HOH     H1 6118   3.917   2.172   3.890
 1971HOH     H2 6119   3.877   2.026   3.891
 1972HOH      O 6120   0.217   0.518   1.959
 1972HOH     H1 6121   0.143   0.573   1.986
 1972HOH     H2 6122   0.177   0.439   1.925
 1973HOH      O 6123   2.032   0.369   2.126
 1973HOH     H1 6124   2.015   0.426   2.050
 1973HOH     H2 6125   1.952   0.376   2.179
 1974HOH      O 6126   1.417   3.359   3.739
 1974HOH     H1 6127   1.338   3.328   3.694
 1974HOH     H2 6128   1.476   3.383   3.668
 1975HOH      O 6129   1.289   1.010   0.787
 1975HOH     H1 6130   1.261   1.003   0.696
 1975HOH     H2 6131   1.367   1.065   0.784
 1976HOH      O 6132   3.470   1.440   3.302
 1976HOH     H1 6133   3.453   1.533   3.318
 1976HOH     H2 6134   3.552   1.439   3.253
 1977HOH      O 6135   0.346   2.006   1.849
 1977HOH     H1 6136   0.262   1.973   1.882
 1977HOH     H2 6137   0.357   2.091   1.891
 1978HOH      O 6138   1.759   2.083   3.839
 1978HOH     H1 6139   1.703   2.036   3.902
 1978HOH     H2 6140   1.833   2.113   3.891
 1979HOH      O 6141   0.315   3.866   0.463
 1979HOH     H1 6142   0.222   3.872   0.485
 1979HOH     H2 6143   0.323   3.783   0.416
 1980HOH      O 6144   0.906   3.318   1.371
 1980HOH     H1 6145   0.814   3.294   1.360
 1980HOH     H2 6146   0.928   3.291   1.460
 1981HOH      O 6147   2.974   3.792   0.056
 1981HOH     H1 6148   2.913   3.759   0.122
 1981HOH     H2 6149   3.015   3.714   0.019
 1982HOH      O 6150   1.448   2.148   2.218
 1982HOH     H1 6151   1.454   2.131   2.312
 1982HOH     H2 6152   1.392   2.225   2.211
 1983HOH      O 6153   0.003   1.380   3.496
 1983HOH     H1 6154   0.044   1.362   3.581
 1983HOH     H2 6155  -0.034   1.467   3.505
 1984HOH      O 6156   2.083   0.238   2.678
 1984HOH     H1 6157   2.098   0.165   2.617
 1984HOH     H2 6158   2.082   0.316   2.621
 1985HOH      O 6159   2.181   1.265   3.129
 1985HOH     H1 6160   2.180   1.201   3.058
 1985HOH     H2 6161   2.274   1.282   3.145
 1986HOH      O 6162   2.158   0.709   2.133
 1986HOH     H1 6163   2.081   0.748   2.176
 1986HOH     H2 6164   2.197   0.653   2.201
 1987HOH      O 6165   2.112   2.209   2.999
 1987HOH     H1 6166   2.135   2.281   3.059
 1987HOH     H2 6167   2.069   2.144   3.055
 1988HOH      O 6168   3.429   0.352   2.370
 1988HOH     H1 6169   3.436   0.447   2.373
 1988HOH     H2 6170   3.445   0.331   2.278
 1989HOH      O 6171   2.280   3.769   3.381
 1989HOH     H1 6172   2.351   3.794   3.322
 1989HOH     H2 6173   2.203   3.811   3.343
 1990HOH      O 6174   0.764   1.233   0.439
 1990HOH     H1 6175   0.763   1.310   0.496
 1990HOH     H2 6176   0.857   1.217   0.421
 1991HOH      O 6177   1.711   3.094   4.024
 1991HOH     H1 6178   1.624   3.127   4.000
 1991HOH     H2 6179   1.743   3.157   4.088
 1992HOH      O 6180   3.233   1.163   2.731
 1992HOH     H1 6181   3.293   1.172   2.805
 1992HOH     H2 6182   3.153   1.128   2.770
 1993HOH      O 6183   0.712   1.456   3.755
 1993HOH     H1 6184   0.705   1.370   3.795
 1993HOH     H2 6185   0.621   1.486   3.746
 1994HOH      O 6186   2.291   2.508   4.018
 1994HOH     H1 6187   2.365   2.568   4.013
 1994HOH     H2 6188   2.282   2.473   3.929
 1995HOH      O 6189   1.436   1.740   1.003
 1995HOH     H1 6190   1.438   1.826   0.962
 1995HOH     H2 6191   1.528   1.715   1.010
 1996HOH      O 6192   3.848   3.804   1.211
 1996HOH     H1 6193   3.873   3.775   1.299
 1996HOH     H2 6194   3.817   3.893   1.223
 1997HOH      O 6195   2.123   3.059   3.319
 1997HOH     H1 6196   2.204   3.017   3.289
 1997HOH     H2 6197   2.108   3.023   3.406
 1998HOH      O 6198   2.642   3.697   3.564
 1998HOH     H1 6199   2.722   3.749   3.571
 1998HOH     H2 6200   2.580   3.738   3.624
 1999HOH      O 6201   3.377   1.194   3.166
 1999HOH     H1 6202   3.299   1.187   3.222
 1999HOH     H2 6203   3.404   1.286   3.174
 2000HOH      O 6204   3.566   1.239   0.251
 2000HOH     H1 6205   3.501   1.306   0.275
 2000HOH     H2 6206   3.516   1.158   0.247
 2001HOH      O 6207   3.061   1.506   1.475
 2001HOH     H1 6208   2.973   1.519   1.438
 2001HOH     H2 6209   3.067   1.412   1.490
 2002HOH      O 6210   3.123   1.769   3.417
 2002HOH     H1 6211   3.162   1.850   3.450
 2002HOH     H2 6212   3.175   1.746   3.340
 2003HOH      O 6213   0.020   3.276   3.982
 2003HOH     H1 6214  -0.042   3.340   4.017
 2003HOH     H2 6215   0.101   3.325   3.971
 2004HOH      O 6216   2.477   0.323   3.360
 2004HOH     H1 6217   2.440   0.244   3.400
 2004HOH     H2 6218   2.402   0.383   3.354
 2005HOH      O 6219   0.743   2.064   0.408
 2005HOH     H1 6220   0.773   2.113   0.331
 2005HOH     H2 6221   0.789   1.980   0.401
 2006HOH      O 6222   1.007   3.453   2.620
 2006HOH     H1 6223   1.060   3.382   2.656
 2006HOH     H2 6224   1.066   3.529   2.623
 2007HOH      O 6225   1.780   2.756   0.759
 2007HOH     H1 6226   1.784   2.671   0.803
 2007HOH     H2 6227   1.696   2.793   0.786
 2008HOH      O 6228   1.135   2.705   1.430
 2008HOH     H1 6229   1.220   2.674   1.462
 2008HOH     H2 6230   1.091   2.626   1.398
 2009HOH      O 6231   0.327   0.086   0.570
 2009HOH     H1 6232   0.294  -0.002   0.552
 2009HOH     H2 6233   0.418   0.073   0.595
 2010HOH      O 6234   0.239   1.258   3.653
 2010HOH     H1 6235   0.190   1.209   3.720
 2010HOH     H2 6236   0.324   1.214   3.648
 2011HOH      O 6237   2.179   0.683   3.579
 2011HOH     H1 6238   2.172   0.776   3.600
 2011HOH     H2 6239   2.117   0.669   3.508
 2012HOH      O 6240   2.495   1.904   0.916
 2012HOH     H1 6241   2.467   1.968   0.982
 2012HOH     H2 6242   2.563   1.852   0.961
 2013HOH      O 6243   2.817   1.591   1.360
 2013HOH     H1 6244   2.764   1.669   1.339
 2013HOH     H2 6245   2.857   1.567   1.276
 2014HOH      O 6246   0.662   1.788   3.485
 2014HOH     H1 6247   0.714   1.713   3.456
 2014HOH     H2 6248   0.574   1.754   3.497
 2015HOH      O 6249   1.586   2.409   2.690
 2015HOH     H1 6250   1.592   2.467   2.766
 2015HOH     H2 6251   1.649   2.339   2.707
 2016HOH      O 6252   3.011   1.845   3.785
 2016HOH     H1 6253   3.045   1.785   3.718
 2016HOH     H2 6254   3.074   1.916   3.788
 2017HOH      O 6255   0.644   2.291   0.569
 2017HOH     H1 6256   0.670   2.201   0.549
 2017HOH     H2 6257   0.673   2.342   0.494
 2018HOH      O 6258   0.685   1.789   2.586
 2018HOH     H1 6259   0.592   1.774   2.566
 2018HOH     H2 6260   0.687   1.802   2.681
 2019HOH      O 6261   2.298   3.678   0.850
 2019HOH     H1 6262   2.212   3.708   0.822
 2019HOH     H2 6263   2.297   3.584   0.833
 2020HOH      O 6264   1.610   2.822   3.042
 2020HOH     H1 6265   1.587   2.908   3.076
 2020HOH     H2 6266   1.688   2.796   3.091
 2021HOH      O 6267   0.344   0.169   1.671
 2021HOH     H1 6268   0.252   0.143   1.666
 2021HOH     H2 6269   0.373   0.169   1.580
 2022HOH      O 6270   3.143   1.674   0.376
 2022HOH     H1 6271   3.236   1.663   0.353
 2022HOH     H2 6272   3.101   1.693   0.292
 2023HOH      O 6273   3.589   1.116   1.438
 2023HOH     H1 6274   3.635   1.114   1.522
 2023HOH     H2 6275   3.657   1.100   1.373
 2024HOH      O 6276   3.664   3.768   3.295
 2024HOH     H1 6277   3.618   3.687   3.277
 2024HOH     H2 6278   3.683   3.765   3.389
 2025HOH      O 6279   2.445   3.544   0.116
 2025HOH     H1 6280   2.535   3.536   0.084
 2025HOH     H2 6281   2.391   3.536   0.037
 2026HOH      O 6282   0.917   1.859   1.980
 2026HOH     H1 6283   0.967   1.812   1.914
 2026HOH     H2 6284   0.874   1.791   2.031
 2027HOH      O 6285   1.562   3.025   2.819
 2027HOH     H1 6286   1.612   2.943   2.827
 2027HOH     H2 6287   1.471   2.997   2.822
 2028HOH      O 6288   0.566   0.234   3.164
 2028HOH     H1 6289   0.506   0.293   3.118
 2028HOH     H2 6290   0.568   0.266   3.254
 2029HOH      O 6291   2.604   0.391   2.486
 2029HOH     H1 6292   2.558   0.372   2.405
 2029HOH     H2 6293   2.647   0.309   2.510
 2030HOH      O 6294   2.179   0.963   3.589
 2030HOH     H1 6295   2.235   0.956   3.512
 2030HOH     H2 6296   2.125   1.040   3.573
 2031HOH      O 6297   1.742   2.252   1.323
 2031HOH     H1 6298   1.775   2.202   1.397
 2031HOH     H2 6299   1.684   2.318   1.362
 2032HOH      O 6300   2.008   1.359   3.732
 2032HOH     H1 6301   1.980   1.281   3.780
 2032HOH     H2 6302   1.953   1.429   3.765
 2033HOH      O 6303   2.071   2.624   3.427
 2033HOH     H1 6304   2.042   2.616   3.336
 2033HOH     H2 6305   1.992   2.609   3.479
 2034HOH      O 6306   3.234   2.912   0.277
 2034HOH     H1 6307   3.157   2.861   0.301
 2034HOH     H2 6308   3.236   2.909   0.181
 2035HOH      O 6309   0.360   0.402   1.450
 2035HOH     H1 6310   0.348   0.443   1.536
 2035HOH     H2 6311   0.275   0.362   1.431
 2036HOH      O 6312   3.547   2.249   0.431
 2036HOH     H1 6313   3.601   2.287   0.500
 2036HOH     H2 6314   3.578   2.158   0.424
 2037HOH      O 6315   0.052   2.229   3.907
 2037HOH     H1 6316   0.103   2.152   3.880
 2037HOH     H2 6317   0.074   2.241   3.999
 2038HOH      O 6318   2.955   3.013   3.984
 2038HOH     H1 6319   2.945   3.108   3.991
 2038HOH     H2 6320   2.978   2.998   3.893
 2039HOH      O 6321   4.028   2.381   0.786
 2039HOH     H1 6322   4.035   2.469   0.747
 2039HOH     H2 6323   4.046   2.395   0.879
 2040HOH      O 6324   0.615   1.020   0.482
 2040HOH     H1 6325   0.672   0.945   0.466
 2040HOH     H2 6326   0.669   1.096   0.460
 2041HOH      O 6327   0.272   2.796   1.713
 2041HOH     H1 6328   0.200   2.847   1.751
 2041HOH     H2 6329   0.268   2.816   1.619
 2042HOH      O 6330   1.353   1.994   0.114
 2042HOH     H1 6331   1.273   1.942   0.101
 2042HOH     H2 6332   1.323   2.073   0.159
 2043HOH      O 6333   2.174   3.987   1.782
 2043HOH     H1 6334   2.259   3.969   1.741
 2043HOH     H2 6335   2.164   4.082   1.775
 2044HOH      O 6336   2.891   1.163   1.913
 2044HOH     H1 6337   2.984   1.154   1.931
 2044HOH     H2 6338   2.875   1.103   1.840
 2045HOH      O 6339   1.047   3.922   1.393
 2045HOH     H1 6340   1.119   3.971   1.355
 2045HOH     H2 6341   1.063   3.925   1.487
 2046HOH      O 6342   3.327   3.493   0.100
 2046HOH     H1 6343   3.388   3.419   0.093
 2046HOH     H2 6344   3.325   3.514   0.193
 2047HOH      O 6345   0.697   0.541   3.575
 2047HOH     H1 6346   0.607   0.539   3.607
 2047HOH     H2 6347   0.697   0.483   3.499
 2048HOH      O 6348   3.417   3.924   0.273
 2048HOH     H1 6349   3.471   3.988   0.320
 2048HOH     H2 6350   3.344   3.907   0.332
 2049HOH      O 6351   1.364   2.258   3.501
 2049HOH     H1 6352   1.333   2.267   3.411
 2049HOH     H2 6353   1.316   2.183   3.536
 2050HOH      O 6354   3.805   3.174   0.660
 2050HOH     H1 6355   3.741   3.103   0.665
 2050HOH     H2 6356   3.777   3.237   0.726
 2051HOH      O 6357   4.003   0.384   0.309
 2051HOH     H1 6358   3.979   0.385   0.402
 2051HOH     H2 6359   4.089   0.341   0.307
 2052HOH      O 6360   2.939   1.781   0.793
 2052HOH     H1 6361   2.990   1.856   0.762
 2052HOH     H2 6362   2.949   1.715   0.724
 2053HOH      O 6363   2.563   3.411   1.650
 2053HOH     H1 6364   2.530   3.350   1.716
 2053HOH     H2 6365   2.489   3.468   1.631
 2054HOH      O 6366   2.866   1.025   1.670
 2054HOH     H1 6367   2.778   0.990   1.657
 2054HOH     H2 6368   2.925   0.953   1.648
 2055HOH      O 6369   2.611   2.654   0.506
 2055HOH     H1 6370   2.554   2.687   0.436
 2055HOH     H2 6371   2.602   2.559   0.502
 2056HOH      O 6372   2.824   2.928   0.774
 2056HOH     H1 6373   2.864   2.893   0.853
 2056HOH     H2 6374   2.888   2.911   0.705
 2057HOH      O 6375   2.458   2.143   3.565
 2057HOH     H1 6376   2.511   2.072   3.528
 2057HOH     H2 6377   2.374   2.102   3.585
 2058HOH      O 6378   1.526   1.608   2.494
 2058HOH     H1 6379   1.602   1.661   2.471
 2058HOH     H2 6380   1.518   1.616   2.589
 2059HOH      O 6381   1.659   3.787   1.396
 2059HOH     H1 6382   1.751   3.783   1.422
 2059HOH     H2 6383   1.613   3.733   1.460
 2060HOH      O 6384   1.507   0.188   3.525
 2060HOH     H1 6385   1.459   0.177   3.443
 2060HOH     H2 6386   1.488   0.278   3.553
 2061HOH      O 6387   2.293   2.283   0.800
 2061HOH     H1 6388   2.271   2.340   0.874
 2061HOH     H2 6389   2.328   2.342   0.734
 2062HOH      O 6390   1.061   2.232   0.080
 2062HOH     H1 6391   1.121   2.224   0.153
 2062HOH     H2 6392   1.117   2.247   0.004
 2063HOH      O 6393   0.917   3.684   2.205
 2063HOH     H1 6394   0.995   3.649   2.248
 2063HOH     H2 6395   0.864   3.606   2.187
 2064HOH      O 6396   1.616   4.008   3.104
 2064HOH     H1 6397   1.672   4.061   3.048
 2064HOH     H2 6398   1.588   3.935   3.049
 2065HOH      O 6399   3.946   2.696   3.056
 2065HOH     H1 6400   3.920   2.780   3.018
 2065HOH     H2 6401   4.039   2.687   3.033
 2066HOH      O 6402   3.047   2.885   1.637
 2066HOH     H1 6403   2.974   2.946   1.647
 2066HOH     H2 6404   3.010   2.811   1.590
 2067HOH      O 6405   0.185   3.891   3.999
 2067HOH     H1 6406   0.138   3.891   4.082
 2067HOH     H2 6407   0.272   3.927   4.020
 2068HOH      O 6408   0.664   3.964   0.911
 2068HOH     H1 6409   0.622   3.914   0.981
 2068HOH     H2 6410   0.746   3.918   0.895
 2069HOH      O 6411   0.690   3.765   3.125
 2069HOH     H1 6412   0.676   3.858   3.143
 2069HOH     H2 6413   0.605   3.735   3.092
 2070HOH      O 6414   2.334   3.801   0.148
 2070HOH     H1 6415   2.363   3.710   0.154
 2070HOH     H2 6416   2.239   3.795   0.138
 2071HOH      O 6417   2.037   3.713   3.188
 2071HOH     H1 6418   2.011   3.763   3.110
 2071HOH     H2 6419   2.033   3.622   3.160
 2072HOH      O 6420   0.099   0.795   0.110
 2072HOH     H1 6421   0.065   0.740   0.039
 2072HOH     H2 6422   0.148   0.735   0.165
 2073HOH      O 6423   0.061   1.708   2.283
 2073HOH     H1 6424   0.096   1.628   2.322
 2073HOH     H2 6425   0.138   1.753   2.248
 2074HOH      O 6426   0.756   2.528   2.464
 2074HOH     H1 6427   0.721   2.528   2.375
 2074HOH     H2 6428   0.824   2.595   2.463
 2075HOH      O 6429   2.837   0.434   0.536
 2075HOH     H1 6430   2.902   0.495   0.571
 2075HOH     H2 6431   2.884   0.382   0.471
 2076HOH      O 6432   1.279   3.734   1.525
 2076HOH     H1 6433   1.287   3.715   1.431
 2076HOH     H2 6434   1.303   3.826   1.534
 2077HOH      O 6435   2.678   3.134   3.556
 2077HOH     H1 6436   2.588   3.113   3.534
 2077HOH     H2 6437   2.673   3.217   3.604
 2078HOH      O 6438   2.673   2.170   0.636
 2078HOH     H1 6439   2.656   2.169   0.731
 2078HOH     H2 6440   2.609   2.232   0.601
 2079HOH      O 6441   3.961   3.454   0.107
 2079HOH     H1 6442   4.000   3.380   0.153
 2079HOH     H2 6443   3.879   3.471   0.154
 2080HOH      O 6444   0.852   0.910   2.018
 2080HOH     H1 6445   0.841   0.834   2.076
 2080HOH     H2 6446   0.763   0.943   2.006
 2081HOH      O 6447   2.358   0.873   2.219
 2081HOH     H1 6448   2.268   0.851   2.195
 2081HOH     H2 6449   2.354   0.966   2.242
 2082HOH      O 6450   0.365   2.028   3.724
 2082HOH     H1 6451   0.424   1.962   3.689
 2082HOH     H2 6452   0.325   2.068   3.647
 2083HOH      O 6453   2.814   2.108   0.944
 2083HOH     H1 6454   2.737   2.108   1.001
 2083HOH     H2 6455   2.875   2.048   0.987
 2084HOH      O 6456   3.218   1.614   3.652
 2084HOH     H1 6457   3.312   1.625   3.641
 2084HOH     H2 6458   3.182   1.625   3.564
 2085HOH      O 6459   0.200   3.199   1.797
 2085HOH     H1 6460   0.113   3.192   1.757
 2085HOH     H2 6461   0.199   3.135   1.868
 2086HOH      O 6462   0.801   1.089   3.452
 2086HOH     H1 6463   0.782   1.183   3.456
 2086HOH     H2 6464   0.896   1.083   3.465
 2087HOH      O 6465   1.752   1.572   1.605
 2087HOH     H1 6466   1.833   1.616   1.629
 2087HOH     H2 6467   1.697   1.640   1.566
 2088HOH      O 6468   1.625   0.354   2.187
 2088HOH     H1 6469   1.583   0.272   2.213
 2088HOH     H2 6470   1.554   0.418   2.187
 2089HOH      O 6471   3.595   2.774   1.182
 2089HOH     H1 6472   3.621   2.753   1.092
 2089HOH     H2 6473   3.678   2.778   1.230
 2090HOH      O 6474   0.519   2.693   1.757
 2090HOH     H1 6475   0.534   2.637   1.680
 2090HOH     H2 6476   0.428   2.721   1.748
 2091HOH      O 6477   2.181   1.261   1.123
 2091HOH     H1 6478   2.274   1.276   1.139
 2091HOH     H2 6479   2.136   1.311   1.192
 2092HOH      O 6480   0.444   1.148   2.135
 2092HOH     H1 6481   0.427   1.237   2.104
 2092HOH     H2 6482   0.514   1.158   2.199
 2093HOH      O 6483   1.484   0.334   0.458
 2093HOH     H1 6484   1.451   0.274   0.525
 2093HOH     H2 6485   1.494   0.418   0.504
 2094HOH      O 6486   1.710   3.807   2.466
 2094HOH     H1 6487   1.684   3.897   2.481
 2094HOH     H2 6488   1.637   3.755   2.499
 2095HOH      O 6489   3.721   1.258   2.159
 2095HOH     H1 6490   3.796   1.198   2.157
 2095HOH     H2 6491   3.702   1.269   2.253
 2096HOH      O 6492   1.951   1.345   2.247
 2096HOH     H1 6493   1.943   1.435   2.277
 2096HOH     H2 6494   1.895   1.294   2.306
 2097HOH      O 6495   0.048   2.629   3.338
 2097HOH     H1 6496  -0.020   2.696   3.348
 2097HOH     H2 6497   0.110   2.647   3.409
 2098HOH      O 6498   0.172   1.770   3.713
 2098HOH     H1 6499   0.218   1.802   3.635
 2098HOH     H2 6500   0.240   1.734   3.768
 2099HOH      O 6501   1.356   1.153   0.264
 2099HOH     H1 6502   1.315   1.236   0.290
 2099HOH     H2 6503   1.440   1.152   0.308
 2100HOH      O 6504   1.918   1.999   3.598
 2100HOH     H1 6505   1.965   2.019   3.680
 2100HOH     H2 6506   1.911   1.904   3.598
 2101HOH      O 6507   0.389   0.989   0.248
 2101HOH     H1 6508   0.329   1.061   0.229
 2101HOH     H2 6509   0.475   1.031   0.255
 2102HOH      O 6510   2.802   2.784   0.215
 2102HOH     H1 6511   2.759   2.699   0.210
 2102HOH     H2 6512   2.824   2.806   0.125
 2103HOH      O 6513   2.947   2.804   1.007
 2103HOH     H1 6514   3.039   2.826   1.020
 2103HOH     H2 6515   2.920   2.765   1.091
 2104HOH      O 6516   2.287   3.740   2.654
 2104HOH     H1 6517   2.365   3.700   2.692
 2104HOH     H2 6518   2.242   3.780   2.729
 2105HOH      O 6519   3.705   3.863   2.350
 2105HOH     H1 6520   3.617   3.865   2.389
 2105HOH     H2 6521   3.763   3.844   2.423
 2106HOH      O 6522   2.164   3.167   3.847
 2106HOH     H1 6523   2.158   3.154   3.941
 2106HOH     H2 6524   2.192   3.082   3.813
 2107HOH      O 6525   0.867   3.698   0.161
 2107HOH     H1 6526   0.891   3.746   0.082
 2107HOH     H2 6527   0.942   3.710   0.220
 2108HOH      O 6528   1.268   3.528   1.097
 2108HOH     H1 6529   1.194   3.528   1.157
 2108HOH     H2 6530   1.342   3.559   1.149
 2109HOH      O 6531   0.657   1.052   2.987
 2109HOH     H1 6532   0.653   1.128   2.928
 2109HOH     H2 6533   0.731   1.071   3.045
   4.04076   4.04076   4.04076   0.00000   0.00000   0.00000   0.00000   0.00000   0.00000
