Generated with MDTraj, t= 22756.0
 6533
    1MOL     C1    1   3.515   0.672   2.492
    1MOL     C2    2   3.571   0.751   2.392
    1MOL     C3    3   3.654   0.861   2.432
    1MOL     C4    4   3.678   0.882   2.571
    1MOL     C5    5   3.622   0.802   2.668
    1MOL     C6    6   3.538   0.698   2.627
    1MOL     C7    7   3.772   0.997   2.605
    1MOL     C8    8   3.907   0.973   2.550
    1MOL     N1    9   4.014   1.081   2.578
    1MOL     C9   10   3.972   1.209   2.510
    1MOL    C10   11   4.142   1.040   2.506
    1MOL    C11   12   4.032   1.102   2.724
    1MOL     H1   13   4.074   1.248   2.508
    1MOL     H2   14   3.896   1.259   2.570
    1MOL     H3   15   3.927   1.184   2.414
    1MOL     H4   16   4.195   1.134   2.494
    1MOL     H5   17   4.116   1.010   2.404
    1MOL     H6   18   4.192   0.965   2.568
    1MOL     H7   19   4.069   1.013   2.776
    1MOL     H8   20   3.940   1.133   2.773
    1MOL     H9   21   4.104   1.183   2.742
    1MOL    H10   22   3.455   0.587   2.462
    1MOL    H11   23   3.553   0.731   2.287
    1MOL    H12   24   3.701   0.921   2.354
    1MOL    H13   25   3.646   0.821   2.772
    1MOL    H14   26   3.498   0.626   2.698
    1MOL    H15   27   3.735   1.096   2.577
    1MOL    H16   28   3.773   0.997   2.714
    1MOL    H17   29   3.954   0.883   2.590
    1MOL    H18   30   3.912   0.942   2.446
    2OCB     C1   31   3.653   3.672   2.497
    2OCB     C2   32   3.717   3.777   2.749
    2OCB     C3   33   3.586   3.633   2.615
    2OCB     C4   34   3.749   3.774   2.515
    2OCB     C5   35   3.782   3.825   2.638
    2OCB     C6   36   3.616   3.680   2.743
    2OCB     O1   37   3.746   3.829   2.874
    2OCB     C7   38   3.548   3.631   2.865
    2OCB     C8   39   3.647   3.933   2.903
    2OCB     O2   40   3.562   3.879   3.003
    2OCB     C9   41   3.438   3.827   2.961
    2OCB    C10   42   3.424   3.710   2.888
    2OCB    C11   43   3.297   3.680   2.832
    2OCB    C12   44   3.325   3.895   3.009
    2OCB    C13   45   3.183   3.756   2.856
    2OCB    C14   46   3.201   3.863   2.952
    2OCB     O3   47   3.100   3.953   2.974
    2OCB    C15   48   3.045   3.745   2.783
    2OCB    C16   49   3.051   3.837   2.662
    2OCB    C17   50   2.996   3.966   2.662
    2OCB    C18   51   3.081   4.060   2.872
    2OCB     O4   52   2.971   4.038   2.781
    2OCB     O5   53   3.819   3.827   2.412
    2OCB    C19   54   3.615   3.630   2.350
    2OCB    C20   55   3.522   3.736   2.301
    2OCB     O6   56   3.700   3.879   2.226
    2OCB    C21   57   3.569   3.850   2.237
    2OCB    C22   58   2.995   4.035   2.543
    2OCB    C23   59   3.048   3.981   2.426
    2OCB    C24   60   3.483   3.958   2.211
    2OCB    C25   61   3.348   3.941   2.230
    2OCB     O7   62   3.059   4.067   2.317
    2OCB     O8   63   3.263   4.044   2.188
    2OCB    C26   64   3.197   4.118   2.296
    2OCB    C27   65   3.384   3.723   2.324
    2OCB    C28   66   3.295   3.823   2.281
    2OCB    C29   67   3.109   3.786   2.545
    2OCB    C30   68   3.149   3.798   2.296
    2OCB    C31   69   3.095   3.849   2.428
    2OCB    C32   70   3.757   3.931   2.342
    2OCB    C33   71   3.007   3.599   2.761
    2OCB    C34   72   2.974   3.525   2.892
    2OCB    C35   73   2.967   3.378   2.863
    2OCB     O9   74   3.076   3.324   2.842
    2OCB    C36   75   3.513   3.483   2.883
    2OCB    C37   76   3.630   3.383   2.888
    2OCB    C38   77   3.721   3.411   3.003
    2OCB    O10   78   3.682   3.378   3.109
    2OCB    C39   79   3.569   3.475   2.339
    2OCB    C40   80   3.540   3.433   2.191
    2OCB    C41   81   3.496   3.286   2.183
    2OCB    O11   82   3.379   3.253   2.173
    2OCB    C42   83   3.095   3.655   2.266
    2OCB    C43   84   3.128   3.613   2.122
    2OCB    C44   85   3.111   3.462   2.105
    2OCB    O12   86   3.112   3.413   1.990
    2OCB    C45   87   3.720   4.049   2.970
    2OCB    C46   88   3.851   4.266   3.079
    2OCB    C47   89   3.662   4.118   3.080
    2OCB    C48   90   3.845   4.091   2.909
    2OCB    C49   91   3.913   4.202   2.969
    2OCB    C50   92   3.726   4.229   3.130
    2OCB    C51   93   3.854   4.054   2.316
    2OCB    C52   94   4.027   4.265   2.261
    2OCB    C53   95   3.816   4.152   2.224
    2OCB    C54   96   3.966   4.075   2.395
    2OCB    C55   97   4.053   4.177   2.362
    2OCB    C56   98   3.907   4.253   2.193
    2OCB    C57   99   3.186   4.270   2.266
    2OCB    C58  100   3.215   4.553   2.255
    2OCB    C59  101   3.099   4.357   2.329
    2OCB    C60  102   3.293   4.329   2.196
    2OCB    C61  103   3.311   4.466   2.200
    2OCB    C62  104   3.107   4.493   2.317
    2OCB    C63  105   3.073   4.194   2.938
    2OCB    C64  106   3.047   4.458   3.050
    2OCB    C65  107   2.997   4.296   2.874
    2OCB    C66  108   3.139   4.232   3.055
    2OCB    C67  109   3.122   4.358   3.112
    2OCB    C68  110   2.986   4.426   2.929
    2OCB    O13  111   4.161   4.203   2.448
    2OCB    O14  112   3.420   4.526   2.143
    2OCB    O15  113   3.016   4.582   2.382
    2OCB    O16  114   4.033   4.251   2.914
    2OCB    O17  115   3.660   4.319   3.213
    2OCB    O18  116   2.910   4.525   2.862
    2OCB    O19  117   3.172   4.383   3.240
    2OCB    C69  118   3.510   4.456   2.076
    2OCB    C70  119   3.713   4.336   1.934
    2OCB    C71  120   3.633   4.427   2.138
    2OCB    C72  121   3.491   4.419   1.944
    2OCB    C73  122   3.590   4.359   1.871
    2OCB    C74  123   3.742   4.383   2.063
    2OCB    O20  124   3.866   4.359   2.112
    2OCB    C75  125   4.101   4.190   2.814
    2OCB    C76  126   4.215   4.045   2.613
    2OCB    C77  127   4.164   4.071   2.850
    2OCB    C78  128   4.100   4.249   2.681
    2OCB    C79  129   4.161   4.170   2.581
    2OCB    C80  130   4.215   3.998   2.745
    2OCB    C81  131   2.935   4.557   2.489
    2OCB    C82  132   2.747   4.527   2.692
    2OCB    C83  133   2.800   4.545   2.456
    2OCB    C84  134   2.976   4.551   2.627
    2OCB    C85  135   2.882   4.523   2.723
    2OCB    C86  136   2.706   4.534   2.557
    2OCB    C87  137   2.561   4.539   2.526
    2OCB    O21  138   2.518   4.567   2.419
    2OCB    C88  139   3.393   4.078   3.549
    2OCB    O22  140   3.499   4.043   3.598
    2OCB    C89  141   4.274   3.863   2.770
    2OCB    O23  142   4.285   3.807   2.873
    2OCB    O24  143   2.863   3.316   2.866
    2OCB    O25  144   3.090   3.386   2.192
    2OCB    O26  145   3.579   3.199   2.178
    2OCB    C90  146   3.559   4.327   1.732
    2OCB    O27  147   3.638   4.261   1.671
    2OCB    O28  148   3.290   4.023   3.577
    2OCB    O29  149   2.480   4.526   2.618
    2OCB    O30  150   3.443   4.343   1.689
    2OCB    O31  151   4.332   3.805   2.678
    2OCB    O32  152   3.821   3.477   2.995
    2OCB    C91  153   3.533   4.296   3.268
    2OCB    C92  154   3.292   4.242   3.390
    2OCB    C93  155   3.418   4.356   3.216
    2OCB    C94  156   3.525   4.206   3.370
    2OCB    C95  157   3.404   4.170   3.433
    2OCB    C96  158   3.296   4.332   3.281
    2OCB    C97  159   3.417   4.433   3.080
    2OCB    C98  160   4.054   4.392   2.649
    2OCB    C99  161   3.645   4.446   2.287
    2OCB      C  162   3.129   4.574   2.668
    2OCB     H1  163   3.505   3.561   2.602
    2OCB     H2  164   3.867   3.891   2.648
    2OCB     H3  165   3.612   3.655   2.950
    2OCB     H4  166   3.590   3.972   2.818
    2OCB     H5  167   3.285   3.586   2.778
    2OCB     H6  168   3.342   3.975   3.080
    2OCB     H7  169   2.972   3.788   2.853
    2OCB     H8  170   3.173   4.061   2.812
    2OCB     H9  171   3.711   3.641   2.299
    2OCB    H10  172   2.962   4.138   2.531
    2OCB    H11  173   3.524   4.052   2.175
    2OCB    H12  174   3.255   4.104   2.388
    2OCB    H13  175   3.346   3.630   2.365
    2OCB    H14  176   3.169   3.696   2.542
    2OCB    H15  177   3.104   3.856   2.215
    2OCB    H16  178   3.677   3.972   2.406
    2OCB    H17  179   2.915   3.603   2.703
    2OCB    H18  180   3.085   3.549   2.704
    2OCB    H19  181   3.057   3.546   2.960
    2OCB    H20  182   2.885   3.560   2.945
    2OCB    H21  183   3.445   3.452   2.803
    2OCB    H22  184   3.469   3.472   2.982
    2OCB    H23  185   3.597   3.279   2.894
    2OCB    H24  186   3.683   3.403   2.795
    2OCB    H25  187   3.648   3.418   2.389
    2OCB    H26  188   3.479   3.449   2.393
    2OCB    H27  189   3.460   3.499   2.155
    2OCB    H28  190   3.632   3.452   2.134
    2OCB    H29  191   3.151   3.589   2.333
    2OCB    H30  192   2.988   3.654   2.284
    2OCB    H31  193   3.072   3.671   2.049
    2OCB    H32  194   3.236   3.629   2.109
    2OCB    H33  195   3.898   4.350   3.131
    2OCB    H34  196   3.572   4.073   3.122
    2OCB    H35  197   3.885   4.051   2.816
    2OCB    H36  198   4.091   4.350   2.239
    2OCB    H37  199   3.729   4.144   2.160
    2OCB    H38  200   3.990   3.998   2.469
    2OCB    H39  201   3.228   4.661   2.253
    2OCB    H40  202   3.015   4.309   2.379
    2OCB    H41  203   3.362   4.267   2.140
    2OCB    H42  204   3.029   4.553   3.100
    2OCB    H43  205   2.952   4.277   2.776
    2OCB    H44  206   3.195   4.155   3.108
    2OCB    H45  207   3.795   4.295   1.875
    2OCB    H46  208   3.399   4.455   1.897
    2OCB    H47  209   4.263   3.980   2.540
    2OCB    H48  210   4.167   4.030   2.951
    2OCB    H49  211   2.668   4.513   2.766
    2OCB    H50  212   2.761   4.565   2.356
    2OCB    H51  213   3.200   4.241   3.449
    2OCB    H52  214   3.615   4.154   3.400
    2OCB    H53  215   3.322   4.482   3.062
    2OCB    H54  216   3.494   4.510   3.076
    2OCB    H55  217   3.424   4.368   2.993
    2OCB    H56  218   4.030   4.448   2.740
    2OCB    H57  219   4.139   4.446   2.606
    2OCB    H58  220   3.972   4.387   2.578
    2OCB    H59  221   3.709   4.376   2.341
    2OCB    H60  222   3.680   4.546   2.312
    2OCB    H61  223   3.547   4.439   2.333
    2OCB    H62  224   3.189   4.483   2.668
    2OCB    H63  225   3.183   4.637   2.597
    2OCB    H64  226   3.133   4.631   2.762
    3Na+    Na+  227   3.192   3.209   2.063
    4Na+    Na+  228   2.041   0.412   1.196
    5Na+    Na+  229   0.390   3.641   2.807
    6Na+    Na+  230   0.139   3.779   3.065
    7Na+    Na+  231   2.695   3.732   3.897
    8Na+    Na+  232   3.424   3.911   3.752
    9Na+    Na+  233   2.862   2.164   3.980
   10HOH      O  234   0.622   3.019   0.241
   10HOH     H1  235   0.572   2.975   0.309
   10HOH     H2  236   0.701   3.049   0.285
   11HOH      O  237   3.354   2.107   3.978
   11HOH     H1  238   3.327   2.198   3.994
   11HOH     H2  239   3.370   2.072   4.066
   12HOH      O  240   2.679   3.516   2.139
   12HOH     H1  241   2.727   3.493   2.060
   12HOH     H2  242   2.693   3.441   2.197
   13HOH      O  243   3.000   3.926   3.241
   13HOH     H1  244   3.047   3.909   3.160
   13HOH     H2  245   3.063   3.906   3.310
   14HOH      O  246   0.462   2.060   2.749
   14HOH     H1  247   0.521   1.986   2.731
   14HOH     H2  248   0.502   2.134   2.703
   15HOH      O  249   3.639   1.778   0.203
   15HOH     H1  250   3.594   1.836   0.265
   15HOH     H2  251   3.578   1.768   0.131
   16HOH      O  252   3.133   1.491   1.096
   16HOH     H1  253   3.178   1.540   1.028
   16HOH     H2  254   3.060   1.449   1.051
   17HOH      O  255   3.594   1.036   0.406
   17HOH     H1  256   3.615   1.092   0.480
   17HOH     H2  257   3.652   0.960   0.416
   18HOH      O  258   2.232   1.840   3.900
   18HOH     H1  259   2.240   1.808   3.990
   18HOH     H2  260   2.153   1.895   3.902
   19HOH      O  261   2.232   0.536   2.500
   19HOH     H1  262   2.302   0.481   2.536
   19HOH     H2  263   2.219   0.604   2.565
   20HOH      O  264   2.735   3.901   3.169
   20HOH     H1  265   2.812   3.884   3.223
   20HOH     H2  266   2.715   3.816   3.128
   21HOH      O  267   3.082   2.198   3.640
   21HOH     H1  268   3.055   2.158   3.557
   21HOH     H2  269   3.000   2.213   3.687
   22HOH      O  270   2.195   0.082   1.072
   22HOH     H1  271   2.203   0.173   1.044
   22HOH     H2  272   2.229   0.082   1.162
   23HOH      O  273   0.901   1.887   2.839
   23HOH     H1  274   0.843   1.949   2.885
   23HOH     H2  275   0.982   1.936   2.826
   24HOH      O  276   3.107   1.371   3.256
   24HOH     H1  277   3.146   1.437   3.313
   24HOH     H2  278   3.030   1.340   3.305
   25HOH      O  279   0.619   2.860  -0.002
   25HOH     H1  280   0.686   2.908  -0.051
   25HOH     H2  281   0.628   2.893   0.088
   26HOH      O  282   1.387   2.172   2.059
   26HOH     H1  283   1.420   2.152   1.971
   26HOH     H2  284   1.299   2.134   2.061
   27HOH      O  285   2.553   2.786   0.079
   27HOH     H1  286   2.597   2.855   0.029
   27HOH     H2  287   2.563   2.813   0.170
   28HOH      O  288   1.352   0.263   3.110
   28HOH     H1  289   1.432   0.223   3.077
   28HOH     H2  290   1.368   0.357   3.106
   29HOH      O  291   1.744   2.871   1.255
   29HOH     H1  292   1.791   2.933   1.311
   29HOH     H2  293   1.686   2.823   1.315
   30HOH      O  294   0.127   1.372   0.547
   30HOH     H1  295   0.181   1.294   0.534
   30HOH     H2  296   0.048   1.340   0.590
   31HOH      O  297   2.251   3.325   0.746
   31HOH     H1  298   2.169   3.282   0.772
   31HOH     H2  299   2.231   3.366   0.662
   32HOH      O  300   0.218   2.151   2.623
   32HOH     H1  301   0.310   2.166   2.646
   32HOH     H2  302   0.221   2.103   2.540
   33HOH      O  303   2.273   3.683   2.869
   33HOH     H1  304   2.260   3.628   2.792
   33HOH     H2  305   2.191   3.732   2.877
   34HOH      O  306   3.864   3.202   1.741
   34HOH     H1  307   3.820   3.207   1.826
   34HOH     H2  308   3.953   3.173   1.761
   35HOH      O  309   2.401   1.647   2.180
   35HOH     H1  310   2.482   1.619   2.139
   35HOH     H2  311   2.348   1.680   2.107
   36HOH      O  312   1.815   1.654   2.643
   36HOH     H1  313   1.871   1.674   2.718
   36HOH     H2  314   1.874   1.656   2.568
   37HOH      O  315   1.547   1.963   3.298
   37HOH     H1  316   1.523   1.953   3.389
   37HOH     H2  317   1.575   1.876   3.270
   38HOH      O  318   1.745   0.139   1.895
   38HOH     H1  319   1.684   0.147   1.968
   38HOH     H2  320   1.727   0.215   1.839
   39HOH      O  321   1.196   0.268   0.059
   39HOH     H1  322   1.222   0.185   0.098
   39HOH     H2  323   1.235   0.267  -0.029
   40HOH      O  324   1.452   3.909   2.529
   40HOH     H1  325   1.427   3.994   2.565
   40HOH     H2  326   1.464   3.925   2.435
   41HOH      O  327   3.676   3.172   0.645
   41HOH     H1  328   3.646   3.258   0.677
   41HOH     H2  329   3.765   3.165   0.679
   42HOH      O  330   1.949   1.920   1.746
   42HOH     H1  331   2.038   1.931   1.714
   42HOH     H2  332   1.900   1.887   1.671
   43HOH      O  333   0.509   2.962   3.586
   43HOH     H1  334   0.520   3.004   3.672
   43HOH     H2  335   0.473   2.876   3.607
   44HOH      O  336   1.895   1.935   0.631
   44HOH     H1  337   1.863   1.947   0.541
   44HOH     H2  338   1.973   1.990   0.637
   45HOH      O  339   2.517   0.717   1.982
   45HOH     H1  340   2.579   0.730   1.910
   45HOH     H2  341   2.480   0.804   1.998
   46HOH      O  342   1.767   2.295   1.033
   46HOH     H1  343   1.834   2.283   0.966
   46HOH     H2  344   1.817   2.316   1.112
   47HOH      O  345   1.373   1.528   2.821
   47HOH     H1  346   1.332   1.603   2.863
   47HOH     H2  347   1.428   1.566   2.753
   48HOH      O  348   2.012   3.707   3.747
   48HOH     H1  349   2.087   3.699   3.807
   48HOH     H2  350   1.994   3.617   3.720
   49HOH      O  351   3.625   0.927   3.712
   49HOH     H1  352   3.631   0.854   3.651
   49HOH     H2  353   3.638   1.005   3.657
   50HOH      O  354   0.022   1.255   1.552
   50HOH     H1  355  -0.019   1.173   1.579
   50HOH     H2  356   0.113   1.248   1.582
   51HOH      O  357   0.111   2.737   0.707
   51HOH     H1  358   0.189   2.691   0.675
   51HOH     H2  359   0.113   2.724   0.802
   52HOH      O  360   1.346   3.564   0.719
   52HOH     H1  361   1.304   3.620   0.784
   52HOH     H2  362   1.429   3.537   0.759
   53HOH      O  363   2.783   0.996   1.538
   53HOH     H1  364   2.795   1.090   1.522
   53HOH     H2  365   2.870   0.966   1.563
   54HOH      O  366   2.700   1.726   0.575
   54HOH     H1  367   2.681   1.768   0.659
   54HOH     H2  368   2.748   1.647   0.599
   55HOH      O  369   3.474   2.841   2.436
   55HOH     H1  370   3.492   2.873   2.348
   55HOH     H2  371   3.551   2.868   2.487
   56HOH      O  372   3.536   0.688   0.495
   56HOH     H1  373   3.549   0.725   0.583
   56HOH     H2  374   3.603   0.731   0.441
   57HOH      O  375   3.709   2.468   2.890
   57HOH     H1  376   3.746   2.438   2.973
   57HOH     H2  377   3.713   2.563   2.895
   58HOH      O  378   3.057   2.994   2.793
   58HOH     H1  379   3.115   3.024   2.723
   58HOH     H2  380   3.008   3.073   2.818
   59HOH      O  381   0.135   1.002   1.949
   59HOH     H1  382   0.047   0.963   1.959
   59HOH     H2  383   0.118   1.095   1.933
   60HOH      O  384   1.411   0.131   2.576
   60HOH     H1  385   1.456   0.215   2.579
   60HOH     H2  386   1.351   0.138   2.501
   61HOH      O  387   2.990   3.611   1.033
   61HOH     H1  388   3.027   3.580   0.951
   61HOH     H2  389   3.036   3.561   1.101
   62HOH      O  390   1.788   2.816   2.359
   62HOH     H1  391   1.779   2.762   2.281
   62HOH     H2  392   1.698   2.843   2.379
   63HOH      O  393   1.662   2.908   1.667
   63HOH     H1  394   1.669   2.834   1.728
   63HOH     H2  395   1.576   2.896   1.625
   64HOH      O  396   3.590   0.546   3.908
   64HOH     H1  397   3.548   0.591   3.982
   64HOH     H2  398   3.579   0.606   3.834
   65HOH      O  399   1.520   2.825   2.431
   65HOH     H1  400   1.466   2.863   2.362
   65HOH     H2  401   1.462   2.763   2.476
   66HOH      O  402   3.514   3.843   3.951
   66HOH     H1  403   3.480   3.772   4.006
   66HOH     H2  404   3.590   3.876   3.999
   67HOH      O  405   2.662   1.583   1.930
   67HOH     H1  406   2.586   1.526   1.939
   67HOH     H2  407   2.689   1.600   2.020
   68HOH      O  408   2.933   0.794   2.104
   68HOH     H1  409   2.859   0.840   2.143
   68HOH     H2  410   3.001   0.860   2.096
   69HOH      O  411   2.075   3.136   2.951
   69HOH     H1  412   2.045   3.110   2.864
   69HOH     H2  413   2.118   3.220   2.937
   70HOH      O  414   3.482   1.705   1.098
   70HOH     H1  415   3.389   1.710   1.120
   70HOH     H2  416   3.525   1.680   1.180
   71HOH      O  417   3.856   3.724   1.695
   71HOH     H1  418   3.922   3.792   1.689
   71HOH     H2  419   3.775   3.765   1.664
   72HOH      O  420   0.756   1.556   3.640
   72HOH     H1  421   0.752   1.509   3.557
   72HOH     H2  422   0.786   1.491   3.703
   73HOH      O  423   3.070   2.020   3.964
   73HOH     H1  424   3.160   2.050   3.977
   73HOH     H2  425   3.067   1.933   4.003
   74HOH      O  426   2.452   1.114   0.679
   74HOH     H1  427   2.406   1.192   0.710
   74HOH     H2  428   2.418   1.042   0.732
   75HOH      O  429   3.830   2.613   3.965
   75HOH     H1  430   3.898   2.571   3.911
   75HOH     H2  431   3.879   2.666   4.028
   76HOH      O  432   3.134   1.510   2.511
   76HOH     H1  433   3.154   1.581   2.572
   76HOH     H2  434   3.072   1.548   2.449
   77HOH      O  435   3.978   3.412   2.709
   77HOH     H1  436   3.900   3.410   2.764
   77HOH     H2  437   3.949   3.454   2.628
   78HOH      O  438   3.474   1.986   3.503
   78HOH     H1  439   3.393   1.996   3.453
   78HOH     H2  440   3.447   1.940   3.583
   79HOH      O  441   3.139   2.799   3.217
   79HOH     H1  442   3.109   2.877   3.170
   79HOH     H2  443   3.059   2.763   3.256
   80HOH      O  444   1.388   0.390   3.848
   80HOH     H1  445   1.413   0.303   3.815
   80HOH     H2  446   1.467   0.422   3.892
   81HOH      O  447   3.794   3.460   1.572
   81HOH     H1  448   3.705   3.470   1.608
   81HOH     H2  449   3.846   3.525   1.619
   82HOH      O  450   1.003   2.726   2.901
   82HOH     H1  451   1.040   2.813   2.887
   82HOH     H2  452   1.044   2.695   2.982
   83HOH      O  453   1.520   1.772   3.940
   83HOH     H1  454   1.473   1.790   4.021
   83HOH     H2  455   1.504   1.679   3.923
   84HOH      O  456   0.292   3.391   3.684
   84HOH     H1  457   0.309   3.412   3.592
   84HOH     H2  458   0.262   3.300   3.684
   85HOH      O  459   1.220   2.863   1.719
   85HOH     H1  460   1.230   2.945   1.672
   85HOH     H2  461   1.179   2.803   1.657
   86HOH      O  462   2.425   0.985   1.979
   86HOH     H1  463   2.364   1.057   1.991
   86HOH     H2  464   2.498   1.006   2.038
   87HOH      O  465   3.226   2.414   3.641
   87HOH     H1  466   3.296   2.370   3.690
   87HOH     H2  467   3.151   2.355   3.646
   88HOH      O  468   1.737   0.901   1.451
   88HOH     H1  469   1.742   0.959   1.375
   88HOH     H2  470   1.707   0.817   1.415
   89HOH      O  471   1.949   1.916   1.236
   89HOH     H1  472   1.855   1.914   1.219
   89HOH     H2  473   1.989   1.935   1.152
   90HOH      O  474   3.181   2.488   0.966
   90HOH     H1  475   3.116   2.546   0.928
   90HOH     H2  476   3.264   2.515   0.927
   91HOH      O  477   3.812   0.497   0.193
   91HOH     H1  478   3.882   0.439   0.164
   91HOH     H2  479   3.735   0.440   0.198
   92HOH      O  480   1.466   2.227   0.028
   92HOH     H1  481   1.449   2.150  -0.027
   92HOH     H2  482   1.454   2.196   0.117
   93HOH      O  483   1.202   1.760   2.770
   93HOH     H1  484   1.239   1.833   2.720
   93HOH     H2  485   1.142   1.802   2.831
   94HOH      O  486   2.781  -0.000   1.608
   94HOH     H1  487   2.804   0.057   1.681
   94HOH     H2  488   2.833   0.032   1.535
   95HOH      O  489   0.368   0.150   1.457
   95HOH     H1  490   0.309   0.225   1.461
   95HOH     H2  491   0.324   0.082   1.509
   96HOH      O  492   3.702   0.641   0.920
   96HOH     H1  493   3.795   0.661   0.909
   96HOH     H2  494   3.698   0.591   1.002
   97HOH      O  495   1.896   1.400   0.439
   97HOH     H1  496   1.832   1.471   0.445
   97HOH     H2  497   1.845   1.324   0.412
   98HOH      O  498   2.918  -0.017   0.193
   98HOH     H1  499   2.862   0.059   0.209
   98HOH     H2  500   2.977  -0.020   0.268
   99HOH      O  501   1.880   0.177   0.708
   99HOH     H1  502   1.815   0.110   0.687
   99HOH     H2  503   1.843   0.258   0.672
  100HOH      O  504   0.621   0.326   3.196
  100HOH     H1  505   0.714   0.308   3.202
  100HOH     H2  506   0.605   0.396   3.259
  101HOH      O  507   0.770   2.034   1.268
  101HOH     H1  508   0.785   1.940   1.261
  101HOH     H2  509   0.764   2.050   1.363
  102HOH      O  510   1.674   1.867   0.810
  102HOH     H1  511   1.703   1.871   0.718
  102HOH     H2  512   1.753   1.845   0.859
  103HOH      O  513   2.913   3.452   0.259
  103HOH     H1  514   2.973   3.388   0.296
  103HOH     H2  515   2.917   3.438   0.165
  104HOH      O  516   0.026   3.522   1.699
  104HOH     H1  517   0.108   3.563   1.671
  104HOH     H2  518  -0.022   3.592   1.743
  105HOH      O  519   2.871   0.526   2.032
  105HOH     H1  520   2.871   0.618   2.057
  105HOH     H2  521   2.804   0.486   2.087
  106HOH      O  522   0.168   0.915   0.649
  106HOH     H1  523   0.255   0.879   0.665
  106HOH     H2  524   0.157   0.983   0.716
  107HOH      O  525   1.360   3.497   2.826
  107HOH     H1  526   1.434   3.553   2.802
  107HOH     H2  527   1.283   3.553   2.818
  108HOH      O  528   1.248   0.249   2.096
  108HOH     H1  529   1.199   0.252   2.178
  108HOH     H2  530   1.229   0.162   2.060
  109HOH      O  531   1.454   3.285   1.914
  109HOH     H1  532   1.361   3.272   1.929
  109HOH     H2  533   1.460   3.313   1.823
  110HOH      O  534   1.913   3.571   1.454
  110HOH     H1  535   1.945   3.658   1.478
  110HOH     H2  536   1.928   3.517   1.531
  111HOH      O  537   3.987   0.747   0.612
  111HOH     H1  538   4.021   0.693   0.540
  111HOH     H2  539   4.063   0.793   0.646
  112HOH      O  540   1.120   4.069   2.018
  112HOH     H1  541   1.065   3.992   2.033
  112HOH     H2  542   1.180   4.043   1.949
  113HOH      O  543   1.763   3.528   3.815
  113HOH     H1  544   1.780   3.607   3.865
  113HOH     H2  545   1.735   3.464   3.880
  114HOH      O  546   0.239   3.250   2.998
  114HOH     H1  547   0.240   3.162   2.961
  114HOH     H2  548   0.149   3.262   3.029
  115HOH      O  549   1.575   1.366   0.344
  115HOH     H1  550   1.541   1.278   0.332
  115HOH     H2  551   1.561   1.385   0.437
  116HOH      O  552   3.645   3.989   1.634
  116HOH     H1  553   3.643   3.949   1.720
  116HOH     H2  554   3.633   4.082   1.650
  117HOH      O  555   3.961   2.232   2.127
  117HOH     H1  556   3.986   2.305   2.182
  117HOH     H2  557   3.870   2.249   2.104
  118HOH      O  558   2.061   2.968   1.669
  118HOH     H1  559   2.131   2.929   1.721
  118HOH     H2  560   2.022   3.034   1.726
  119HOH      O  561   3.289   2.381   2.521
  119HOH     H1  562   3.314   2.468   2.551
  119HOH     H2  563   3.358   2.324   2.555
  120HOH      O  564   1.858   2.131   3.719
  120HOH     H1  565   1.865   2.082   3.637
  120HOH     H2  566   1.787   2.089   3.766
  121HOH      O  567   2.860   3.059   3.595
  121HOH     H1  568   2.768   3.035   3.605
  121HOH     H2  569   2.867   3.096   3.507
  122HOH      O  570   0.870   2.968   1.926
  122HOH     H1  571   0.870   3.063   1.939
  122HOH     H2  572   0.955   2.939   1.959
  123HOH      O  573   2.464   2.666   3.610
  123HOH     H1  574   2.543   2.636   3.565
  123HOH     H2  575   2.428   2.588   3.651
  124HOH      O  576   1.718   1.274   0.763
  124HOH     H1  577   1.643   1.298   0.708
  124HOH     H2  578   1.790   1.261   0.701
  125HOH      O  579   3.277   2.093   2.583
  125HOH     H1  580   3.239   2.024   2.528
  125HOH     H2  581   3.203   2.126   2.633
  126HOH      O  582   3.702   1.261   2.867
  126HOH     H1  583   3.757   1.196   2.910
  126HOH     H2  584   3.764   1.323   2.828
  127HOH      O  585   1.393   0.907   1.791
  127HOH     H1  586   1.482   0.890   1.760
  127HOH     H2  587   1.385   0.854   1.870
  128HOH      O  588   2.130   2.014   2.389
  128HOH     H1  589   2.218   1.977   2.385
  128HOH     H2  590   2.136   2.086   2.451
  129HOH      O  591   0.841   3.321   2.830
  129HOH     H1  592   0.907   3.341   2.897
  129HOH     H2  593   0.891   3.290   2.755
  130HOH      O  594   1.688   0.037   3.827
  130HOH     H1  595   1.679   0.120   3.780
  130HOH     H2  596   1.757  -0.009   3.779
  131HOH      O  597   0.151   3.120   0.809
  131HOH     H1  598   0.221   3.068   0.770
  131HOH     H2  599   0.183   3.143   0.896
  132HOH      O  600   2.132   3.611   2.012
  132HOH     H1  601   2.131   3.703   2.037
  132HOH     H2  602   2.172   3.611   1.925
  133HOH      O  603   3.927   2.821   3.482
  133HOH     H1  604   3.879   2.821   3.399
  133HOH     H2  605   3.940   2.729   3.503
  134HOH      O  606   3.649   2.795   1.220
  134HOH     H1  607   3.563   2.812   1.180
  134HOH     H2  608   3.660   2.700   1.213
  135HOH      O  609   0.828   0.562   3.001
  135HOH     H1  610   0.803   0.583   3.091
  135HOH     H2  611   0.832   0.647   2.957
  136HOH      O  612   2.380   1.998   0.892
  136HOH     H1  613   2.404   1.985   0.984
  136HOH     H2  614   2.320   2.073   0.893
  137HOH      O  615   0.128   2.370   1.233
  137HOH     H1  616   0.186   2.385   1.158
  137HOH     H2  617   0.185   2.379   1.309
  138HOH      O  618   3.734   2.383   1.338
  138HOH     H1  619   3.658   2.370   1.395
  138HOH     H2  620   3.805   2.404   1.398
  139HOH      O  621   1.310   2.842   0.360
  139HOH     H1  622   1.369   2.872   0.430
  139HOH     H2  623   1.334   2.895   0.285
  140HOH      O  624   0.662   3.552   3.897
  140HOH     H1  625   0.621   3.466   3.886
  140HOH     H2  626   0.659   3.568   3.992
  141HOH      O  627   0.448   1.202   2.151
  141HOH     H1  628   0.423   1.174   2.063
  141HOH     H2  629   0.402   1.142   2.209
  142HOH      O  630   1.584   2.407   0.828
  142HOH     H1  631   1.615   2.346   0.895
  142HOH     H2  632   1.527   2.354   0.772
  143HOH      O  633   0.789   3.683   0.595
  143HOH     H1  634   0.711   3.728   0.560
  143HOH     H2  635   0.814   3.736   0.671
  144HOH      O  636   3.584   2.496   0.669
  144HOH     H1  637   3.498   2.463   0.693
  144HOH     H2  638   3.591   2.581   0.712
  145HOH      O  639   0.100   1.387   3.008
  145HOH     H1  640   0.165   1.319   3.019
  145HOH     H2  641   0.016   1.342   3.018
  146HOH      O  642   1.002   1.124   2.607
  146HOH     H1  643   0.983   1.217   2.619
  146HOH     H2  644   0.979   1.084   2.692
  147HOH      O  645   2.209   3.590   1.715
  147HOH     H1  646   2.252   3.674   1.732
  147HOH     H2  647   2.155   3.606   1.637
  148HOH      O  648   0.445   1.516   3.370
  148HOH     H1  649   0.373   1.520   3.307
  148HOH     H2  650   0.521   1.486   3.319
  149HOH      O  651   2.190   1.527   0.118
  149HOH     H1  652   2.200   1.437   0.148
  149HOH     H2  653   2.095   1.542   0.119
  150HOH      O  654   1.453   3.880   3.707
  150HOH     H1  655   1.467   3.829   3.787
  150HOH     H2  656   1.392   3.829   3.655
  151HOH      O  657   0.961   0.691   3.985
  151HOH     H1  658   1.055   0.709   3.973
  151HOH     H2  659   0.948   0.699   4.080
  152HOH      O  660   3.928   4.041   0.794
  152HOH     H1  661   3.886   3.966   0.753
  152HOH     H2  662   4.019   4.037   0.766
  153HOH      O  663   2.218   1.077   0.834
  153HOH     H1  664   2.253   1.164   0.819
  153HOH     H2  665   2.135   1.091   0.879
  154HOH      O  666   3.021   3.541   0.532
  154HOH     H1  667   3.060   3.627   0.545
  154HOH     H2  668   2.958   3.553   0.461
  155HOH      O  669   2.746   0.393   3.630
  155HOH     H1  670   2.764   0.486   3.616
  155HOH     H2  671   2.741   0.356   3.542
  156HOH      O  672   0.374   2.662   3.756
  156HOH     H1  673   0.464   2.681   3.729
  156HOH     H2  674   0.336   2.616   3.681
  157HOH      O  675   3.021   0.584   0.191
  157HOH     H1  676   3.029   0.508   0.249
  157HOH     H2  677   2.978   0.651   0.244
  158HOH      O  678   2.496   3.172   2.874
  158HOH     H1  679   2.473   3.081   2.852
  158HOH     H2  680   2.524   3.210   2.791
  159HOH      O  681   2.140   0.832   1.664
  159HOH     H1  682   2.062   0.875   1.697
  159HOH     H2  683   2.115   0.739   1.657
  160HOH      O  684   2.968   3.032   1.354
  160HOH     H1  685   2.999   2.999   1.269
  160HOH     H2  686   3.032   3.099   1.378
  161HOH      O  687   0.956   0.392   4.006
  161HOH     H1  688   1.009   0.328   4.053
  161HOH     H2  689   0.973   0.475   4.051
  162HOH      O  690   0.724   1.861   3.610
  162HOH     H1  691   0.696   1.843   3.520
  162HOH     H2  692   0.775   1.784   3.635
  163HOH      O  693   1.215   3.564   1.383
  163HOH     H1  694   1.293   3.528   1.340
  163HOH     H2  695   1.249   3.638   1.434
  164HOH      O  696   3.143   2.994   2.178
  164HOH     H1  697   3.103   2.953   2.101
  164HOH     H2  698   3.090   2.963   2.252
  165HOH      O  699   1.084   3.222   0.881
  165HOH     H1  700   1.152   3.274   0.837
  165HOH     H2  701   1.002   3.267   0.860
  166HOH      O  702   1.382   1.261   2.827
  166HOH     H1  703   1.384   1.354   2.805
  166HOH     H2  704   1.319   1.254   2.900
  167HOH      O  705  -0.007   0.373   0.091
  167HOH     H1  706  -0.020   0.388  -0.003
  167HOH     H2  707   0.059   0.303   0.095
  168HOH      O  708   2.998   0.897   0.056
  168HOH     H1  709   2.980   0.857   0.141
  168HOH     H2  710   3.092   0.890   0.045
  169HOH      O  711   0.197   2.903   3.568
  169HOH     H1  712   0.161   2.892   3.480
  169HOH     H2  713   0.174   2.821   3.612
  170HOH      O  714   1.959   0.225   1.292
  170HOH     H1  715   1.869   0.199   1.270
  170HOH     H2  716   1.962   0.224   1.388
  171HOH      O  717   3.757   2.043   3.564
  171HOH     H1  718   3.662   2.044   3.564
  171HOH     H2  719   3.782   2.128   3.600
  172HOH      O  720   3.615   2.102   2.297
  172HOH     H1  721   3.637   2.170   2.233
  172HOH     H2  722   3.627   2.144   2.382
  173HOH      O  723   0.800   2.705   1.047
  173HOH     H1  724   0.893   2.727   1.042
  173HOH     H2  725   0.772   2.693   0.956
  174HOH      O  726   0.709   1.508   1.768
  174HOH     H1  727   0.795   1.501   1.726
  174HOH     H2  728   0.715   1.449   1.843
  175HOH      O  729   4.021   2.677   3.053
  175HOH     H1  730   3.929   2.700   3.066
  175HOH     H2  731   4.052   2.656   3.141
  176HOH      O  732   2.141   0.820   0.241
  176HOH     H1  733   2.213   0.804   0.301
  176HOH     H2  734   2.178   0.802   0.154
  177HOH      O  735   1.146   2.099   3.700
  177HOH     H1  736   1.073   2.113   3.761
  177HOH     H2  737   1.222   2.086   3.757
  178HOH      O  738   1.609   2.218   3.420
  178HOH     H1  739   1.638   2.133   3.385
  178HOH     H2  740   1.533   2.196   3.474
  179HOH      O  741   0.686   4.046   2.804
  179HOH     H1  742   0.733   4.023   2.724
  179HOH     H2  743   0.619   3.978   2.812
  180HOH      O  744   2.589   2.114   3.282
  180HOH     H1  745   2.510   2.123   3.229
  180HOH     H2  746   2.565   2.150   3.368
  181HOH      O  747   3.613   1.330   0.278
  181HOH     H1  748   3.696   1.376   0.291
  181HOH     H2  749   3.626   1.244   0.318
  182HOH      O  750   1.067   2.964   1.397
  182HOH     H1  751   1.012   2.893   1.366
  182HOH     H2  752   1.071   3.026   1.324
  183HOH      O  753   2.707   1.837   1.800
  183HOH     H1  754   2.685   1.753   1.842
  183HOH     H2  755   2.780   1.871   1.853
  184HOH      O  756   2.458   0.511   3.067
  184HOH     H1  757   2.421   0.466   2.991
  184HOH     H2  758   2.398   0.490   3.139
  185HOH      O  759   1.903   1.394   3.780
  185HOH     H1  760   1.906   1.358   3.869
  185HOH     H2  761   1.975   1.458   3.778
  186HOH      O  762   2.333   2.782   0.373
  186HOH     H1  763   2.363   2.698   0.337
  186HOH     H2  764   2.264   2.810   0.313
  187HOH      O  765   1.985   0.767   2.175
  187HOH     H1  766   1.939   0.703   2.230
  187HOH     H2  767   2.078   0.749   2.190
  188HOH      O  768   0.398   3.300   3.215
  188HOH     H1  769   0.344   3.273   3.141
  188HOH     H2  770   0.400   3.223   3.272
  189HOH      O  771   2.581   2.918   3.206
  189HOH     H1  772   2.582   2.855   3.133
  189HOH     H2  773   2.529   2.992   3.172
  190HOH      O  774   2.849   0.707   3.038
  190HOH     H1  775   2.919   0.683   2.978
  190HOH     H2  776   2.806   0.624   3.058
  191HOH      O  777   1.732   1.130   2.322
  191HOH     H1  778   1.815   1.177   2.329
  191HOH     H2  779   1.744   1.070   2.248
  192HOH      O  780   1.357   0.852   3.601
  192HOH     H1  781   1.358   0.763   3.637
  192HOH     H2  782   1.402   0.845   3.517
  193HOH      O  783   1.120   3.720   1.903
  193HOH     H1  784   1.198   3.752   1.857
  193HOH     H2  785   1.057   3.791   1.894
  194HOH      O  786   2.220   1.728   1.010
  194HOH     H1  787   2.230   1.823   1.006
  194HOH     H2  788   2.284   1.695   0.947
  195HOH      O  789   0.181   0.805   2.740
  195HOH     H1  790   0.204   0.737   2.677
  195HOH     H2  791   0.261   0.857   2.750
  196HOH      O  792   1.946   1.014   0.192
  196HOH     H1  793   2.007   0.942   0.209
  196HOH     H2  794   1.982   1.060   0.116
  197HOH      O  795   0.297   0.902   2.243
  197HOH     H1  796   0.297   0.814   2.208
  197HOH     H2  797   0.204   0.923   2.257
  198HOH      O  798   1.256   4.011   3.446
  198HOH     H1  799   1.202   4.046   3.517
  198HOH     H2  800   1.253   3.916   3.458
  199HOH      O  801   2.866   3.288   0.638
  199HOH     H1  802   2.849   3.380   0.618
  199HOH     H2  803   2.866   3.245   0.552
  200HOH      O  804   0.692   1.168   2.332
  200HOH     H1  805   0.620   1.178   2.269
  200HOH     H2  806   0.767   1.141   2.279
  201HOH      O  807   3.942   1.445   3.246
  201HOH     H1  808   3.877   1.429   3.177
  201HOH     H2  809   3.936   1.538   3.263
  202HOH      O  810   1.246   1.516   3.313
  202HOH     H1  811   1.248   1.503   3.408
  202HOH     H2  812   1.308   1.453   3.279
  203HOH      O  813   3.517   1.615   1.415
  203HOH     H1  814   3.565   1.634   1.496
  203HOH     H2  815   3.541   1.526   1.393
  204HOH      O  816   0.962   0.298   0.634
  204HOH     H1  817   0.946   0.386   0.668
  204HOH     H2  818   0.905   0.291   0.557
  205HOH      O  819   2.808   0.168   1.835
  205HOH     H1  820   2.844   0.254   1.815
  205HOH     H2  821   2.728   0.186   1.885
  206HOH      O  822   0.169   0.463   3.574
  206HOH     H1  823   0.178   0.551   3.611
  206HOH     H2  824   0.140   0.409   3.647
  207HOH      O  825   2.497   0.763   2.969
  207HOH     H1  826   2.507   0.673   3.001
  207HOH     H2  827   2.482   0.753   2.875
  208HOH      O  828   3.516   2.777   2.022
  208HOH     H1  829   3.493   2.864   2.055
  208HOH     H2  830   3.445   2.756   1.960
  209HOH      O  831   0.313   1.359   3.584
  209HOH     H1  832   0.231   1.401   3.555
  209HOH     H2  833   0.380   1.398   3.528
  210HOH      O  834   3.175   0.493   3.776
  210HOH     H1  835   3.180   0.500   3.681
  210HOH     H2  836   3.081   0.492   3.795
  211HOH      O  837   0.207   3.471   2.818
  211HOH     H1  838   0.212   3.419   2.898
  211HOH     H2  839   0.115   3.467   2.792
  212HOH      O  840   1.062   2.461   1.185
  212HOH     H1  841   1.096   2.519   1.252
  212HOH     H2  842   1.121   2.386   1.185
  213HOH      O  843   0.236   1.487   3.841
  213HOH     H1  844   0.239   1.429   3.766
  213HOH     H2  845   0.241   1.429   3.917
  214HOH      O  846   1.345   3.242   0.273
  214HOH     H1  847   1.416   3.272   0.216
  214HOH     H2  848   1.388   3.184   0.335
  215HOH      O  849   3.303   2.399   1.494
  215HOH     H1  850   3.308   2.372   1.402
  215HOH     H2  851   3.390   2.382   1.529
  216HOH      O  852   3.094   3.604   3.804
  216HOH     H1  853   3.112   3.697   3.792
  216HOH     H2  854   3.174   3.569   3.845
  217HOH      O  855   3.706   0.370   1.193
  217HOH     H1  856   3.704   0.366   1.288
  217HOH     H2  857   3.779   0.314   1.168
  218HOH      O  858   3.917   0.625   2.171
  218HOH     H1  859   4.003   0.588   2.154
  218HOH     H2  860   3.903   0.609   2.265
  219HOH      O  861   2.136   2.990   3.390
  219HOH     H1  862   2.097   2.955   3.310
  219HOH     H2  863   2.190   2.917   3.423
  220HOH      O  864   3.662   2.391   2.446
  220HOH     H1  865   3.623   2.454   2.385
  220HOH     H2  866   3.750   2.426   2.461
  221HOH      O  867   3.116   0.780   3.528
  221HOH     H1  868   3.143   0.869   3.550
  221HOH     H2  869   3.116   0.733   3.611
  222HOH      O  870   3.334   1.817   2.825
  222HOH     H1  871   3.359   1.794   2.735
  222HOH     H2  872   3.367   1.905   2.837
  223HOH      O  873   2.310   1.213   2.098
  223HOH     H1  874   2.259   1.290   2.118
  223HOH     H2  875   2.324   1.170   2.183
  224HOH      O  876   1.426   1.845   2.516
  224HOH     H1  877   1.463   1.780   2.577
  224HOH     H2  878   1.489   1.848   2.444
  225HOH      O  879   1.353   3.058   2.729
  225HOH     H1  880   1.408   3.060   2.651
  225HOH     H2  881   1.393   2.993   2.786
  226HOH      O  882   1.149   1.744  -0.019
  226HOH     H1  883   1.065   1.747   0.026
  226HOH     H2  884   1.212   1.775   0.046
  227HOH      O  885   1.854   3.830   3.428
  227HOH     H1  886   1.884   3.739   3.419
  227HOH     H2  887   1.759   3.822   3.437
  228HOH      O  888   3.758   0.018   3.677
  228HOH     H1  889   3.664   0.009   3.659
  228HOH     H2  890   3.796   0.042   3.593
  229HOH      O  891   0.650   2.422   0.663
  229HOH     H1  892   0.689   2.354   0.717
  229HOH     H2  893   0.591   2.375   0.604
  230HOH      O  894   1.574   1.047   2.532
  230HOH     H1  895   1.485   1.061   2.498
  230HOH     H2  896   1.632   1.081   2.464
  231HOH      O  897   1.165   1.218   3.874
  231HOH     H1  898   1.198   1.295   3.920
  231HOH     H2  899   1.116   1.254   3.800
  232HOH      O  900   0.132   3.337   1.908
  232HOH     H1  901   0.208   3.396   1.910
  232HOH     H2  902   0.098   3.344   1.819
  233HOH      O  903   3.523   2.996   3.447
  233HOH     H1  904   3.462   2.994   3.521
  233HOH     H2  905   3.495   3.071   3.395
  234HOH      O  906   1.566   2.854   0.110
  234HOH     H1  907   1.471   2.865   0.101
  234HOH     H2  908   1.603   2.932   0.070
  235HOH      O  909   1.414   3.598   1.176
  235HOH     H1  910   1.493   3.607   1.229
  235HOH     H2  911   1.396   3.687   1.144
  236HOH      O  912   3.081   2.964   1.738
  236HOH     H1  913   3.145   2.929   1.677
  236HOH     H2  914   3.041   3.037   1.692
  237HOH      O  915   2.043   0.860   3.329
  237HOH     H1  916   2.121   0.868   3.275
  237HOH     H2  917   1.993   0.789   3.288
  238HOH      O  918   0.555   2.556   4.027
  238HOH     H1  919   0.546   2.648   4.000
  238HOH     H2  920   0.471   2.534   4.065
  239HOH      O  921   3.554   2.544   1.706
  239HOH     H1  922   3.610   2.595   1.765
  239HOH     H2  923   3.519   2.608   1.645
  240HOH      O  924   0.190   2.944   0.092
  240HOH     H1  925   0.130   2.896   0.150
  240HOH     H2  926   0.235   2.876   0.042
  241HOH      O  927   0.049   1.585   2.799
  241HOH     H1  928   0.089   1.540   2.873
  241HOH     H2  929   0.003   1.660   2.838
  242HOH      O  930   2.089   2.219   1.429
  242HOH     H1  931   2.145   2.146   1.405
  242HOH     H2  932   2.092   2.277   1.353
  243HOH      O  933   1.618   1.628   1.154
  243HOH     H1  934   1.555   1.612   1.083
  243HOH     H2  935   1.671   1.548   1.157
  244HOH      O  936   3.740   1.440   0.792
  244HOH     H1  937   3.737   1.450   0.697
  244HOH     H2  938   3.796   1.363   0.806
  245HOH      O  939   3.139   2.610   0.208
  245HOH     H1  940   3.143   2.658   0.291
  245HOH     H2  941   3.205   2.542   0.216
  246HOH      O  942   1.060   3.158   3.371
  246HOH     H1  943   0.979   3.171   3.421
  246HOH     H2  944   1.072   3.063   3.370
  247HOH      O  945   3.891   1.092   1.368
  247HOH     H1  946   3.944   1.171   1.378
  247HOH     H2  947   3.820   1.103   1.431
  248HOH      O  948   0.388   1.237   2.693
  248HOH     H1  949   0.470   1.282   2.674
  248HOH     H2  950   0.389   1.160   2.636
  249HOH      O  951   0.308   1.239   1.072
  249HOH     H1  952   0.247   1.313   1.070
  249HOH     H2  953   0.392   1.277   1.098
  250HOH      O  954   0.942   0.455   1.958
  250HOH     H1  955   0.999   0.479   2.031
  250HOH     H2  956   0.994   0.475   1.879
  251HOH      O  957   1.219   0.368   1.549
  251HOH     H1  958   1.298   0.316   1.530
  251HOH     H2  959   1.185   0.332   1.630
  252HOH      O  960   0.855   3.121   3.111
  252HOH     H1  961   0.769   3.082   3.122
  252HOH     H2  962   0.846   3.210   3.145
  253HOH      O  963   0.557   0.681   0.059
  253HOH     H1  964   0.571   0.589   0.039
  253HOH     H2  965   0.567   0.687   0.154
  254HOH      O  966   2.305   0.375   3.276
  254HOH     H1  967   2.266   0.290   3.256
  254HOH     H2  968   2.232   0.429   3.304
  255HOH      O  969   2.397   2.346   1.302
  255HOH     H1  970   2.470   2.369   1.244
  255HOH     H2  971   2.437   2.300   1.375
  256HOH      O  972   3.604   3.471   3.851
  256HOH     H1  973   3.646   3.386   3.863
  256HOH     H2  974   3.675   3.530   3.828
  257HOH      O  975   0.367   2.877   2.457
  257HOH     H1  976   0.400   2.794   2.422
  257HOH     H2  977   0.439   2.938   2.444
  258HOH      O  978   0.321   0.746   1.265
  258HOH     H1  979   0.415   0.730   1.260
  258HOH     H2  980   0.312   0.841   1.258
  259HOH      O  981   2.494   2.741   1.495
  259HOH     H1  982   2.470   2.834   1.498
  259HOH     H2  983   2.424   2.700   1.445
  260HOH      O  984   1.956   3.118   3.557
  260HOH     H1  985   1.954   3.104   3.463
  260HOH     H2  986   1.992   3.037   3.594
  261HOH      O  987   2.769   2.645   3.106
  261HOH     H1  988   2.777   2.671   3.014
  261HOH     H2  989   2.687   2.597   3.110
  262HOH      O  990   2.090   1.742   0.568
  262HOH     H1  991   2.074   1.667   0.626
  262HOH     H2  992   2.029   1.809   0.598
  263HOH      O  993   1.453   0.771   3.036
  263HOH     H1  994   1.412   0.778   3.122
  263HOH     H2  995   1.466   0.862   3.009
  264HOH      O  996   1.450   2.471   1.409
  264HOH     H1  997   1.543   2.463   1.389
  264HOH     H2  998   1.442   2.434   1.497
  265HOH      O  999   2.971   3.227   2.556
  265HOH     H1 1000   3.019   3.266   2.630
  265HOH     H2 1001   2.988   3.133   2.563
  266HOH      O 1002   1.037   1.849   0.441
  266HOH     H1 1003   0.949   1.870   0.411
  266HOH     H2 1004   1.023   1.788   0.514
  267HOH      O 1005   2.785   3.082   2.952
  267HOH     H1 1006   2.821   3.164   2.918
  267HOH     H2 1007   2.691   3.097   2.958
  268HOH      O 1008   2.806   0.794   3.933
  268HOH     H1 1009   2.881   0.816   3.988
  268HOH     H2 1010   2.811   0.699   3.922
  269HOH      O 1011   0.200   2.713   1.200
  269HOH     H1 1012   0.155   2.666   1.270
  269HOH     H2 1013   0.279   2.747   1.241
  270HOH      O 1014   1.252   4.003   3.151
  270HOH     H1 1015   1.263   4.019   3.245
  270HOH     H2 1016   1.275   4.086   3.110
  271HOH      O 1017   0.472   0.695   3.306
  271HOH     H1 1018   0.413   0.752   3.256
  271HOH     H2 1019   0.479   0.737   3.392
  272HOH      O 1020   0.925   2.135   0.627
  272HOH     H1 1021   0.960   2.222   0.648
  272HOH     H2 1022   0.973   2.075   0.684
  273HOH      O 1023   3.971   0.660   0.889
  273HOH     H1 1024   3.990   0.672   0.796
  273HOH     H2 1025   4.005   0.573   0.909
  274HOH      O 1026   2.267   2.495   1.510
  274HOH     H1 1027   2.188   2.513   1.459
  274HOH     H2 1028   2.326   2.451   1.448
  275HOH      O 1029   3.037   1.645   2.912
  275HOH     H1 1030   2.993   1.672   2.992
  275HOH     H2 1031   3.056   1.552   2.924
  276HOH      O 1032   2.231   3.316   3.927
  276HOH     H1 1033   2.286   3.272   3.991
  276HOH     H2 1034   2.292   3.352   3.863
  277HOH      O 1035   3.261   1.188   0.176
  277HOH     H1 1036   3.250   1.224   0.088
  277HOH     H2 1037   3.334   1.126   0.169
  278HOH      O 1038   0.944   0.588   0.851
  278HOH     H1 1039   0.889   0.538   0.912
  278HOH     H2 1040   0.886   0.607   0.777
  279HOH      O 1041   2.492   3.484   1.921
  279HOH     H1 1042   2.583   3.459   1.935
  279HOH     H2 1043   2.443   3.403   1.934
  280HOH      O 1044   2.346   3.147   3.422
  280HOH     H1 1045   2.280   3.081   3.402
  280HOH     H2 1046   2.316   3.187   3.504
  281HOH      O 1047   2.617   1.894   1.456
  281HOH     H1 1048   2.561   1.829   1.414
  281HOH     H2 1049   2.701   1.851   1.466
  282HOH      O 1050   2.776   0.490   1.017
  282HOH     H1 1051   2.839   0.532   1.077
  282HOH     H2 1052   2.704   0.463   1.074
  283HOH      O 1053   1.027   3.041   3.731
  283HOH     H1 1054   0.970   2.990   3.788
  283HOH     H2 1055   0.978   3.122   3.714
  284HOH      O 1056   1.015   2.771   2.155
  284HOH     H1 1057   1.078   2.722   2.102
  284HOH     H2 1058   0.960   2.704   2.195
  285HOH      O 1059   1.773   3.190   2.093
  285HOH     H1 1060   1.802   3.264   2.146
  285HOH     H2 1061   1.808   3.113   2.137
  286HOH      O 1062   3.896   1.816   0.545
  286HOH     H1 1063   3.956   1.750   0.510
  286HOH     H2 1064   3.876   1.871   0.469
  287HOH      O 1065   0.987   1.393   3.155
  287HOH     H1 1066   0.984   1.473   3.208
  287HOH     H2 1067   0.978   1.423   3.065
  288HOH      O 1068   1.780   1.770   3.647
  288HOH     H1 1069   1.851   1.711   3.675
  288HOH     H2 1070   1.815   1.813   3.569
  289HOH      O 1071   2.565   2.575   1.725
  289HOH     H1 1072   2.475   2.591   1.753
  289HOH     H2 1073   2.576   2.626   1.646
  290HOH      O 1074   1.599   1.868   2.311
  290HOH     H1 1075   1.679   1.921   2.313
  290HOH     H2 1076   1.604   1.820   2.229
  291HOH      O 1077   0.542   1.385   1.179
  291HOH     H1 1078   0.627   1.425   1.159
  291HOH     H2 1079   0.563   1.306   1.227
  292HOH      O 1080   2.708   3.532   1.319
  292HOH     H1 1081   2.733   3.527   1.227
  292HOH     H2 1082   2.752   3.458   1.360
  293HOH      O 1083   2.867   1.925   0.312
  293HOH     H1 1084   2.786   1.948   0.358
  293HOH     H2 1085   2.913   1.866   0.372
  294HOH      O 1086   2.242   2.280   0.976
  294HOH     H1 1087   2.212   2.307   1.063
  294HOH     H2 1088   2.330   2.316   0.969
  295HOH      O 1089   2.942   2.782   3.843
  295HOH     H1 1090   2.932   2.769   3.749
  295HOH     H2 1091   3.022   2.734   3.866
  296HOH      O 1092   1.804   2.650   3.286
  296HOH     H1 1093   1.794   2.612   3.374
  296HOH     H2 1094   1.754   2.592   3.229
  297HOH      O 1095   2.451   1.208   2.901
  297HOH     H1 1096   2.480   1.208   2.993
  297HOH     H2 1097   2.371   1.155   2.901
  298HOH      O 1098   0.557   0.744   3.578
  298HOH     H1 1099   0.613   0.809   3.619
  298HOH     H2 1100   0.514   0.700   3.652
  299HOH      O 1101   3.861   3.609   3.839
  299HOH     H1 1102   3.879   3.699   3.809
  299HOH     H2 1103   3.944   3.564   3.828
  300HOH      O 1104   3.167   3.054   0.477
  300HOH     H1 1105   3.158   3.122   0.543
  300HOH     H2 1106   3.145   3.098   0.395
  301HOH      O 1107   2.898   2.392   3.150
  301HOH     H1 1108   2.865   2.468   3.102
  301HOH     H2 1109   2.820   2.342   3.173
  302HOH      O 1110   1.346   0.057   0.172
  302HOH     H1 1111   1.376   0.025   0.257
  302HOH     H2 1112   1.423   0.051   0.116
  303HOH      O 1113   2.329   2.913   1.749
  303HOH     H1 1114   2.414   2.912   1.794
  303HOH     H2 1115   2.302   2.821   1.746
  304HOH      O 1116   3.998   3.537   0.909
  304HOH     H1 1117   3.958   3.468   0.962
  304HOH     H2 1118   4.090   3.535   0.934
  305HOH      O 1119   3.315   2.754   1.842
  305HOH     H1 1120   3.270   2.693   1.784
  305HOH     H2 1121   3.328   2.832   1.788
  306HOH      O 1122   2.638   3.200   1.798
  306HOH     H1 1123   2.657   3.106   1.796
  306HOH     H2 1124   2.569   3.209   1.864
  307HOH      O 1125   1.702   2.441   2.054
  307HOH     H1 1126   1.736   2.357   2.022
  307HOH     H2 1127   1.651   2.476   1.981
  308HOH      O 1128   2.358   1.620   1.698
  308HOH     H1 1129   2.314   1.548   1.743
  308HOH     H2 1130   2.405   1.578   1.626
  309HOH      O 1131   0.158   2.031   2.326
  309HOH     H1 1132   0.201   1.945   2.324
  309HOH     H2 1133   0.186   2.073   2.244
  310HOH      O 1134   1.254   1.459   3.584
  310HOH     H1 1135   1.230   1.530   3.643
  310HOH     H2 1136   1.335   1.424   3.620
  311HOH      O 1137   4.001   3.802   3.496
  311HOH     H1 1138   3.989   3.707   3.508
  311HOH     H2 1139   4.093   3.818   3.517
  312HOH      O 1140   2.769   0.864   3.258
  312HOH     H1 1141   2.856   0.884   3.294
  312HOH     H2 1142   2.785   0.795   3.194
  313HOH      O 1143   3.376   1.517   2.701
  313HOH     H1 1144   3.409   1.492   2.788
  313HOH     H2 1145   3.378   1.613   2.702
  314HOH      O 1146   3.015   2.165   1.758
  314HOH     H1 1147   3.009   2.228   1.829
  314HOH     H2 1148   2.925   2.157   1.726
  315HOH      O 1149   2.405   1.159   3.476
  315HOH     H1 1150   2.464   1.097   3.519
  315HOH     H2 1151   2.406   1.133   3.384
  316HOH      O 1152   1.556   3.755   0.847
  316HOH     H1 1153   1.590   3.844   0.860
  316HOH     H2 1154   1.464   3.767   0.827
  317HOH      O 1155   2.512   3.889   1.078
  317HOH     H1 1156   2.443   3.843   1.126
  317HOH     H2 1157   2.543   3.824   1.014
  318HOH      O 1158   0.123   0.876   0.993
  318HOH     H1 1159   0.065   0.801   0.978
  318HOH     H2 1160   0.100   0.907   1.080
  319HOH      O 1161   0.228   1.495   3.234
  319HOH     H1 1162   0.147   1.485   3.284
  319HOH     H2 1163   0.217   1.438   3.158
  320HOH      O 1164   0.150   2.871   2.085
  320HOH     H1 1165   0.242   2.847   2.085
  320HOH     H2 1166   0.148   2.960   2.122
  321HOH      O 1167   0.934   0.239   3.203
  321HOH     H1 1168   0.984   0.159   3.215
  321HOH     H2 1169   0.981   0.287   3.135
  322HOH      O 1170   3.108   0.423   1.920
  322HOH     H1 1171   3.044   0.456   1.983
  322HOH     H2 1172   3.106   0.328   1.931
  323HOH      O 1173   2.171   0.777   0.900
  323HOH     H1 1174   2.154   0.786   0.806
  323HOH     H2 1175   2.229   0.850   0.920
  324HOH      O 1176   3.872   1.651   2.580
  324HOH     H1 1177   3.916   1.707   2.644
  324HOH     H2 1178   3.806   1.707   2.541
  325HOH      O 1179   0.781   2.953   3.811
  325HOH     H1 1180   0.725   3.030   3.806
  325HOH     H2 1181   0.746   2.893   3.745
  326HOH      O 1182   3.551   0.419   0.432
  326HOH     H1 1183   3.549   0.509   0.463
  326HOH     H2 1184   3.494   0.371   0.493
  327HOH      O 1185   3.787   0.836   0.396
  327HOH     H1 1186   3.835   0.806   0.318
  327HOH     H2 1187   3.853   0.838   0.465
  328HOH      O 1188   3.730   1.849   2.443
  328HOH     H1 1189   3.781   1.902   2.383
  328HOH     H2 1190   3.708   1.909   2.515
  329HOH      O 1191   0.338   1.033   3.412
  329HOH     H1 1192   0.263   1.064   3.462
  329HOH     H2 1193   0.309   0.950   3.374
  330HOH      O 1194   1.970   1.136   2.176
  330HOH     H1 1195   2.035   1.075   2.211
  330HOH     H2 1196   1.990   1.140   2.082
  331HOH      O 1197   3.784   3.454   0.341
  331HOH     H1 1198   3.693   3.432   0.362
  331HOH     H2 1199   3.797   3.419   0.254
  332HOH      O 1200   3.107   1.009   1.960
  332HOH     H1 1201   3.108   1.080   2.025
  332HOH     H2 1202   3.036   1.034   1.900
  333HOH      O 1203   3.343   0.503   3.481
  333HOH     H1 1204   3.385   0.459   3.555
  333HOH     H2 1205   3.274   0.442   3.453
  334HOH      O 1206   0.472   1.549   4.068
  334HOH     H1 1207   0.521   1.625   4.038
  334HOH     H2 1208   0.415   1.527   3.994
  335HOH      O 1209   3.344   3.685   1.321
  335HOH     H1 1210   3.277   3.723   1.377
  335HOH     H2 1211   3.357   3.597   1.356
  336HOH      O 1212   1.504   1.640   1.387
  336HOH     H1 1213   1.576   1.643   1.323
  336HOH     H2 1214   1.488   1.546   1.400
  337HOH      O 1215   0.750   1.396   1.381
  337HOH     H1 1216   0.669   1.397   1.432
  337HOH     H2 1217   0.784   1.485   1.388
  338HOH      O 1218   3.675   2.769   3.542
  338HOH     H1 1219   3.643   2.851   3.505
  338HOH     H2 1220   3.749   2.794   3.597
  339HOH      O 1221   1.430   2.120   3.803
  339HOH     H1 1222   1.521   2.093   3.794
  339HOH     H2 1223   1.434   2.216   3.812
  340HOH      O 1224   3.345   3.504   0.800
  340HOH     H1 1225   3.411   3.502   0.869
  340HOH     H2 1226   3.359   3.588   0.756
  341HOH      O 1227   3.117   1.960   0.600
  341HOH     H1 1228   3.117   1.915   0.516
  341HOH     H2 1229   3.060   1.907   0.656
  342HOH      O 1230   0.209   4.043   2.118
  342HOH     H1 1231   0.143   4.064   2.053
  342HOH     H2 1232   0.179   3.961   2.158
  343HOH      O 1233   1.631   1.747   0.431
  343HOH     H1 1234   1.577   1.716   0.358
  343HOH     H2 1235   1.715   1.770   0.391
  344HOH      O 1236   2.307   3.052   3.068
  344HOH     H1 1237   2.324   3.146   3.079
  344HOH     H2 1238   2.214   3.048   3.044
  345HOH      O 1239   0.028   0.261   1.436
  345HOH     H1 1240  -0.058   0.286   1.469
  345HOH     H2 1241   0.085   0.334   1.460
  346HOH      O 1242   0.483   1.943   0.196
  346HOH     H1 1243   0.550   1.901   0.142
  346HOH     H2 1244   0.402   1.930   0.147
  347HOH      O 1245   2.456   2.297   2.206
  347HOH     H1 1246   2.427   2.327   2.120
  347HOH     H2 1247   2.483   2.206   2.192
  348HOH      O 1248   1.976   2.530   3.974
  348HOH     H1 1249   1.904   2.492   3.923
  348HOH     H2 1250   1.953   2.622   3.983
  349HOH      O 1251   1.364   0.439   2.301
  349HOH     H1 1252   1.433   0.432   2.366
  349HOH     H2 1253   1.335   0.348   2.286
  350HOH      O 1254   3.685   2.266   2.107
  350HOH     H1 1255   3.647   2.351   2.127
  350HOH     H2 1256   3.655   2.246   2.018
  351HOH      O 1257   2.474   2.261   3.494
  351HOH     H1 1258   2.383   2.280   3.469
  351HOH     H2 1259   2.512   2.347   3.509
  352HOH      O 1260   3.308   0.056   3.871
  352HOH     H1 1261   3.235   0.099   3.827
  352HOH     H2 1262   3.278   0.043   3.961
  353HOH      O 1263   3.288   3.198   0.703
  353HOH     H1 1264   3.358   3.253   0.739
  353HOH     H2 1265   3.224   3.191   0.773
  354HOH      O 1266   1.694   0.788   2.605
  354HOH     H1 1267   1.662   0.878   2.603
  354HOH     H2 1268   1.709   0.765   2.514
  355HOH      O 1269   3.325   3.449   3.206
  355HOH     H1 1270   3.275   3.465   3.286
  355HOH     H2 1271   3.413   3.482   3.226
  356HOH      O 1272   1.199   1.407   0.601
  356HOH     H1 1273   1.133   1.412   0.532
  356HOH     H2 1274   1.211   1.313   0.616
  357HOH      O 1275   0.936   1.138   2.890
  357HOH     H1 1276   0.947   1.172   2.978
  357HOH     H2 1277   0.878   1.201   2.847
  358HOH      O 1278   2.834   1.765   1.554
  358HOH     H1 1279   2.821   1.806   1.639
  358HOH     H2 1280   2.840   1.672   1.572
  359HOH      O 1281   3.444   3.240   0.973
  359HOH     H1 1282   3.362   3.248   1.020
  359HOH     H2 1283   3.476   3.330   0.963
  360HOH      O 1284   0.323   1.047   1.287
  360HOH     H1 1285   0.266   1.095   1.227
  360HOH     H2 1286   0.408   1.090   1.279
  361HOH      O 1287   0.357   0.203   2.253
  361HOH     H1 1288   0.275   0.223   2.298
  361HOH     H2 1289   0.332   0.151   2.177
  362HOH      O 1290   0.175   0.732   1.979
  362HOH     H1 1291   0.171   0.827   1.976
  362HOH     H2 1292   0.165   0.705   1.887
  363HOH      O 1293   1.369   1.384   2.408
  363HOH     H1 1294   1.315   1.455   2.374
  363HOH     H2 1295   1.453   1.424   2.427
  364HOH      O 1296   1.442   2.208   0.691
  364HOH     H1 1297   1.379   2.245   0.629
  364HOH     H2 1298   1.415   2.116   0.700
  365HOH      O 1299   3.449   3.923   0.235
  365HOH     H1 1300   3.401   3.895   0.313
  365HOH     H2 1301   3.537   3.943   0.266
  366HOH      O 1302   0.736   1.068   3.513
  366HOH     H1 1303   0.671   1.095   3.577
  366HOH     H2 1304   0.756   1.148   3.464
  367HOH      O 1305   1.338   3.950   1.865
  367HOH     H1 1306   1.385   4.025   1.826
  367HOH     H2 1307   1.397   3.917   1.932
  368HOH      O 1308   2.050   1.167   1.070
  368HOH     H1 1309   2.046   1.079   1.109
  368HOH     H2 1310   1.959   1.198   1.073
  369HOH      O 1311   1.411   0.199   1.787
  369HOH     H1 1312   1.363   0.272   1.826
  369HOH     H2 1313   1.496   0.200   1.832
  370HOH      O 1314   3.361   1.097   2.792
  370HOH     H1 1315   3.321   1.077   2.708
  370HOH     H2 1316   3.362   1.192   2.797
  371HOH      O 1317   3.914   1.060   1.712
  371HOH     H1 1318   3.860   1.020   1.780
  371HOH     H2 1319   3.967   0.989   1.678
  372HOH      O 1320   1.060   3.517   1.065
  372HOH     H1 1321   1.105   3.599   1.086
  372HOH     H2 1322   0.982   3.544   1.016
  373HOH      O 1323   0.332   2.038   0.418
  373HOH     H1 1324   0.364   2.060   0.331
  373HOH     H2 1325   0.238   2.055   0.414
  374HOH      O 1326   0.726   0.625   0.687
  374HOH     H1 1327   0.747   0.706   0.640
  374HOH     H2 1328   0.672   0.575   0.625
  375HOH      O 1329   0.124   3.284   3.373
  375HOH     H1 1330   0.194   3.226   3.343
  375HOH     H2 1331   0.066   3.226   3.423
  376HOH      O 1332   2.670   0.079   2.746
  376HOH     H1 1333   2.632   0.017   2.683
  376HOH     H2 1334   2.762   0.053   2.752
  377HOH      O 1335   0.750   0.844   1.753
  377HOH     H1 1336   0.776   0.814   1.841
  377HOH     H2 1337   0.654   0.846   1.757
  378HOH      O 1338   0.321   0.682   2.962
  378HOH     H1 1339   0.276   0.599   2.943
  378HOH     H2 1340   0.289   0.743   2.896
  379HOH      O 1341   2.095   0.017   2.877
  379HOH     H1 1342   2.184  -0.005   2.906
  379HOH     H2 1343   2.043   0.020   2.957
  380HOH      O 1344   0.677   1.163   3.844
  380HOH     H1 1345   0.589   1.201   3.839
  380HOH     H2 1346   0.669   1.095   3.911
  381HOH      O 1347   3.593   2.290   3.534
  381HOH     H1 1348   3.527   2.250   3.477
  381HOH     H2 1349   3.625   2.364   3.483
  382HOH      O 1350   2.994   2.566   1.882
  382HOH     H1 1351   2.980   2.660   1.870
  382HOH     H2 1352   3.087   2.554   1.864
  383HOH      O 1353   2.219   3.168   2.616
  383HOH     H1 1354   2.221   3.178   2.521
  383HOH     H2 1355   2.193   3.255   2.648
  384HOH      O 1356   1.866   2.790   2.625
  384HOH     H1 1357   1.889   2.697   2.624
  384HOH     H2 1358   1.824   2.805   2.540
  385HOH      O 1359   2.913   0.553   3.971
  385HOH     H1 1360   2.880   0.465   3.954
  385HOH     H2 1361   2.976   0.541   4.042
  386HOH      O 1362   2.117   1.092   4.023
  386HOH     H1 1363   2.187   1.157   4.030
  386HOH     H2 1364   2.144   1.036   3.950
  387HOH      O 1365   0.422   3.574   3.027
  387HOH     H1 1366   0.484   3.505   3.004
  387HOH     H2 1367   0.344   3.527   3.059
  388HOH      O 1368   3.920   1.044   0.953
  388HOH     H1 1369   3.855   1.052   1.022
  388HOH     H2 1370   3.983   0.980   0.987
  389HOH      O 1371   1.801   1.442   1.534
  389HOH     H1 1372   1.857   1.483   1.600
  389HOH     H2 1373   1.776   1.358   1.572
  390HOH      O 1374   4.006   0.021   0.077
  390HOH     H1 1375   4.072   0.081   0.110
  390HOH     H2 1376   4.007   0.033  -0.018
  391HOH      O 1377   4.000   0.367   3.406
  391HOH     H1 1378   4.068   0.404   3.462
  391HOH     H2 1379   3.920   0.414   3.430
  392HOH      O 1380   3.158   0.491   0.752
  392HOH     H1 1381   3.171   0.550   0.826
  392HOH     H2 1382   3.157   0.403   0.791
  393HOH      O 1383   1.058   0.670   1.824
  393HOH     H1 1384   1.009   0.747   1.795
  393HOH     H2 1385   1.121   0.704   1.887
  394HOH      O 1386   2.381  -0.020   2.961
  394HOH     H1 1387   2.413   0.070   2.958
  394HOH     H2 1388   2.363  -0.036   3.054
  395HOH      O 1389   2.447   1.305   2.361
  395HOH     H1 1390   2.399   1.377   2.320
  395HOH     H2 1391   2.533   1.308   2.320
  396HOH      O 1392   0.501   3.859   2.521
  396HOH     H1 1393   0.428   3.830   2.576
  396HOH     H2 1394   0.488   3.954   2.513
  397HOH      O 1395   1.098   2.707   3.176
  397HOH     H1 1396   1.094   2.791   3.131
  397HOH     H2 1397   1.095   2.729   3.269
  398HOH      O 1398   1.592   2.980   3.811
  398HOH     H1 1399   1.592   3.026   3.727
  398HOH     H2 1400   1.576   2.889   3.789
  399HOH      O 1401   1.572   0.360   0.337
  399HOH     H1 1402   1.594   0.433   0.279
  399HOH     H2 1403   1.609   0.283   0.294
  400HOH      O 1404   3.570   2.838   1.483
  400HOH     H1 1405   3.634   2.889   1.532
  400HOH     H2 1406   3.607   2.830   1.395
  401HOH      O 1407   0.237   2.304   1.844
  401HOH     H1 1408   0.187   2.356   1.780
  401HOH     H2 1409   0.216   2.213   1.824
  402HOH      O 1410   1.108   2.669   0.706
  402HOH     H1 1411   1.081   2.760   0.697
  402HOH     H2 1412   1.128   2.658   0.799
  403HOH      O 1413   1.852   0.840   1.949
  403HOH     H1 1414   1.922   0.829   2.014
  403HOH     H2 1415   1.777   0.871   1.999
  404HOH      O 1416   2.460   0.921   2.523
  404HOH     H1 1417   2.429   1.011   2.537
  404HOH     H2 1418   2.555   0.927   2.535
  405HOH      O 1419   1.367   1.561   1.017
  405HOH     H1 1420   1.288   1.566   1.070
  405HOH     H2 1421   1.337   1.570   0.927
  406HOH      O 1422   0.475   1.574   2.431
  406HOH     H1 1423   0.456   1.657   2.387
  406HOH     H2 1424   0.392   1.549   2.471
  407HOH      O 1425   0.799   3.706   1.814
  407HOH     H1 1426   0.777   3.616   1.793
  407HOH     H2 1427   0.722   3.756   1.788
  408HOH      O 1428   0.708   3.963   0.396
  408HOH     H1 1429   0.782   3.907   0.422
  408HOH     H2 1430   0.741   4.012   0.321
  409HOH      O 1431   1.172   1.646   3.078
  409HOH     H1 1432   1.250   1.696   3.053
  409HOH     H2 1433   1.197   1.602   3.159
  410HOH      O 1434   2.137   0.179   4.030
  410HOH     H1 1435   2.064   0.239   4.047
  410HOH     H2 1436   2.113   0.136   3.948
  411HOH      O 1437   0.363   2.606   1.857
  411HOH     H1 1438   0.273   2.598   1.825
  411HOH     H2 1439   0.398   2.517   1.854
  412HOH      O 1440   2.013   3.773   1.616
  412HOH     H1 1441   2.068   3.845   1.586
  412HOH     H2 1442   1.941   3.815   1.663
  413HOH      O 1443   1.926   0.973   1.736
  413HOH     H1 1444   1.954   1.059   1.765
  413HOH     H2 1445   1.884   0.934   1.813
  414HOH      O 1446   0.724   0.618   3.245
  414HOH     H1 1447   0.750   0.597   3.335
  414HOH     H2 1448   0.631   0.639   3.251
  415HOH      O 1449   2.299   3.183   1.748
  415HOH     H1 1450   2.301   3.088   1.742
  415HOH     H2 1451   2.240   3.201   1.822
  416HOH      O 1452   2.821   0.231   2.176
  416HOH     H1 1453   2.770   0.197   2.250
  416HOH     H2 1454   2.907   0.250   2.213
  417HOH      O 1455   3.433   1.338   0.958
  417HOH     H1 1456   3.370   1.267   0.947
  417HOH     H2 1457   3.508   1.312   0.904
  418HOH      O 1458   0.589   3.218   1.645
  418HOH     H1 1459   0.555   3.145   1.697
  418HOH     H2 1460   0.661   3.180   1.595
  419HOH      O 1461   1.722   3.903   1.739
  419HOH     H1 1462   1.677   3.915   1.823
  419HOH     H2 1463   1.664   3.845   1.689
  420HOH      O 1464   3.494   0.692   1.285
  420HOH     H1 1465   3.468   0.767   1.338
  420HOH     H2 1466   3.455   0.617   1.329
  421HOH      O 1467   2.184   0.882   3.843
  421HOH     H1 1468   2.176   0.817   3.913
  421HOH     H2 1469   2.277   0.903   3.841
  422HOH      O 1470   0.727   0.020   1.979
  422HOH     H1 1471   0.741   0.112   2.003
  422HOH     H2 1472   0.649  -0.006   2.028
  423HOH      O 1473   1.021   0.993   0.346
  423HOH     H1 1474   0.986   1.078   0.320
  423HOH     H2 1475   1.107   0.988   0.304
  424HOH      O 1476   1.641   0.636   1.503
  424HOH     H1 1477   1.649   0.561   1.445
  424HOH     H2 1478   1.588   0.605   1.576
  425HOH      O 1479   3.234   1.094   3.257
  425HOH     H1 1480   3.280   1.118   3.338
  425HOH     H2 1481   3.236   1.174   3.204
  426HOH      O 1482   1.083   1.507   0.370
  426HOH     H1 1483   1.069   1.580   0.310
  426HOH     H2 1484   1.161   1.463   0.335
  427HOH      O 1485   0.494   3.733   1.853
  427HOH     H1 1486   0.477   3.816   1.808
  427HOH     H2 1487   0.518   3.759   1.942
  428HOH      O 1488   2.928   1.093   3.080
  428HOH     H1 1489   2.947   1.112   2.988
  428HOH     H2 1490   3.004   1.043   3.110
  429HOH      O 1491   3.232   1.271   2.381
  429HOH     H1 1492   3.170   1.305   2.446
  429HOH     H2 1493   3.305   1.332   2.383
  430HOH      O 1494   0.762   0.979   0.020
  430HOH     H1 1495   0.856   0.996   0.014
  430HOH     H2 1496   0.756   0.893   0.062
  431HOH      O 1497   2.908   2.480   3.714
  431HOH     H1 1498   2.817   2.453   3.699
  431HOH     H2 1499   2.924   2.547   3.648
  432HOH      O 1500   2.039   3.473   0.054
  432HOH     H1 1501   2.059   3.415  -0.019
  432HOH     H2 1502   1.944   3.481   0.052
  433HOH      O 1503   3.214   1.866   2.403
  433HOH     H1 1504   3.219   1.779   2.364
  433HOH     H2 1505   3.155   1.914   2.345
  434HOH      O 1506   2.119   2.250   2.861
  434HOH     H1 1507   2.172   2.328   2.844
  434HOH     H2 1508   2.184   2.181   2.881
  435HOH      O 1509   1.077   1.481   1.092
  435HOH     H1 1510   1.029   1.437   1.022
  435HOH     H2 1511   1.145   1.419   1.118
  436HOH      O 1512   1.068   2.630   1.640
  436HOH     H1 1513   1.030   2.564   1.699
  436HOH     H2 1514   1.011   2.706   1.649
  437HOH      O 1515   0.086   2.628   0.963
  437HOH     H1 1516   0.128   2.638   1.048
  437HOH     H2 1517  -0.007   2.647   0.980
  438HOH      O 1518   0.016   3.921   1.644
  438HOH     H1 1519   0.049   3.992   1.699
  438HOH     H2 1520   0.042   3.945   1.555
  439HOH      O 1521   3.263   0.488   1.698
  439HOH     H1 1522   3.322   0.413   1.705
  439HOH     H2 1523   3.209   0.483   1.777
  440HOH      O 1524   3.617   2.033   1.531
  440HOH     H1 1525   3.576   2.012   1.447
  440HOH     H2 1526   3.611   1.952   1.581
  441HOH      O 1527   0.896   1.386   4.026
  441HOH     H1 1528   0.828   1.353   4.084
  441HOH     H2 1529   0.869   1.357   3.939
  442HOH      O 1530   0.261   3.808   0.757
  442HOH     H1 1531   0.356   3.816   0.756
  442HOH     H2 1532   0.243   3.722   0.719
  443HOH      O 1533   1.222   1.271   1.176
  443HOH     H1 1534   1.220   1.195   1.119
  443HOH     H2 1535   1.297   1.256   1.234
  444HOH      O 1536   1.209   2.204   1.132
  444HOH     H1 1537   1.239   2.248   1.052
  444HOH     H2 1538   1.176   2.119   1.102
  445HOH      O 1539   2.011   1.507   2.003
  445HOH     H1 1540   2.095   1.552   2.008
  445HOH     H2 1541   1.963   1.554   1.934
  446HOH      O 1542   0.810   1.287   0.506
  446HOH     H1 1543   0.860   1.254   0.432
  446HOH     H2 1544   0.738   1.336   0.467
  447HOH      O 1545   0.606   3.058   3.023
  447HOH     H1 1546   0.668   3.043   2.952
  447HOH     H2 1547   0.552   2.979   3.026
  448HOH      O 1548   0.786   0.431   1.005
  448HOH     H1 1549   0.787   0.364   1.074
  448HOH     H2 1550   0.708   0.410   0.953
  449HOH      O 1551   3.651   1.139   1.507
  449HOH     H1 1552   3.616   1.052   1.526
  449HOH     H2 1553   3.640   1.188   1.589
  450HOH      O 1554   0.628   2.918   0.850
  450HOH     H1 1555   0.665   2.844   0.802
  450HOH     H2 1556   0.545   2.885   0.884
  451HOH      O 1557   2.499   0.264   3.807
  451HOH     H1 1558   2.568   0.311   3.760
  451HOH     H2 1559   2.426   0.262   3.746
  452HOH      O 1560   2.184   1.395   2.260
  452HOH     H1 1561   2.119   1.354   2.317
  452HOH     H2 1562   2.190   1.485   2.292
  453HOH      O 1563   3.873   2.522   0.599
  453HOH     H1 1564   3.778   2.508   0.596
  453HOH     H2 1565   3.882   2.610   0.635
  454HOH      O 1566   2.895   0.190   0.512
  454HOH     H1 1567   2.810   0.148   0.501
  454HOH     H2 1568   2.896   0.217   0.604
  455HOH      O 1569   3.449   2.619   2.601
  455HOH     H1 1570   3.466   2.689   2.538
  455HOH     H2 1571   3.400   2.662   2.671
  456HOH      O 1572   2.664   3.539   2.484
  456HOH     H1 1573   2.625   3.625   2.467
  456HOH     H2 1574   2.733   3.531   2.418
  457HOH      O 1575   0.628   3.011   3.334
  457HOH     H1 1576   0.618   2.924   3.296
  457HOH     H2 1577   0.621   2.997   3.429
  458HOH      O 1578   0.732   2.160   2.063
  458HOH     H1 1579   0.727   2.113   2.147
  458HOH     H2 1580   0.762   2.093   2.001
  459HOH      O 1581   0.549   1.345   0.878
  459HOH     H1 1582   0.527   1.415   0.941
  459HOH     H2 1583   0.572   1.392   0.798
  460HOH      O 1584   2.780   0.120   3.114
  460HOH     H1 1585   2.873   0.139   3.131
  460HOH     H2 1586   2.773   0.025   3.122
  461HOH      O 1587   2.994   2.428   2.537
  461HOH     H1 1588   3.040   2.512   2.533
  461HOH     H2 1589   3.064   2.363   2.537
  462HOH      O 1590   2.440   0.293   2.297
  462HOH     H1 1591   2.444   0.384   2.326
  462HOH     H2 1592   2.498   0.290   2.221
  463HOH      O 1593   0.875   0.288   0.357
  463HOH     H1 1594   0.831   0.214   0.315
  463HOH     H2 1595   0.965   0.259   0.368
  464HOH      O 1596   3.325   2.527   3.127
  464HOH     H1 1597   3.352   2.593   3.192
  464HOH     H2 1598   3.346   2.566   3.043
  465HOH      O 1599   0.052   2.297   2.396
  465HOH     H1 1600   0.070   2.219   2.449
  465HOH     H2 1601   0.133   2.310   2.346
  466HOH      O 1602   2.152   1.344   0.535
  466HOH     H1 1603   2.124   1.265   0.490
  466HOH     H2 1604   2.088   1.410   0.508
  467HOH      O 1605   2.999   1.460   1.345
  467HOH     H1 1606   3.028   1.549   1.367
  467HOH     H2 1607   3.040   1.442   1.261
  468HOH      O 1608   0.234   3.712   3.578
  468HOH     H1 1609   0.298   3.655   3.621
  468HOH     H2 1610   0.250   3.700   3.485
  469HOH      O 1611   2.627   3.542   0.627
  469HOH     H1 1612   2.578   3.625   0.632
  469HOH     H2 1613   2.601   3.495   0.706
  470HOH      O 1614   3.721   1.429   1.991
  470HOH     H1 1615   3.639   1.467   2.022
  470HOH     H2 1616   3.789   1.488   2.024
  471HOH      O 1617   1.423   0.137   3.738
  471HOH     H1 1618   1.486   0.065   3.743
  471HOH     H2 1619   1.339   0.094   3.726
  472HOH      O 1620   0.841   2.052   3.220
  472HOH     H1 1621   0.875   2.139   3.244
  472HOH     H2 1622   0.919   1.997   3.217
  473HOH      O 1623   3.300   3.723   0.405
  473HOH     H1 1624   3.244   3.771   0.467
  473HOH     H2 1625   3.369   3.686   0.459
  474HOH      O 1626   4.011   2.845   0.324
  474HOH     H1 1627   4.054   2.907   0.384
  474HOH     H2 1628   3.931   2.820   0.370
  475HOH      O 1629   1.994   2.121   0.379
  475HOH     H1 1630   2.059   2.184   0.346
  475HOH     H2 1631   1.913   2.145   0.335
  476HOH      O 1632   0.876   1.661   4.065
  476HOH     H1 1633   0.878   1.567   4.046
  476HOH     H2 1634   0.887   1.702   3.980
  477HOH      O 1635   3.970   0.833   3.576
  477HOH     H1 1636   3.927   0.816   3.492
  477HOH     H2 1637   3.986   0.927   3.576
  478HOH      O 1638   3.734   0.336   3.969
  478HOH     H1 1639   3.677   0.285   4.027
  478HOH     H2 1640   3.686   0.417   3.953
  479HOH      O 1641   0.549   3.710   0.947
  479HOH     H1 1642   0.517   3.653   0.877
  479HOH     H2 1643   0.644   3.702   0.944
  480HOH      O 1644   2.625   1.321   0.506
  480HOH     H1 1645   2.686   1.348   0.574
  480HOH     H2 1646   2.625   1.226   0.510
  481HOH      O 1647   1.293   3.963   0.658
  481HOH     H1 1648   1.237   4.002   0.725
  481HOH     H2 1649   1.292   3.870   0.676
  482HOH      O 1650   3.414   3.725   0.676
  482HOH     H1 1651   3.327   3.763   0.688
  482HOH     H2 1652   3.472   3.780   0.727
  483HOH      O 1653   2.294   1.165   2.554
  483HOH     H1 1654   2.248   1.229   2.608
  483HOH     H2 1655   2.342   1.217   2.490
  484HOH      O 1656   0.170   3.348   1.222
  484HOH     H1 1657   0.118   3.368   1.300
  484HOH     H2 1658   0.157   3.424   1.165
  485HOH      O 1659   3.168   1.726   3.947
  485HOH     H1 1660   3.089   1.726   3.892
  485HOH     H2 1661   3.135   1.717   4.036
  486HOH      O 1662   1.733   3.834   2.447
  486HOH     H1 1663   1.649   3.879   2.439
  486HOH     H2 1664   1.775   3.848   2.362
  487HOH      O 1665   2.950   2.144   0.169
  487HOH     H1 1666   3.033   2.170   0.209
  487HOH     H2 1667   2.913   2.081   0.231
  488HOH      O 1668   1.926   2.234   1.638
  488HOH     H1 1669   1.982   2.226   1.561
  488HOH     H2 1670   1.983   2.212   1.712
  489HOH      O 1671   2.762   0.652   1.514
  489HOH     H1 1672   2.688   0.713   1.521
  489HOH     H2 1673   2.812   0.667   1.594
  490HOH      O 1674   0.335   2.424   1.417
  490HOH     H1 1675   0.417   2.402   1.460
  490HOH     H2 1676   0.358   2.438   1.326
  491HOH      O 1677   0.874   2.124   3.833
  491HOH     H1 1678   0.816   2.098   3.761
  491HOH     H2 1679   0.842   2.210   3.860
  492HOH      O 1680   2.317   2.522   0.578
  492HOH     H1 1681   2.346   2.583   0.510
  492HOH     H2 1682   2.266   2.576   0.638
  493HOH      O 1683   1.553   3.886   2.027
  493HOH     H1 1684   1.643   3.883   2.061
  493HOH     H2 1685   1.509   3.812   2.068
  494HOH      O 1686   1.181   3.242   1.924
  494HOH     H1 1687   1.149   3.331   1.939
  494HOH     H2 1688   1.116   3.186   1.967
  495HOH      O 1689   1.999   1.126   3.349
  495HOH     H1 1690   2.043   1.163   3.426
  495HOH     H2 1691   2.010   1.031   3.358
  496HOH      O 1692   3.930   2.919   1.220
  496HOH     H1 1693   3.957   2.973   1.295
  496HOH     H2 1694   3.956   2.830   1.245
  497HOH      O 1695   0.199   0.519   3.962
  497HOH     H1 1696   0.180   0.436   3.918
  497HOH     H2 1697   0.130   0.578   3.932
  498HOH      O 1698   3.704   3.124   1.953
  498HOH     H1 1699   3.643   3.105   1.881
  498HOH     H2 1700   3.647   3.150   2.025
  499HOH      O 1701   1.331   3.286   3.192
  499HOH     H1 1702   1.360   3.203   3.230
  499HOH     H2 1703   1.297   3.262   3.106
  500HOH      O 1704   1.165   0.623   3.033
  500HOH     H1 1705   1.255   0.615   3.066
  500HOH     H2 1706   1.112   0.638   3.112
  501HOH      O 1707   2.973   0.059   1.427
  501HOH     H1 1708   3.024   0.108   1.492
  501HOH     H2 1709   3.012   0.084   1.343
  502HOH      O 1710   1.314   0.750   0.504
  502HOH     H1 1711   1.364   0.768   0.425
  502HOH     H2 1712   1.330   0.658   0.523
  503HOH      O 1713   0.432   1.569   0.715
  503HOH     H1 1714   0.403   1.634   0.650
  503HOH     H2 1715   0.352   1.545   0.763
  504HOH      O 1716   2.580   0.385   1.168
  504HOH     H1 1717   2.605   0.293   1.172
  504HOH     H2 1718   2.552   0.406   1.257
  505HOH      O 1719   3.186   1.818   1.164
  505HOH     H1 1720   3.197   1.744   1.223
  505HOH     H2 1721   3.107   1.797   1.113
  506HOH      O 1722   1.096   3.001   2.824
  506HOH     H1 1723   1.171   3.015   2.766
  506HOH     H2 1724   1.071   3.089   2.852
  507HOH      O 1725   2.124   0.071   3.749
  507HOH     H1 1726   2.061   0.006   3.718
  507HOH     H2 1727   2.210   0.034   3.726
  508HOH      O 1728   0.057   3.505   3.782
  508HOH     H1 1729   0.036   3.412   3.793
  508HOH     H2 1730   0.125   3.506   3.714
  509HOH      O 1731   0.898   2.342   1.578
  509HOH     H1 1732   0.948   2.261   1.585
  509HOH     H2 1733   0.903   2.382   1.665
  510HOH      O 1734   2.990   2.855   1.992
  510HOH     H1 1735   2.911   2.819   1.952
  510HOH     H2 1736   3.021   2.921   1.930
  511HOH      O 1737   1.626   1.028   3.296
  511HOH     H1 1738   1.652   1.014   3.205
  511HOH     H2 1739   1.676   1.105   3.324
  512HOH      O 1740   2.070   1.434   2.966
  512HOH     H1 1741   2.113   1.382   3.034
  512HOH     H2 1742   2.141   1.460   2.907
  513HOH      O 1743   2.009   3.988   0.595
  513HOH     H1 1744   1.971   3.902   0.612
  513HOH     H2 1745   2.005   4.034   0.678
  514HOH      O 1746   0.686   0.535   1.932
  514HOH     H1 1747   0.771   0.492   1.931
  514HOH     H2 1748   0.687   0.588   2.011
  515HOH      O 1749   1.984   3.420   2.136
  515HOH     H1 1750   1.968   3.451   2.225
  515HOH     H2 1751   2.036   3.490   2.096
  516HOH      O 1752   1.438   0.731   2.703
  516HOH     H1 1753   1.378   0.706   2.632
  516HOH     H2 1754   1.525   0.731   2.662
  517HOH      O 1755   1.138   1.095   3.403
  517HOH     H1 1756   1.170   1.040   3.331
  517HOH     H2 1757   1.087   1.035   3.458
  518HOH      O 1758   3.244   1.651   1.358
  518HOH     H1 1759   3.231   1.710   1.433
  518HOH     H2 1760   3.337   1.629   1.361
  519HOH      O 1761   2.266   3.967   0.463
  519HOH     H1 1762   2.237   4.014   0.384
  519HOH     H2 1763   2.189   3.965   0.520
  520HOH      O 1764   2.095   2.133   4.028
  520HOH     H1 1765   2.026   2.096   3.972
  520HOH     H2 1766   2.066   2.223   4.044
  521HOH      O 1767   1.629   0.855   1.726
  521HOH     H1 1768   1.705   0.861   1.782
  521HOH     H2 1769   1.665   0.846   1.637
  522HOH      O 1770   1.427   3.774   2.772
  522HOH     H1 1771   1.384   3.854   2.802
  522HOH     H2 1772   1.413   3.774   2.677
  523HOH      O 1773   0.615   0.943   2.584
  523HOH     H1 1774   0.655   1.029   2.571
  523HOH     H2 1775   0.688   0.884   2.601
  524HOH      O 1776   3.865   3.271   2.123
  524HOH     H1 1777   3.891   3.247   2.211
  524HOH     H2 1778   3.781   3.227   2.110
  525HOH      O 1779   0.923   0.239   2.546
  525HOH     H1 1780   0.955   0.149   2.540
  525HOH     H2 1781   0.937   0.263   2.638
  526HOH      O 1782   1.837   1.462   3.100
  526HOH     H1 1783   1.762   1.443   3.044
  526HOH     H2 1784   1.914   1.447   3.044
  527HOH      O 1785   0.697   3.424   0.581
  527HOH     H1 1786   0.728   3.512   0.600
  527HOH     H2 1787   0.766   3.385   0.528
  528HOH      O 1788   0.795   2.492   1.358
  528HOH     H1 1789   0.857   2.440   1.409
  528HOH     H2 1790   0.821   2.478   1.267
  529HOH      O 1791   3.720   3.909   0.364
  529HOH     H1 1792   3.811   3.935   0.370
  529HOH     H2 1793   3.719   3.816   0.388
  530HOH      O 1794   2.692   1.879   2.964
  530HOH     H1 1795   2.714   1.786   2.971
  530HOH     H2 1796   2.605   1.886   3.005
  531HOH      O 1797   2.623   0.282   2.024
  531HOH     H1 1798   2.625   0.373   2.052
  531HOH     H2 1799   2.694   0.240   2.073
  532HOH      O 1800   0.211   2.362   2.846
  532HOH     H1 1801   0.241   2.305   2.775
  532HOH     H2 1802   0.131   2.403   2.811
  533HOH      O 1803   3.331   0.922   0.795
  533HOH     H1 1804   3.412   0.873   0.778
  533HOH     H2 1805   3.293   0.880   0.873
  534HOH      O 1806   0.777   2.989   2.749
  534HOH     H1 1807   0.872   3.000   2.755
  534HOH     H2 1808   0.765   2.900   2.717
  535HOH      O 1809   0.949   3.883   1.181
  535HOH     H1 1810   0.903   3.801   1.163
  535HOH     H2 1811   0.891   3.931   1.239
  536HOH      O 1812   3.560   2.321   1.549
  536HOH     H1 1813   3.594   2.238   1.580
  536HOH     H2 1814   3.574   2.382   1.621
  537HOH      O 1815   3.739   1.252   3.309
  537HOH     H1 1816   3.777   1.335   3.279
  537HOH     H2 1817   3.698   1.214   3.231
  538HOH      O 1818   3.364   1.791   0.743
  538HOH     H1 1819   3.421   1.731   0.791
  538HOH     H2 1820   3.278   1.750   0.747
  539HOH      O 1821   2.677   0.076   1.187
  539HOH     H1 1822   2.763   0.036   1.198
  539HOH     H2 1823   2.630   0.015   1.129
  540HOH      O 1824   1.122   2.733   3.723
  540HOH     H1 1825   1.097   2.644   3.749
  540HOH     H2 1826   1.070   2.790   3.779
  541HOH      O 1827   1.683   2.497   3.059
  541HOH     H1 1828   1.674   2.467   2.968
  541HOH     H2 1829   1.749   2.439   3.097
  542HOH      O 1830   1.147   1.982   2.938
  542HOH     H1 1831   1.235   2.011   2.959
  542HOH     H2 1832   1.108   1.959   3.023
  543HOH      O 1833   0.284   1.210   1.640
  543HOH     H1 1834   0.355   1.246   1.587
  543HOH     H2 1835   0.279   1.117   1.615
  544HOH      O 1836   1.310   2.611   3.375
  544HOH     H1 1837   1.321   2.516   3.366
  544HOH     H2 1838   1.374   2.648   3.314
  545HOH      O 1839   2.406   2.569   0.175
  545HOH     H1 1840   2.331   2.526   0.134
  545HOH     H2 1841   2.434   2.634   0.110
  546HOH      O 1842   1.571   0.067   1.219
  546HOH     H1 1843   1.561   0.158   1.191
  546HOH     H2 1844   1.620   0.073   1.301
  547HOH      O 1845   0.748   3.258   3.759
  547HOH     H1 1846   0.814   3.301   3.813
  547HOH     H2 1847   0.665   3.299   3.786
  548HOH      O 1848   2.636   2.271   1.865
  548HOH     H1 1849   2.698   2.280   1.937
  548HOH     H2 1850   2.676   2.207   1.806
  549HOH      O 1851   0.324   3.686   2.241
  549HOH     H1 1852   0.409   3.729   2.228
  549HOH     H2 1853   0.262   3.758   2.252
  550HOH      O 1854   3.187   2.598   1.647
  550HOH     H1 1855   3.229   2.520   1.609
  550HOH     H2 1856   3.097   2.595   1.615
  551HOH      O 1857   2.748   1.022   3.751
  551HOH     H1 1858   2.829   1.029   3.702
  551HOH     H2 1859   2.769   0.966   3.825
  552HOH      O 1860   0.623   3.035   2.458
  552HOH     H1 1861   0.691   3.046   2.392
  552HOH     H2 1862   0.664   2.981   2.525
  553HOH      O 1863   0.483   0.338   0.171
  553HOH     H1 1864   0.447   0.413   0.218
  553HOH     H2 1865   0.507   0.373   0.085
  554HOH      O 1866   2.387   3.794   1.731
  554HOH     H1 1867   2.432   3.710   1.720
  554HOH     H2 1868   2.443   3.857   1.686
  555HOH      O 1869   2.179   2.841   0.132
  555HOH     H1 1870   2.216   2.842   0.044
  555HOH     H2 1871   2.085   2.852   0.118
  556HOH      O 1872   0.543   1.646   0.368
  556HOH     H1 1873   0.533   1.685   0.281
  556HOH     H2 1874   0.477   1.690   0.422
  557HOH      O 1875   3.318   2.435   2.105
  557HOH     H1 1876   3.344   2.359   2.157
  557HOH     H2 1877   3.330   2.509   2.163
  558HOH      O 1878   2.190   1.604   3.336
  558HOH     H1 1879   2.150   1.517   3.340
  558HOH     H2 1880   2.268   1.591   3.281
  559HOH      O 1881   1.027   3.365   3.049
  559HOH     H1 1882   1.104   3.333   3.002
  559HOH     H2 1883   1.062   3.398   3.132
  560HOH      O 1884   2.281   0.816   1.180
  560HOH     H1 1885   2.322   0.901   1.201
  560HOH     H2 1886   2.206   0.810   1.239
  561HOH      O 1887   1.089   0.345   3.016
  561HOH     H1 1888   1.175   0.328   3.056
  561HOH     H2 1889   1.081   0.441   3.018
  562HOH      O 1890   1.738   1.019   1.207
  562HOH     H1 1891   1.743   0.938   1.156
  562HOH     H2 1892   1.765   1.087   1.146
  563HOH      O 1893   0.140   3.562   3.185
  563HOH     H1 1894   0.142   3.469   3.161
  563HOH     H2 1895   0.071   3.568   3.251
  564HOH      O 1896   1.407   3.008   3.124
  564HOH     H1 1897   1.379   2.969   3.042
  564HOH     H2 1898   1.481   3.064   3.100
  565HOH      O 1899   2.329   0.562   1.094
  565HOH     H1 1900   2.416   0.550   1.055
  565HOH     H2 1901   2.306   0.653   1.074
  566HOH      O 1902   3.347   2.690   2.248
  566HOH     H1 1903   3.364   2.738   2.329
  566HOH     H2 1904   3.390   2.743   2.180
  567HOH      O 1905   3.195   3.237   1.049
  567HOH     H1 1906   3.127   3.254   0.983
  567HOH     H2 1907   3.166   3.284   1.126
  568HOH      O 1908   0.116   2.166   0.022
  568HOH     H1 1909   0.054   2.198   0.087
  568HOH     H2 1910   0.093   2.212  -0.058
  569HOH      O 1911   1.685   2.432   3.889
  569HOH     H1 1912   1.669   2.520   3.922
  569HOH     H2 1913   1.634   2.375   3.947
  570HOH      O 1914   1.446   1.138   0.346
  570HOH     H1 1915   1.409   1.092   0.422
  570HOH     H2 1916   1.416   1.087   0.271
  571HOH      O 1917   2.417   3.363   2.419
  571HOH     H1 1918   2.448   3.360   2.509
  571HOH     H2 1919   2.485   3.317   2.369
  572HOH      O 1920   0.339   3.353   0.249
  572HOH     H1 1921   0.273   3.347   0.318
  572HOH     H2 1922   0.289   3.380   0.171
  573HOH      O 1923   2.070   0.544   1.631
  573HOH     H1 1924   2.150   0.525   1.581
  573HOH     H2 1925   2.046   0.460   1.669
  574HOH      O 1926   2.811   2.145   3.720
  574HOH     H1 1927   2.781   2.093   3.645
  574HOH     H2 1928   2.748   2.217   3.725
  575HOH      O 1929   1.703   2.696   0.266
  575HOH     H1 1930   1.643   2.733   0.201
  575HOH     H2 1931   1.669   2.724   0.350
  576HOH      O 1932   2.321   0.329   0.600
  576HOH     H1 1933   2.363   0.320   0.514
  576HOH     H2 1934   2.356   0.256   0.651
  577HOH      O 1935   1.619   1.487   2.366
  577HOH     H1 1936   1.606   1.576   2.332
  577HOH     H2 1937   1.687   1.450   2.311
  578HOH      O 1938   3.031   3.175   0.815
  578HOH     H1 1939   2.974   3.239   0.772
  578HOH     H2 1940   3.001   3.090   0.781
  579HOH      O 1941   2.386   3.716   0.592
  579HOH     H1 1942   2.335   3.693   0.670
  579HOH     H2 1943   2.340   3.792   0.555
  580HOH      O 1944   2.226   1.360   1.803
  580HOH     H1 1945   2.180   1.354   1.719
  580HOH     H2 1946   2.191   1.288   1.854
  581HOH      O 1947   0.054   2.703   3.753
  581HOH     H1 1948   0.014   2.776   3.800
  581HOH     H2 1949   0.107   2.658   3.819
  582HOH      O 1950   3.523   2.263   2.639
  582HOH     H1 1951   3.576   2.322   2.585
  582HOH     H2 1952   3.502   2.315   2.717
  583HOH      O 1953   2.616   3.622   3.709
  583HOH     H1 1954   2.598   3.692   3.646
  583HOH     H2 1955   2.645   3.549   3.655
  584HOH      O 1956   1.528   2.558   1.883
  584HOH     H1 1957   1.580   2.555   1.802
  584HOH     H2 1958   1.439   2.538   1.855
  585HOH      O 1959   1.965   2.645   0.559
  585HOH     H1 1960   1.873   2.672   0.555
  585HOH     H2 1961   1.965   2.555   0.527
  586HOH      O 1962   3.566   3.937   0.793
  586HOH     H1 1963   3.562   3.999   0.721
  586HOH     H2 1964   3.655   3.900   0.788
  587HOH      O 1965   1.103   2.597   0.961
  587HOH     H1 1966   1.197   2.577   0.957
  587HOH     H2 1967   1.072   2.553   1.039
  588HOH      O 1968   1.871   0.350   2.216
  588HOH     H1 1969   1.953   0.367   2.262
  588HOH     H2 1970   1.878   0.260   2.186
  589HOH      O 1971   1.952   0.119   0.362
  589HOH     H1 1972   2.031   0.105   0.310
  589HOH     H2 1973   1.962   0.061   0.437
  590HOH      O 1974   0.683   0.579   2.509
  590HOH     H1 1975   0.635   0.576   2.592
  590HOH     H2 1976   0.743   0.653   2.518
  591HOH      O 1977   1.314   3.526   0.288
  591HOH     H1 1978   1.237   3.579   0.268
  591HOH     H2 1979   1.284   3.435   0.278
  592HOH      O 1980   0.487   0.634   0.364
  592HOH     H1 1981   0.404   0.612   0.322
  592HOH     H2 1982   0.469   0.626   0.458
  593HOH      O 1983   0.238   2.480   0.064
  593HOH     H1 1984   0.268   2.408   0.008
  593HOH     H2 1985   0.185   2.437   0.132
  594HOH      O 1986   2.635   2.552   3.439
  594HOH     H1 1987   2.628   2.483   3.373
  594HOH     H2 1988   2.715   2.599   3.414
  595HOH      O 1989   1.240   1.136   2.147
  595HOH     H1 1990   1.239   1.043   2.171
  595HOH     H2 1991   1.323   1.168   2.180
  596HOH      O 1992   0.416   3.859   1.128
  596HOH     H1 1993   0.454   3.821   1.049
  596HOH     H2 1994   0.324   3.873   1.106
  597HOH      O 1995   0.738   3.438   1.706
  597HOH     H1 1996   0.659   3.387   1.685
  597HOH     H2 1997   0.800   3.374   1.739
  598HOH      O 1998   1.663   0.045   0.618
  598HOH     H1 1999   1.643  -0.015   0.547
  598HOH     H2 2000   1.598   0.026   0.685
  599HOH      O 2001   1.300   1.165   1.868
  599HOH     H1 2002   1.277   1.149   1.960
  599HOH     H2 2003   1.328   1.080   1.835
  600HOH      O 2004   0.295   2.246   0.781
  600HOH     H1 2005   0.333   2.166   0.744
  600HOH     H2 2006   0.303   2.311   0.711
  601HOH      O 2007   3.786   3.295   3.624
  601HOH     H1 2008   3.848   3.300   3.696
  601HOH     H2 2009   3.789   3.203   3.596
  602HOH      O 2010   2.431   1.864   3.057
  602HOH     H1 2011   2.393   1.883   3.143
  602HOH     H2 2012   2.427   1.769   3.049
  603HOH      O 2013   1.904   1.629   1.788
  603HOH     H1 2014   1.913   1.722   1.806
  603HOH     H2 2015   1.951   1.616   1.705
  604HOH      O 2016   0.165   2.594   2.533
  604HOH     H1 2017   0.179   2.667   2.473
  604HOH     H2 2018   0.084   2.617   2.579
  605HOH      O 2019   3.314   1.300   1.241
  605HOH     H1 2020   3.409   1.296   1.241
  605HOH     H2 2021   3.293   1.384   1.202
  606HOH      O 2022   3.909   0.648   2.466
  606HOH     H1 2023   3.986   0.641   2.523
  606HOH     H2 2024   3.848   0.702   2.515
  607HOH      O 2025   1.176   1.881   1.722
  607HOH     H1 2026   1.137   1.799   1.752
  607HOH     H2 2027   1.226   1.913   1.797
  608HOH      O 2028   3.933   1.579   2.084
  608HOH     H1 2029   3.909   1.550   2.172
  608HOH     H2 2030   3.986   1.657   2.098
  609HOH      O 2031   0.200   2.817   2.985
  609HOH     H1 2032   0.116   2.774   3.001
  609HOH     H2 2033   0.259   2.745   2.962
  610HOH      O 2034   0.963   0.737   0.207
  610HOH     H1 2035   0.992   0.696   0.289
  610HOH     H2 2036   0.968   0.831   0.225
  611HOH      O 2037   2.615   0.537   2.156
  611HOH     H1 2038   2.562   0.605   2.113
  611HOH     H2 2039   2.593   0.545   2.249
  612HOH      O 2040   2.927   0.380   1.682
  612HOH     H1 2041   2.856   0.370   1.619
  612HOH     H2 2042   2.968   0.463   1.659
  613HOH      O 2043   1.389   0.689   0.247
  613HOH     H1 2044   1.449   0.619   0.220
  613HOH     H2 2045   1.306   0.645   0.263
  614HOH      O 2046   0.593   1.330   2.563
  614HOH     H1 2047   0.616   1.284   2.482
  614HOH     H2 2048   0.579   1.420   2.536
  615HOH      O 2049   2.283   0.294   3.639
  615HOH     H1 2050   2.233   0.212   3.639
  615HOH     H2 2051   2.221   0.360   3.670
  616HOH      O 2052   2.684   2.291   0.030
  616HOH     H1 2053   2.624   2.294   0.104
  616HOH     H2 2054   2.681   2.379  -0.007
  617HOH      O 2055   0.802   2.409   3.207
  617HOH     H1 2056   0.863   2.336   3.199
  617HOH     H2 2057   0.716   2.371   3.188
  618HOH      O 2058   3.690   3.373   0.837
  618HOH     H1 2059   3.646   3.438   0.893
  618HOH     H2 2060   3.779   3.369   0.871
  619HOH      O 2061   1.136   0.686   3.676
  619HOH     H1 2062   1.151   0.780   3.674
  619HOH     H2 2063   1.147   0.662   3.768
  620HOH      O 2064   3.931   2.556   3.562
  620HOH     H1 2065   3.966   2.605   3.636
  620HOH     H2 2066   3.968   2.468   3.571
  621HOH      O 2067   0.045   3.460   2.183
  621HOH     H1 2068   0.110   3.493   2.122
  621HOH     H2 2069  -0.010   3.402   2.131
  622HOH      O 2070   3.416   2.991   1.124
  622HOH     H1 2071   3.468   3.037   1.058
  622HOH     H2 2072   3.333   2.972   1.080
  623HOH      O 2073   1.473   0.216   1.522
  623HOH     H1 2074   1.460   0.212   1.617
  623HOH     H2 2075   1.417   0.146   1.487
  624HOH      O 2076   3.585   1.336   3.718
  624HOH     H1 2077   3.613   1.284   3.793
  624HOH     H2 2078   3.663   1.384   3.692
  625HOH      O 2079   2.488   2.173   1.497
  625HOH     H1 2080   2.471   2.079   1.493
  625HOH     H2 2081   2.578   2.182   1.466
  626HOH      O 2082   2.075   1.612   1.577
  626HOH     H1 2083   2.084   1.604   1.482
  626HOH     H2 2084   2.130   1.688   1.599
  627HOH      O 2085   2.255   3.727   0.827
  627HOH     H1 2086   2.257   3.822   0.836
  627HOH     H2 2087   2.183   3.699   0.884
  628HOH      O 2088   0.447   0.875   2.770
  628HOH     H1 2089   0.496   0.870   2.852
  628HOH     H2 2090   0.510   0.906   2.705
  629HOH      O 2091   2.693   1.618   2.192
  629HOH     H1 2092   2.694   1.670   2.272
  629HOH     H2 2093   2.711   1.529   2.221
  630HOH      O 2094   1.708   3.789   2.734
  630HOH     H1 2095   1.617   3.786   2.764
  630HOH     H2 2096   1.704   3.761   2.643
  631HOH      O 2097   2.709   2.921   1.184
  631HOH     H1 2098   2.782   2.974   1.215
  631HOH     H2 2099   2.745   2.832   1.178
  632HOH      O 2100   1.386   3.656   3.933
  632HOH     H1 2101   1.476   3.659   3.967
  632HOH     H2 2102   1.339   3.721   3.985
  633HOH      O 2103   0.882   3.945   4.034
  633HOH     H1 2104   0.956   3.905   4.078
  633HOH     H2 2105   0.909   3.955   3.943
  634HOH      O 2106   0.718   3.700   2.526
  634HOH     H1 2107   0.766   3.781   2.515
  634HOH     H2 2108   0.626   3.728   2.535
  635HOH      O 2109   1.028   0.601   2.208
  635HOH     H1 2110   1.082   0.676   2.233
  635HOH     H2 2111   1.022   0.548   2.288
  636HOH      O 2112   3.426   1.464   3.513
  636HOH     H1 2113   3.436   1.531   3.580
  636HOH     H2 2114   3.457   1.383   3.555
  637HOH      O 2115   3.035   1.457   1.756
  637HOH     H1 2116   2.964   1.478   1.695
  637HOH     H2 2117   3.039   1.361   1.757
  638HOH      O 2118   1.087   0.057   1.117
  638HOH     H1 2119   1.032  -0.020   1.114
  638HOH     H2 2120   1.072   0.095   1.204
  639HOH      O 2121   1.654   3.515   2.617
  639HOH     H1 2122   1.622   3.578   2.553
  639HOH     H2 2123   1.718   3.462   2.570
  640HOH      O 2124   1.235   0.639   3.913
  640HOH     H1 2125   1.265   0.548   3.912
  640HOH     H2 2126   1.315   0.691   3.913
  641HOH      O 2127   0.997   0.539   0.432
  641HOH     H1 2128   0.920   0.482   0.427
  641HOH     H2 2129   1.071   0.480   0.416
  642HOH      O 2130   4.044   2.083   2.805
  642HOH     H1 2131   3.958   2.121   2.788
  642HOH     H2 2132   4.090   2.088   2.722
  643HOH      O 2133   0.685   1.308   0.127
  643HOH     H1 2134   0.626   1.232   0.128
  643HOH     H2 2135   0.626   1.383   0.119
  644HOH      O 2136   1.972   0.706   3.129
  644HOH     H1 2137   1.910   0.777   3.110
  644HOH     H2 2138   1.974   0.654   3.049
  645HOH      O 2139   0.762   3.693   2.171
  645HOH     H1 2140   0.699   3.765   2.161
  645HOH     H2 2141   0.735   3.649   2.252
  646HOH      O 2142   0.616   0.324   0.802
  646HOH     H1 2143   0.532   0.354   0.837
  646HOH     H2 2144   0.622   0.366   0.717
  647HOH      O 2145   2.634   2.330   1.148
  647HOH     H1 2146   2.703   2.271   1.117
  647HOH     H2 2147   2.609   2.380   1.070
  648HOH      O 2148   4.037   1.569   1.837
  648HOH     H1 2149   4.009   1.485   1.801
  648HOH     H2 2150   4.050   1.552   1.930
  649HOH      O 2151   3.208   0.723   0.998
  649HOH     H1 2152   3.197   0.746   1.091
  649HOH     H2 2153   3.125   0.749   0.958
  650HOH      O 2154   2.601   2.055   2.217
  650HOH     H1 2155   2.644   2.040   2.301
  650HOH     H2 2156   2.662   2.020   2.152
  651HOH      O 2157   0.420   1.788   1.243
  651HOH     H1 2158   0.404   1.882   1.232
  651HOH     H2 2159   0.483   1.765   1.175
  652HOH      O 2160   2.955   3.545   1.674
  652HOH     H1 2161   2.922   3.632   1.652
  652HOH     H2 2162   3.050   3.554   1.668
  653HOH      O 2163   1.778   3.666   0.361
  653HOH     H1 2164   1.716   3.651   0.432
  653HOH     H2 2165   1.792   3.580   0.322
  654HOH      O 2166   0.179   2.773   1.578
  654HOH     H1 2167   0.245   2.794   1.644
  654HOH     H2 2168   0.217   2.800   1.495
  655HOH      O 2169   3.837   1.732   3.313
  655HOH     H1 2170   3.750   1.699   3.336
  655HOH     H2 2171   3.820   1.798   3.246
  656HOH      O 2172   2.939   2.615   0.908
  656HOH     H1 2173   2.915   2.630   1.000
  656HOH     H2 2174   2.902   2.530   0.887
  657HOH      O 2175   2.650   2.022   0.466
  657HOH     H1 2176   2.574   2.069   0.432
  657HOH     H2 2177   2.614   1.963   0.533
  658HOH      O 2178   1.232   2.598   0.459
  658HOH     H1 2179   1.266   2.671   0.408
  658HOH     H2 2180   1.190   2.639   0.535
  659HOH      O 2181   1.760   3.907   0.207
  659HOH     H1 2182   1.848   3.943   0.222
  659HOH     H2 2183   1.757   3.829   0.262
  660HOH      O 2184   1.442   3.142   2.214
  660HOH     H1 2185   1.363   3.183   2.178
  660HOH     H2 2186   1.445   3.055   2.174
  661HOH      O 2187   3.934   1.915   0.817
  661HOH     H1 2188   3.917   1.849   0.750
  661HOH     H2 2189   3.991   1.979   0.774
  662HOH      O 2190   4.003   2.372   0.871
  662HOH     H1 2191   3.982   2.384   0.963
  662HOH     H2 2192   4.079   2.428   0.856
  663HOH      O 2193   3.249   2.762   1.061
  663HOH     H1 2194   3.261   2.752   1.156
  663HOH     H2 2195   3.327   2.724   1.022
  664HOH      O 2196   2.767   0.341   3.337
  664HOH     H1 2197   2.731   0.255   3.315
  664HOH     H2 2198   2.745   0.396   3.262
  665HOH      O 2199   0.123   0.391   0.399
  665HOH     H1 2200   0.154   0.425   0.483
  665HOH     H2 2201   0.103   0.299   0.415
  666HOH      O 2202   1.691   1.880   1.155
  666HOH     H1 2203   1.675   1.787   1.166
  666HOH     H2 2204   1.605   1.921   1.165
  667HOH      O 2205   2.712   0.098   2.379
  667HOH     H1 2206   2.670   0.108   2.464
  667HOH     H2 2207   2.685   0.010   2.350
  668HOH      O 2208   1.964   1.926   3.873
  668HOH     H1 2209   1.933   1.995   3.814
  668HOH     H2 2210   1.886   1.878   3.898
  669HOH      O 2211   3.913   0.921   1.956
  669HOH     H1 2212   3.892   0.828   1.964
  669HOH     H2 2213   3.836   0.965   1.993
  670HOH      O 2214   1.815   3.280   3.158
  670HOH     H1 2215   1.883   3.344   3.135
  670HOH     H2 2216   1.828   3.208   3.096
  671HOH      O 2217   0.942   1.345   0.886
  671HOH     H1 2218   0.949   1.363   0.793
  671HOH     H2 2219   0.906   1.256   0.891
  672HOH      O 2220   0.840   1.844   0.245
  672HOH     H1 2221   0.827   1.900   0.169
  672HOH     H2 2222   0.865   1.759   0.209
  673HOH      O 2223   0.434   0.188   1.828
  673HOH     H1 2224   0.382   0.208   1.906
  673HOH     H2 2225   0.444   0.272   1.783
  674HOH      O 2226   3.977   3.260   3.816
  674HOH     H1 2227   4.037   3.186   3.827
  674HOH     H2 2228   3.915   3.251   3.888
  675HOH      O 2229   3.615   0.712   3.533
  675HOH     H1 2230   3.634   0.619   3.519
  675HOH     H2 2231   3.520   0.716   3.543
  676HOH      O 2232   0.049   3.179   0.244
  676HOH     H1 2233   0.089   3.178   0.331
  676HOH     H2 2234   0.107   3.125   0.190
  677HOH      O 2235   2.490   1.738   3.475
  677HOH     H1 2236   2.460   1.748   3.565
  677HOH     H2 2237   2.435   1.799   3.425
  678HOH      O 2238   1.153   2.856   2.467
  678HOH     H1 2239   1.123   2.829   2.554
  678HOH     H2 2240   1.190   2.777   2.429
  679HOH      O 2241   0.942   3.870   0.810
  679HOH     H1 2242   0.888   3.949   0.799
  679HOH     H2 2243   1.032   3.903   0.814
  680HOH      O 2244   1.840   1.940   1.499
  680HOH     H1 2245   1.883   1.944   1.413
  680HOH     H2 2246   1.835   2.031   1.527
  681HOH      O 2247   0.749   0.890   1.424
  681HOH     H1 2248   0.820   0.955   1.425
  681HOH     H2 2249   0.706   0.901   1.509
  682HOH      O 2250   3.050   4.019   3.955
  682HOH     H1 2251   3.103   3.973   4.020
  682HOH     H2 2252   2.972   4.046   4.003
  683HOH      O 2253   0.037   1.046   0.446
  683HOH     H1 2254   0.098   0.996   0.500
  683HOH     H2 2255   0.055   1.017   0.357
  684HOH      O 2256   3.057   2.966   1.107
  684HOH     H1 2257   3.062   3.035   1.040
  684HOH     H2 2258   3.124   2.903   1.082
  685HOH      O 2259   0.177   1.148   0.200
  685HOH     H1 2260   0.222   1.168   0.282
  685HOH     H2 2261   0.185   1.053   0.191
  686HOH      O 2262   3.460   0.907   1.133
  686HOH     H1 2263   3.449   0.816   1.159
  686HOH     H2 2264   3.555   0.921   1.133
  687HOH      O 2265   1.562   0.319   1.106
  687HOH     H1 2266   1.499   0.323   1.034
  687HOH     H2 2267   1.647   0.329   1.064
  688HOH      O 2268   1.103   0.049   2.673
  688HOH     H1 2269   1.153  -0.032   2.659
  688HOH     H2 2270   1.078   0.046   2.765
  689HOH      O 2271   3.095   0.687   1.568
  689HOH     H1 2272   3.040   0.675   1.645
  689HOH     H2 2273   3.168   0.626   1.580
  690HOH      O 2274   0.776   0.069   0.199
  690HOH     H1 2275   0.795   0.011   0.125
  690HOH     H2 2276   0.704   0.125   0.168
  691HOH      O 2277   2.205   2.695   0.726
  691HOH     H1 2278   2.109   2.698   0.719
  691HOH     H2 2279   2.229   2.785   0.751
  692HOH      O 2280   1.212   3.405   2.212
  692HOH     H1 2281   1.144   3.472   2.210
  692HOH     H2 2282   1.246   3.408   2.302
  693HOH      O 2283   1.861   3.165   2.599
  693HOH     H1 2284   1.917   3.239   2.622
  693HOH     H2 2285   1.772   3.198   2.610
  694HOH      O 2286   3.467   2.449   0.297
  694HOH     H1 2287   3.530   2.379   0.282
  694HOH     H2 2288   3.410   2.416   0.367
  695HOH      O 2289   1.284   1.871   1.478
  695HOH     H1 2290   1.269   1.864   1.572
  695HOH     H2 2291   1.229   1.803   1.440
  696HOH      O 2292   3.747   3.925   0.077
  696HOH     H1 2293   3.813   3.994   0.082
  696HOH     H2 2294   3.749   3.884   0.164
  697HOH      O 2295   2.280   2.045   0.183
  697HOH     H1 2296   2.274   1.949   0.179
  697HOH     H2 2297   2.234   2.074   0.104
  698HOH      O 2298   2.753   1.372   2.297
  698HOH     H1 2299   2.796   1.343   2.216
  698HOH     H2 2300   2.792   1.317   2.365
  699HOH      O 2301   1.065   2.393   2.458
  699HOH     H1 2302   1.133   2.329   2.437
  699HOH     H2 2303   1.005   2.346   2.515
  700HOH      O 2304   1.950   3.471   0.723
  700HOH     H1 2305   2.039   3.452   0.695
  700HOH     H2 2306   1.927   3.398   0.781
  701HOH      O 2307   0.494   2.264   2.593
  701HOH     H1 2308   0.510   2.348   2.637
  701HOH     H2 2309   0.440   2.287   2.517
  702HOH      O 2310   1.660   0.995   2.062
  702HOH     H1 2311   1.567   1.005   2.085
  702HOH     H2 2312   1.681   1.075   2.014
  703HOH      O 2313   3.392   0.139   0.124
  703HOH     H1 2314   3.414   0.050   0.094
  703HOH     H2 2315   3.308   0.129   0.170
  704HOH      O 2316   3.467   1.521   3.248
  704HOH     H1 2317   3.494   1.612   3.264
  704HOH     H2 2318   3.449   1.486   3.335
  705HOH      O 2319   0.282   3.902   1.510
  705HOH     H1 2320   0.197   3.909   1.465
  705HOH     H2 2321   0.321   3.822   1.475
  706HOH      O 2322   3.998   1.639   0.945
  706HOH     H1 2323   3.959   1.715   0.989
  706HOH     H2 2324   3.925   1.597   0.901
  707HOH      O 2325   1.314   2.908   3.419
  707HOH     H1 2326   1.319   2.817   3.390
  707HOH     H2 2327   1.332   2.960   3.341
  708HOH      O 2328   1.296   3.734   3.221
  708HOH     H1 2329   1.321   3.822   3.192
  708HOH     H2 2330   1.210   3.720   3.180
  709HOH      O 2331   1.742   2.213   1.892
  709HOH     H1 2332   1.669   2.174   1.844
  709HOH     H2 2333   1.807   2.233   1.824
  710HOH      O 2334   0.600   1.133   1.248
  710HOH     H1 2335   0.596   1.096   1.160
  710HOH     H2 2336   0.694   1.145   1.264
  711HOH      O 2337   2.130   0.755   2.627
  711HOH     H1 2338   2.081   0.835   2.647
  711HOH     H2 2339   2.201   0.755   2.692
  712HOH      O 2340   3.330   2.727   2.852
  712HOH     H1 2341   3.312   2.821   2.849
  712HOH     H2 2342   3.248   2.688   2.882
  713HOH      O 2343   1.723   0.081   1.444
  713HOH     H1 2344   1.650   0.139   1.468
  713HOH     H2 2345   1.787   0.092   1.514
  714HOH      O 2346   1.836   2.567   1.348
  714HOH     H1 2347   1.799   2.489   1.389
  714HOH     H2 2348   1.810   2.560   1.256
  715HOH      O 2349   2.611   2.906   0.598
  715HOH     H1 2350   2.611   2.986   0.649
  715HOH     H2 2351   2.653   2.841   0.655
  716HOH      O 2352   0.298   2.738   4.000
  716HOH     H1 2353   0.335   2.731   3.912
  716HOH     H2 2354   0.292   2.648   4.031
  717HOH      O 2355   0.446   1.683   2.840
  717HOH     H1 2356   0.519   1.641   2.885
  717HOH     H2 2357   0.369   1.654   2.889
  718HOH      O 2358   0.709   2.218   0.829
  718HOH     H1 2359   0.716   2.133   0.786
  718HOH     H2 2360   0.798   2.239   0.856
  719HOH      O 2361   1.453   2.296   2.735
  719HOH     H1 2362   1.453   2.312   2.641
  719HOH     H2 2363   1.419   2.207   2.745
  720HOH      O 2364   2.252   2.007   1.348
  720HOH     H1 2365   2.330   2.023   1.295
  720HOH     H2 2366   2.184   1.984   1.284
  721HOH      O 2367   0.237   0.272   1.998
  721HOH     H1 2368   0.160   0.329   1.991
  721HOH     H2 2369   0.207   0.188   1.963
  722HOH      O 2370   2.534   3.381   0.831
  722HOH     H1 2371   2.552   3.406   0.922
  722HOH     H2 2372   2.439   3.393   0.821
  723HOH      O 2373   1.277   0.491   3.280
  723HOH     H1 2374   1.256   0.410   3.327
  723HOH     H2 2375   1.318   0.547   3.346
  724HOH      O 2376   1.932   0.978   3.724
  724HOH     H1 2377   1.989   0.901   3.732
  724HOH     H2 2378   1.993   1.051   3.716
  725HOH      O 2379   3.649   0.849   1.557
  725HOH     H1 2380   3.671   0.881   1.645
  725HOH     H2 2381   3.570   0.797   1.570
  726HOH      O 2382   0.922   1.191   1.396
  726HOH     H1 2383   0.860   1.264   1.401
  726HOH     H2 2384   0.908   1.143   1.478
  727HOH      O 2385   0.957   1.464   1.675
  727HOH     H1 2386   0.998   1.459   1.589
  727HOH     H2 2387   0.987   1.385   1.720
  728HOH      O 2388   3.084   0.150   1.678
  728HOH     H1 2389   3.012   0.212   1.664
  728HOH     H2 2390   3.113   0.168   1.767
  729HOH      O 2391   0.039   0.058   1.941
  729HOH     H1 2392   0.038   0.135   1.884
  729HOH     H2 2393  -0.048   0.019   1.930
  730HOH      O 2394   1.885   1.569   3.344
  730HOH     H1 2395   1.965   1.620   3.330
  730HOH     H2 2396   1.863   1.535   3.257
  731HOH      O 2397   3.091   3.163   0.251
  731HOH     H1 2398   3.062   3.108   0.178
  731HOH     H2 2399   3.135   3.237   0.210
  732HOH      O 2400   3.274   1.674   0.267
  732HOH     H1 2401   3.310   1.587   0.281
  732HOH     H2 2402   3.300   1.697   0.177
  733HOH      O 2403   2.839   1.569   0.009
  733HOH     H1 2404   2.891   1.596   0.084
  733HOH     H2 2405   2.748   1.581   0.036
  734HOH      O 2406   1.835   2.531   3.665
  734HOH     H1 2407   1.759   2.477   3.688
  734HOH     H2 2408   1.799   2.618   3.648
  735HOH      O 2409   2.966   2.889   0.383
  735HOH     H1 2410   2.939   2.967   0.335
  735HOH     H2 2411   3.060   2.901   0.398
  736HOH      O 2412   2.460   1.589   3.230
  736HOH     H1 2413   2.514   1.630   3.297
  736HOH     H2 2414   2.498   1.501   3.220
  737HOH      O 2415   1.025   0.153   1.363
  737HOH     H1 2416   1.116   0.177   1.344
  737HOH     H2 2417   1.000   0.211   1.435
  738HOH      O 2418   0.689   1.337   1.984
  738HOH     H1 2419   0.616   1.275   1.980
  738HOH     H2 2420   0.665   1.397   2.055
  739HOH      O 2421   0.023   3.587   0.202
  739HOH     H1 2422   0.026   3.613   0.294
  739HOH     H2 2423   0.069   3.657   0.156
  740HOH      O 2424   0.795   2.694   3.438
  740HOH     H1 2425   0.749   2.695   3.354
  740HOH     H2 2426   0.887   2.708   3.415
  741HOH      O 2427   0.317   0.452   3.211
  741HOH     H1 2428   0.386   0.515   3.235
  741HOH     H2 2429   0.320   0.387   3.281
  742HOH      O 2430   2.832   1.338   3.492
  742HOH     H1 2431   2.809   1.271   3.427
  742HOH     H2 2432   2.794   1.419   3.458
  743HOH      O 2433   0.865   1.115   1.636
  743HOH     H1 2434   0.817   1.053   1.690
  743HOH     H2 2435   0.926   1.158   1.697
  744HOH      O 2436   3.020   3.864   0.826
  744HOH     H1 2437   3.071   3.926   0.877
  744HOH     H2 2438   2.957   3.828   0.888
  745HOH      O 2439   1.506   1.431   0.618
  745HOH     H1 2440   1.430   1.374   0.627
  745HOH     H2 2441   1.475   1.517   0.647
  746HOH      O 2442   2.303   2.847   3.928
  746HOH     H1 2443   2.336   2.757   3.933
  746HOH     H2 2444   2.370   2.899   3.973
  747HOH      O 2445   3.779   2.916   1.685
  747HOH     H1 2446   3.848   2.917   1.619
  747HOH     H2 2447   3.797   2.994   1.739
  748HOH      O 2448   0.700   1.669   1.434
  748HOH     H1 2449   0.618   1.715   1.448
  748HOH     H2 2450   0.719   1.683   1.341
  749HOH      O 2451   2.479   3.222   2.049
  749HOH     H1 2452   2.398   3.172   2.059
  749HOH     H2 2453   2.516   3.225   2.137
  750HOH      O 2454   1.273   1.018   2.723
  750HOH     H1 2455   1.281   1.108   2.756
  750HOH     H2 2456   1.344   0.971   2.767
  751HOH      O 2457   3.507   3.222   3.673
  751HOH     H1 2458   3.424   3.231   3.626
  751HOH     H2 2459   3.574   3.241   3.607
  752HOH      O 2460   0.345   1.761   0.511
  752HOH     H1 2461   0.266   1.768   0.563
  752HOH     H2 2462   0.366   1.852   0.487
  753HOH      O 2463   2.900   0.622   1.282
  753HOH     H1 2464   2.850   0.627   1.363
  753HOH     H2 2465   2.948   0.705   1.278
  754HOH      O 2466   0.142   3.839   3.836
  754HOH     H1 2467   0.051   3.867   3.830
  754HOH     H2 2468   0.169   3.824   3.745
  755HOH      O 2469   2.446   0.067   0.630
  755HOH     H1 2470   2.388   0.018   0.572
  755HOH     H2 2471   2.534   0.055   0.593
  756HOH      O 2472   3.862   0.556   1.678
  756HOH     H1 2473   3.860   0.625   1.611
  756HOH     H2 2474   3.839   0.601   1.759
  757HOH      O 2475   3.250   2.927   3.508
  757HOH     H1 2476   3.286   2.859   3.565
  757HOH     H2 2477   3.190   2.880   3.450
  758HOH      O 2478   0.315   1.827   0.896
  758HOH     H1 2479   0.245   1.849   0.958
  758HOH     H2 2480   0.282   1.751   0.849
  759HOH      O 2481   0.190   1.603   2.058
  759HOH     H1 2482   0.272   1.608   2.008
  759HOH     H2 2483   0.160   1.694   2.062
  760HOH      O 2484   2.489   1.737   2.710
  760HOH     H1 2485   2.578   1.762   2.684
  760HOH     H2 2486   2.500   1.656   2.759
  761HOH      O 2487   2.703   1.959   3.989
  761HOH     H1 2488   2.654   1.944   4.069
  761HOH     H2 2489   2.686   1.881   3.936
  762HOH      O 2490   3.564   3.754   3.614
  762HOH     H1 2491   3.633   3.689   3.605
  762HOH     H2 2492   3.572   3.810   3.537
  763HOH      O 2493   3.994   1.333   0.181
  763HOH     H1 2494   4.079   1.290   0.191
  763HOH     H2 2495   4.014   1.416   0.138
  764HOH      O 2496   1.749   0.857   0.582
  764HOH     H1 2497   1.689   0.842   0.508
  764HOH     H2 2498   1.797   0.775   0.591
  765HOH      O 2499   0.264   1.164   3.001
  765HOH     H1 2500   0.274   1.071   3.021
  765HOH     H2 2501   0.351   1.192   2.972
  766HOH      O 2502   3.558   1.672   2.008
  766HOH     H1 2503   3.634   1.730   2.013
  766HOH     H2 2504   3.483   1.729   2.024
  767HOH      O 2505   2.624   2.009   2.504
  767HOH     H1 2506   2.671   2.045   2.580
  767HOH     H2 2507   2.534   2.037   2.517
  768HOH      O 2508   3.502   3.103   3.897
  768HOH     H1 2509   3.455   3.024   3.870
  768HOH     H2 2510   3.499   3.160   3.820
  769HOH      O 2511   2.429   0.809   0.773
  769HOH     H1 2512   2.357   0.747   0.759
  769HOH     H2 2513   2.507   0.754   0.776
  770HOH      O 2514   2.348   1.091   1.250
  770HOH     H1 2515   2.337   1.148   1.326
  770HOH     H2 2516   2.358   1.151   1.177
  771HOH      O 2517   2.918   1.197   0.114
  771HOH     H1 2518   2.966   1.120   0.084
  771HOH     H2 2519   2.865   1.165   0.187
  772HOH      O 2520   1.745   1.200   1.646
  772HOH     H1 2521   1.796   1.124   1.620
  772HOH     H2 2522   1.654   1.176   1.627
  773HOH      O 2523   3.770   4.016   1.229
  773HOH     H1 2524   3.679   3.985   1.234
  773HOH     H2 2525   3.785   4.058   1.314
  774HOH      O 2526   0.645   1.796   4.058
  774HOH     H1 2527   0.656   1.845   3.976
  774HOH     H2 2528   0.718   1.734   4.059
  775HOH      O 2529   2.913   1.376   0.917
  775HOH     H1 2530   2.857   1.404   0.989
  775HOH     H2 2531   2.911   1.280   0.922
  776HOH      O 2532   1.704   1.154   2.811
  776HOH     H1 2533   1.639   1.215   2.778
  776HOH     H2 2534   1.784   1.175   2.762
  777HOH      O 2535   1.856   3.550   2.821
  777HOH     H1 2536   1.813   3.625   2.777
  777HOH     H2 2537   1.785   3.507   2.869
  778HOH      O 2538   1.677   3.144   3.595
  778HOH     H1 2539   1.772   3.146   3.599
  778HOH     H2 2540   1.655   3.191   3.515
  779HOH      O 2541   2.886   0.847   0.296
  779HOH     H1 2542   2.888   0.937   0.327
  779HOH     H2 2543   2.792   0.825   0.293
  780HOH      O 2544   0.891   1.823   3.855
  780HOH     H1 2545   0.941   1.825   3.774
  780HOH     H2 2546   0.852   1.910   3.861
  781HOH      O 2547   3.081   0.883   3.268
  781HOH     H1 2548   3.095   0.827   3.344
  781HOH     H2 2549   3.125   0.965   3.291
  782HOH      O 2550   3.733   3.537   3.544
  782HOH     H1 2551   3.703   3.514   3.456
  782HOH     H2 2552   3.748   3.453   3.587
  783HOH      O 2553   2.415   3.336   3.246
  783HOH     H1 2554   2.388   3.273   3.313
  783HOH     H2 2555   2.506   3.355   3.266
  784HOH      O 2556   2.153   3.688  -0.033
  784HOH     H1 2557   2.192   3.746   0.033
  784HOH     H2 2558   2.123   3.612   0.017
  785HOH      O 2559   1.985   0.321   3.727
  785HOH     H1 2560   2.019   0.232   3.734
  785HOH     H2 2561   1.957   0.329   3.635
  786HOH      O 2562   1.624   2.912   2.679
  786HOH     H1 2563   1.581   2.880   2.600
  786HOH     H2 2564   1.708   2.866   2.681
  787HOH      O 2565  -0.006   2.327   3.077
  787HOH     H1 2566   0.054   2.398   3.098
  787HOH     H2 2567   0.016   2.303   2.987
  788HOH      O 2568   0.840   0.756   2.632
  788HOH     H1 2569   0.852   0.682   2.692
  788HOH     H2 2570   0.929   0.788   2.616
  789HOH      O 2571   1.910   1.127   2.984
  789HOH     H1 2572   1.945   1.215   2.973
  789HOH     H2 2573   1.834   1.123   2.927
  790HOH      O 2574   1.425   0.991   0.583
  790HOH     H1 2575   1.454   1.027   0.666
  790HOH     H2 2576   1.413   0.897   0.600
  791HOH      O 2577   2.649   3.110   1.502
  791HOH     H1 2578   2.566   3.063   1.505
  791HOH     H2 2579   2.650   3.162   1.582
  792HOH      O 2580   1.548   1.709   2.715
  792HOH     H1 2581   1.568   1.734   2.805
  792HOH     H2 2582   1.629   1.669   2.683
  793HOH      O 2583   2.000   0.716   0.593
  793HOH     H1 2584   1.985   0.700   0.500
  793HOH     H2 2585   2.062   0.789   0.595
  794HOH      O 2586   3.285   1.142   1.589
  794HOH     H1 2587   3.292   1.128   1.495
  794HOH     H2 2588   3.281   1.237   1.599
  795HOH      O 2589   4.068   1.896   3.315
  795HOH     H1 2590   4.001   1.832   3.293
  795HOH     H2 2591   4.022   1.980   3.313
  796HOH      O 2592   3.380   1.465   2.007
  796HOH     H1 2593   3.432   1.538   1.975
  796HOH     H2 2594   3.313   1.452   1.939
  797HOH      O 2595   2.366   0.480   1.867
  797HOH     H1 2596   2.398   0.560   1.909
  797HOH     H2 2597   2.272   0.481   1.880
  798HOH      O 2598   1.898   1.820   2.002
  798HOH     H1 2599   1.920   1.870   1.924
  798HOH     H2 2600   1.813   1.854   2.029
  799HOH      O 2601   2.356   2.167   3.152
  799HOH     H1 2602   2.309   2.200   3.228
  799HOH     H2 2603   2.288   2.154   3.086
  800HOH      O 2604   1.887   1.986   3.410
  800HOH     H1 2605   1.968   2.036   3.401
  800HOH     H2 2606   1.842   1.998   3.327
  801HOH      O 2607   0.489   2.689   2.248
  801HOH     H1 2608   0.557   2.755   2.232
  801HOH     H2 2609   0.520   2.611   2.203
  802HOH      O 2610   0.126   1.091   3.543
  802HOH     H1 2611   0.127   1.054   3.631
  802HOH     H2 2612   0.087   1.178   3.553
  803HOH      O 2613   0.148   1.692   0.703
  803HOH     H1 2614   0.102   1.683   0.620
  803HOH     H2 2615   0.079   1.693   0.769
  804HOH      O 2616   3.873   1.452   2.325
  804HOH     H1 2617   3.957   1.453   2.371
  804HOH     H2 2618   3.811   1.491   2.387
  805HOH      O 2619   1.129   2.716   0.062
  805HOH     H1 2620   1.051   2.734   0.010
  805HOH     H2 2621   1.097   2.664   0.136
  806HOH      O 2622   2.236   0.847   3.086
  806HOH     H1 2623   2.314   0.822   3.036
  806HOH     H2 2624   2.163   0.809   3.037
  807HOH      O 2625   0.887   1.225   0.274
  807HOH     H1 2626   0.804   1.246   0.231
  807HOH     H2 2627   0.954   1.259   0.215
  808HOH      O 2628   3.156   2.365   2.808
  808HOH     H1 2629   3.244   2.339   2.837
  808HOH     H2 2630   3.101   2.289   2.827
  809HOH      O 2631   3.875   2.249   0.162
  809HOH     H1 2632   3.882   2.344   0.172
  809HOH     H2 2633   3.798   2.236   0.107
  810HOH      O 2634   1.665   3.368   3.385
  810HOH     H1 2635   1.718   3.337   3.312
  810HOH     H2 2636   1.599   3.425   3.345
  811HOH      O 2637   2.550   2.356   0.303
  811HOH     H1 2638   2.491   2.285   0.326
  811HOH     H2 2639   2.494   2.432   0.290
  812HOH      O 2640   3.693   1.076   2.070
  812HOH     H1 2641   3.643   1.077   2.151
  812HOH     H2 2642   3.642   1.130   2.010
  813HOH      O 2643   3.732   2.765   3.073
  813HOH     H1 2644   3.664   2.829   3.093
  813HOH     H2 2645   3.754   2.780   2.982
  814HOH      O 2646   0.101   3.833   2.257
  814HOH     H1 2647   0.061   3.812   2.342
  814HOH     H2 2648   0.033   3.809   2.193
  815HOH      O 2649   2.400   2.916   2.858
  815HOH     H1 2650   2.350   2.851   2.809
  815HOH     H2 2651   2.339   2.950   2.922
  816HOH      O 2652   2.775   1.744   2.696
  816HOH     H1 2653   2.774   1.822   2.752
  816HOH     H2 2654   2.849   1.692   2.727
  817HOH      O 2655   0.728   3.839   3.680
  817HOH     H1 2656   0.664   3.828   3.750
  817HOH     H2 2657   0.694   3.786   3.608
  818HOH      O 2658   2.890   3.895   1.175
  818HOH     H1 2659   2.914   3.808   1.144
  818HOH     H2 2660   2.965   3.950   1.153
  819HOH      O 2661   3.067   3.112   3.773
  819HOH     H1 2662   3.142   3.131   3.717
  819HOH     H2 2663   3.001   3.076   3.714
  820HOH      O 2664   0.658   1.543   2.968
  820HOH     H1 2665   0.665   1.475   2.901
  820HOH     H2 2666   0.744   1.586   2.968
  821HOH      O 2667   1.834   3.160   3.866
  821HOH     H1 2668   1.919   3.154   3.821
  821HOH     H2 2669   1.782   3.091   3.827
  822HOH      O 2670   2.409   2.126   0.413
  822HOH     H1 2671   2.350   2.165   0.479
  822HOH     H2 2672   2.350   2.089   0.348
  823HOH      O 2673   3.270   2.346   0.460
  823HOH     H1 2674   3.237   2.416   0.516
  823HOH     H2 2675   3.293   2.276   0.521
  824HOH      O 2676   2.353   4.044   3.633
  824HOH     H1 2677   2.427   3.983   3.635
  824HOH     H2 2678   2.331   4.054   3.541
  825HOH      O 2679   3.828   2.939   0.048
  825HOH     H1 2680   3.830   3.017   0.104
  825HOH     H2 2681   3.755   2.954  -0.012
  826HOH      O 2682   2.275   2.032   2.887
  826HOH     H1 2683   2.205   1.968   2.875
  826HOH     H2 2684   2.339   1.986   2.941
  827HOH      O 2685   3.257   2.339   0.009
  827HOH     H1 2686   3.316   2.415   0.007
  827HOH     H2 2687   3.170   2.376  -0.006
  828HOH      O 2688   3.010   1.667   2.092
  828HOH     H1 2689   3.089   1.680   2.039
  828HOH     H2 2690   2.959   1.747   2.080
  829HOH      O 2691   1.608   0.193   2.352
  829HOH     H1 2692   1.621   0.277   2.396
  829HOH     H2 2693   1.694   0.174   2.312
  830HOH      O 2694   1.216   0.509   0.877
  830HOH     H1 2695   1.123   0.530   0.865
  830HOH     H2 2696   1.243   0.559   0.953
  831HOH      O 2697   1.222   1.643   2.346
  831HOH     H1 2698   1.198   1.733   2.369
  831HOH     H2 2699   1.171   1.589   2.406
  832HOH      O 2700   2.788   3.361   0.008
  832HOH     H1 2701   2.752   3.334   0.092
  832HOH     H2 2702   2.772   3.286  -0.050
  833HOH      O 2703   1.640   2.823   0.495
  833HOH     H1 2704   1.704   2.882   0.536
  833HOH     H2 2705   1.565   2.823   0.555
  834HOH      O 2706   3.492   0.726   1.988
  834HOH     H1 2707   3.483   0.648   2.043
  834HOH     H2 2708   3.405   0.766   1.991
  835HOH      O 2709   3.714   2.511   3.383
  835HOH     H1 2710   3.669   2.586   3.420
  835HOH     H2 2711   3.801   2.514   3.422
  836HOH      O 2712   2.641   3.633   1.663
  836HOH     H1 2713   2.606   3.551   1.629
  836HOH     H2 2714   2.720   3.648   1.612
  837HOH      O 2715   3.234   0.765   1.992
  837HOH     H1 2716   3.198   0.837   1.940
  837HOH     H2 2717   3.180   0.689   1.969
  838HOH      O 2718   1.472   1.943   3.559
  838HOH     H1 2719   1.422   1.975   3.634
  838HOH     H2 2720   1.473   1.848   3.569
  839HOH      O 2721   3.577   3.923   1.908
  839HOH     H1 2722   3.534   3.868   1.974
  839HOH     H2 2723   3.506   3.967   1.863
  840HOH      O 2724   2.265   1.782   0.186
  840HOH     H1 2725   2.261   1.689   0.164
  840HOH     H2 2726   2.282   1.783   0.280
  841HOH      O 2727   3.944   2.675   1.333
  841HOH     H1 2728   3.855   2.676   1.299
  841HOH     H2 2729   3.940   2.616   1.409
  842HOH      O 2730   1.116   1.383   1.467
  842HOH     H1 2731   1.075   1.311   1.419
  842HOH     H2 2732   1.155   1.341   1.544
  843HOH      O 2733   0.426   2.028   0.736
  843HOH     H1 2734   0.510   1.983   0.738
  843HOH     H2 2735   0.367   1.970   0.786
  844HOH      O 2736   2.553   0.509   1.421
  844HOH     H1 2737   2.541   0.596   1.382
  844HOH     H2 2738   2.647   0.496   1.424
  845HOH      O 2739   2.100   3.781   2.467
  845HOH     H1 2740   2.043   3.840   2.417
  845HOH     H2 2741   2.085   3.804   2.559
  846HOH      O 2742   1.918   0.337   0.074
  846HOH     H1 2743   1.825   0.354   0.058
  846HOH     H2 2744   1.929   0.346   0.168
  847HOH      O 2745   0.553   1.447   2.190
  847HOH     H1 2746   0.519   1.474   2.275
  847HOH     H2 2747   0.500   1.370   2.166
  848HOH      O 2748   2.065   3.739   0.366
  848HOH     H1 2749   2.052   3.778   0.452
  848HOH     H2 2750   1.989   3.682   0.353
  849HOH      O 2751   4.005   1.272   0.794
  849HOH     H1 2752   3.960   1.209   0.851
  849HOH     H2 2753   4.049   1.332   0.855
  850HOH      O 2754   1.741   0.159   3.248
  850HOH     H1 2755   1.727   0.167   3.342
  850HOH     H2 2756   1.792   0.079   3.238
  851HOH      O 2757   1.835   3.000   1.466
  851HOH     H1 2758   1.909   2.991   1.526
  851HOH     H2 2759   1.764   2.952   1.508
  852HOH      O 2760   2.733   1.515   1.678
  852HOH     H1 2761   2.710   1.528   1.770
  852HOH     H2 2762   2.650   1.494   1.635
  853HOH      O 2763   3.011   3.251   1.616
  853HOH     H1 2764   3.020   3.339   1.653
  853HOH     H2 2765   3.089   3.240   1.561
  854HOH      O 2766   0.566   4.007   3.388
  854HOH     H1 2767   0.650   4.053   3.395
  854HOH     H2 2768   0.548   3.978   3.478
  855HOH      O 2769   3.976   1.075   0.025
  855HOH     H1 2770   4.035   1.002   0.045
  855HOH     H2 2771   3.987   1.135   0.099
  856HOH      O 2772   2.151   0.031   0.219
  856HOH     H1 2773   2.194  -0.052   0.197
  856HOH     H2 2774   2.141   0.075   0.135
  857HOH      O 2775   0.887   0.652   3.550
  857HOH     H1 2776   0.971   0.626   3.589
  857HOH     H2 2777   0.836   0.685   3.623
  858HOH      O 2778   0.860   1.515   2.358
  858HOH     H1 2779   0.889   1.541   2.446
  858HOH     H2 2780   0.767   1.495   2.368
  859HOH      O 2781   1.836   1.413   2.188
  859HOH     H1 2782   1.913   1.460   2.155
  859HOH     H2 2783   1.807   1.359   2.115
  860HOH      O 2784   3.808   0.800   3.341
  860HOH     H1 2785   3.779   0.745   3.267
  860HOH     H2 2786   3.741   0.786   3.408
  861HOH      O 2787   3.869   0.725   1.451
  861HOH     H1 2788   3.845   0.705   1.361
  861HOH     H2 2789   3.794   0.774   1.485
  862HOH      O 2790   0.072   1.359   2.142
  862HOH     H1 2791   0.030   1.357   2.056
  862HOH     H2 2792   0.140   1.425   2.134
  863HOH      O 2793   2.552   0.755   0.139
  863HOH     H1 2794   2.477   0.743   0.082
  863HOH     H2 2795   2.577   0.847   0.128
  864HOH      O 2796   0.652   2.456   3.701
  864HOH     H1 2797   0.669   2.506   3.781
  864HOH     H2 2798   0.637   2.366   3.732
  865HOH      O 2799   2.329   1.878   3.306
  865HOH     H1 2800   2.275   1.799   3.310
  865HOH     H2 2801   2.274   1.947   3.343
  866HOH      O 2802   0.828   3.747   2.991
  866HOH     H1 2803   0.910   3.794   3.002
  866HOH     H2 2804   0.807   3.716   3.079
  867HOH      O 2805   1.293   2.933   0.088
  867HOH     H1 2806   1.256   3.019   0.067
  867HOH     H2 2807   1.227   2.870   0.059
  868HOH      O 2808   1.418   1.794   3.013
  868HOH     H1 2809   1.502   1.766   2.977
  868HOH     H2 2810   1.418   1.889   3.002
  869HOH      O 2811   1.346   2.850   2.202
  869HOH     H1 2812   1.399   2.801   2.139
  869HOH     H2 2813   1.260   2.808   2.197
  870HOH      O 2814   0.894   2.043   0.051
  870HOH     H1 2815   0.889   2.057  -0.043
  870HOH     H2 2816   0.859   2.123   0.090
  871HOH      O 2817   0.484   0.098   2.477
  871HOH     H1 2818   0.437   0.142   2.406
  871HOH     H2 2819   0.531   0.167   2.522
  872HOH      O 2820   1.314   2.135   1.404
  872HOH     H1 2821   1.310   2.044   1.430
  872HOH     H2 2822   1.277   2.137   1.315
  873HOH      O 2823   3.561   0.384   0.150
  873HOH     H1 2824   3.537   0.405   0.240
  873HOH     H2 2825   3.504   0.311   0.126
  874HOH      O 2826   3.847   2.968   2.647
  874HOH     H1 2827   3.772   3.014   2.609
  874HOH     H2 2828   3.920   3.029   2.637
  875HOH      O 2829   0.470   3.302   2.431
  875HOH     H1 2830   0.536   3.249   2.476
  875HOH     H2 2831   0.402   3.239   2.406
  876HOH      O 2832   2.856   1.229   2.528
  876HOH     H1 2833   2.810   1.196   2.605
  876HOH     H2 2834   2.948   1.223   2.551
  877HOH      O 2835   0.480   0.211   3.677
  877HOH     H1 2836   0.497   0.244   3.766
  877HOH     H2 2837   0.474   0.116   3.688
  878HOH      O 2838   1.312   1.076   2.457
  878HOH     H1 2839   1.263   1.150   2.421
  878HOH     H2 2840   1.276   1.063   2.545
  879HOH      O 2841   0.134   0.019   0.709
  879HOH     H1 2842   0.188   0.078   0.762
  879HOH     H2 2843   0.168  -0.068   0.730
  880HOH      O 2844   1.473   3.296   3.728
  880HOH     H1 2845   1.411   3.231   3.693
  880HOH     H2 2846   1.559   3.260   3.711
  881HOH      O 2847   0.250   3.199   3.949
  881HOH     H1 2848   0.273   3.146   4.025
  881HOH     H2 2849   0.213   3.279   3.986
  882HOH      O 2850   2.699   1.757   2.439
  882HOH     H1 2851   2.730   1.729   2.525
  882HOH     H2 2852   2.665   1.845   2.454
  883HOH      O 2853   0.362   2.152   2.181
  883HOH     H1 2854   0.435   2.166   2.241
  883HOH     H2 2855   0.351   2.235   2.136
  884HOH      O 2856   0.322   3.519   1.838
  884HOH     H1 2857   0.307   3.533   1.744
  884HOH     H2 2858   0.357   3.603   1.869
  885HOH      O 2859   2.137   3.250   1.958
  885HOH     H1 2860   2.178   3.192   2.023
  885HOH     H2 2861   2.095   3.318   2.011
  886HOH      O 2862   0.610   1.056   1.003
  886HOH     H1 2863   0.533   1.005   0.977
  886HOH     H2 2864   0.615   1.126   0.938
  887HOH      O 2865   1.597   0.561   3.823
  887HOH     H1 2866   1.575   0.624   3.891
  887HOH     H2 2867   1.667   0.602   3.773
  888HOH      O 2868   2.834   0.334   1.409
  888HOH     H1 2869   2.915   0.350   1.361
  888HOH     H2 2870   2.796   0.257   1.366
  889HOH      O 2871   2.947   1.808   3.442
  889HOH     H1 2872   2.976   1.796   3.532
  889HOH     H2 2873   2.880   1.877   3.448
  890HOH      O 2874   1.816   1.480   0.953
  890HOH     H1 2875   1.810   1.444   1.041
  890HOH     H2 2876   1.744   1.439   0.905
  891HOH      O 2877   1.018   0.976   1.273
  891HOH     H1 2878   0.994   1.065   1.296
  891HOH     H2 2879   0.976   0.961   1.188
  892HOH      O 2880   1.209   1.637   1.371
  892HOH     H1 2881   1.186   1.545   1.384
  892HOH     H2 2882   1.302   1.641   1.394
  893HOH      O 2883   0.203   3.193   2.396
  893HOH     H1 2884   0.210   3.145   2.479
  893HOH     H2 2885   0.247   3.276   2.413
  894HOH      O 2886   0.576   2.178   3.440
  894HOH     H1 2887   0.629   2.233   3.497
  894HOH     H2 2888   0.591   2.089   3.473
  895HOH      O 2889   1.940   3.162   2.323
  895HOH     H1 2890   2.029   3.196   2.321
  895HOH     H2 2891   1.913   3.169   2.415
  896HOH      O 2892   1.402   0.249   3.409
  896HOH     H1 2893   1.366   0.160   3.408
  896HOH     H2 2894   1.496   0.237   3.413
  897HOH      O 2895   1.705   2.588   1.652
  897HOH     H1 2896   1.743   2.515   1.603
  897HOH     H2 2897   1.780   2.630   1.694
  898HOH      O 2898   3.616   1.360   2.585
  898HOH     H1 2899   3.531   1.386   2.550
  898HOH     H2 2900   3.597   1.333   2.675
  899HOH      O 2901   0.090   3.356   1.485
  899HOH     H1 2902   0.158   3.413   1.522
  899HOH     H2 2903   0.008   3.394   1.517
  900HOH      O 2904   2.619   3.156   0.702
  900HOH     H1 2905   2.564   3.206   0.762
  900HOH     H2 2906   2.698   3.209   0.693
  901HOH      O 2907   1.801   3.735   3.995
  901HOH     H1 2908   1.818   3.827   3.977
  901HOH     H2 2909   1.824   3.724   4.087
  902HOH      O 2910   3.628   2.243   0.345
  902HOH     H1 2911   3.578   2.161   0.351
  902HOH     H2 2912   3.719   2.215   0.341
  903HOH      O 2913   2.381   2.419   3.754
  903HOH     H1 2914   2.296   2.438   3.714
  903HOH     H2 2915   2.359   2.381   3.839
  904HOH      O 2916   1.931   1.328  -0.001
  904HOH     H1 2917   1.957   1.352   0.088
  904HOH     H2 2918   1.988   1.255  -0.024
  905HOH      O 2919   1.911   0.296   1.601
  905HOH     H1 2920   1.958   0.213   1.611
  905HOH     H2 2921   1.834   0.286   1.658
  906HOH      O 2922   1.240   3.763   0.904
  906HOH     H1 2923   1.232   3.758   0.999
  906HOH     H2 2924   1.176   3.699   0.871
  907HOH      O 2925   3.633   3.093   2.424
  907HOH     H1 2926   3.607   3.116   2.334
  907HOH     H2 2927   3.718   3.137   2.435
  908HOH      O 2928   2.982   3.370   1.182
  908HOH     H1 2929   2.926   3.339   1.111
  908HOH     H2 2930   2.953   3.321   1.259
  909HOH      O 2931   0.646   0.992   3.259
  909HOH     H1 2932   0.582   1.059   3.285
  909HOH     H2 2933   0.674   0.952   3.341
  910HOH      O 2934   3.287   2.295   1.122
  910HOH     H1 2935   3.222   2.350   1.078
  910HOH     H2 2936   3.346   2.268   1.052
  911HOH      O 2937   0.631   1.801   0.944
  911HOH     H1 2938   0.640   1.851   0.863
  911HOH     H2 2939   0.543   1.763   0.938
  912HOH      O 2940   1.466   2.138   0.333
  912HOH     H1 2941   1.411   2.059   0.336
  912HOH     H2 2942   1.414   2.205   0.378
  913HOH      O 2943   3.399   1.759   2.573
  913HOH     H1 2944   3.360   1.818   2.508
  913HOH     H2 2945   3.484   1.736   2.536
  914HOH      O 2946   1.608   3.484   2.953
  914HOH     H1 2947   1.629   3.439   3.035
  914HOH     H2 2948   1.541   3.430   2.912
  915HOH      O 2949   0.445   2.601   2.643
  915HOH     H1 2950   0.357   2.564   2.635
  915HOH     H2 2951   0.430   2.692   2.668
  916HOH      O 2952   2.394   0.586   0.559
  916HOH     H1 2953   2.328   0.518   0.571
  916HOH     H2 2954   2.474   0.548   0.596
  917HOH      O 2955   3.923   0.219   0.305
  917HOH     H1 2956   3.927   0.152   0.237
  917HOH     H2 2957   3.974   0.292   0.269
  918HOH      O 2958   1.068   0.581   1.458
  918HOH     H1 2959   0.992   0.584   1.516
  918HOH     H2 2960   1.131   0.525   1.502
  919HOH      O 2961   3.562   3.015   0.887
  919HOH     H1 2962   3.510   3.095   0.897
  919HOH     H2 2963   3.626   3.037   0.819
  920HOH      O 2964   1.867   2.759   1.807
  920HOH     H1 2965   1.867   2.852   1.787
  920HOH     H2 2966   1.959   2.737   1.822
  921HOH      O 2967   4.054   0.888   2.221
  921HOH     H1 2968   4.016   0.806   2.188
  921HOH     H2 2969   4.002   0.957   2.181
  922HOH      O 2970   1.882   0.997   0.821
  922HOH     H1 2971   1.922   0.965   0.902
  922HOH     H2 2972   1.858   0.918   0.773
  923HOH      O 2973   3.491   0.618   1.590
  923HOH     H1 2974   3.550   0.544   1.579
  923HOH     H2 2975   3.425   0.587   1.652
  924HOH      O 2976   0.543   0.804   2.088
  924HOH     H1 2977   0.612   0.768   2.143
  924HOH     H2 2978   0.473   0.828   2.150
  925HOH      O 2979   1.473   1.755   0.658
  925HOH     H1 2980   1.545   1.774   0.718
  925HOH     H2 2981   1.515   1.751   0.572
  926HOH      O 2982   3.884   0.722   3.047
  926HOH     H1 2983   3.970   0.700   3.084
  926HOH     H2 2984   3.825   0.654   3.081
  927HOH      O 2985   1.806   3.020   0.594
  927HOH     H1 2986   1.890   3.001   0.553
  927HOH     H2 2987   1.827   3.045   0.684
  928HOH      O 2988   0.624   0.420   0.487
  928HOH     H1 2989   0.609   0.336   0.445
  928HOH     H2 2990   0.610   0.485   0.418
  929HOH      O 2991   3.182   3.035   2.479
  929HOH     H1 2992   3.266   3.043   2.524
  929HOH     H2 2993   3.196   3.077   2.395
  930HOH      O 2994   3.908   2.460   2.524
  930HOH     H1 2995   3.926   2.548   2.491
  930HOH     H2 2996   3.969   2.404   2.476
  931HOH      O 2997   2.130   0.343   2.289
  931HOH     H1 2998   2.152   0.401   2.362
  931HOH     H2 2999   2.202   0.280   2.287
  932HOH      O 3000   2.208   1.232   1.484
  932HOH     H1 3001   2.199   1.313   1.433
  932HOH     H2 3002   2.131   1.180   1.460
  933HOH      O 3003   1.798   2.822   3.020
  933HOH     H1 3004   1.750   2.898   2.987
  933HOH     H2 3005   1.731   2.769   3.064
  934HOH      O 3006   0.702   1.986   2.985
  934HOH     H1 3007   0.740   1.990   3.073
  934HOH     H2 3008   0.608   1.989   2.999
  935HOH      O 3009   2.310   2.246   0.638
  935HOH     H1 3010   2.405   2.246   0.647
  935HOH     H2 3011   2.287   2.338   0.622
  936HOH      O 3012   0.506   0.027   3.104
  936HOH     H1 3013   0.487   0.018   3.198
  936HOH     H2 3014   0.423   0.058   3.066
  937HOH      O 3015   0.502   3.171   2.107
  937HOH     H1 3016   0.412   3.151   2.131
  937HOH     H2 3017   0.508   3.266   2.115
  938HOH      O 3018   0.546   2.681   1.560
  938HOH     H1 3019   0.519   2.741   1.630
  938HOH     H2 3020   0.499   2.713   1.483
  939HOH      O 3021   3.780   1.918   3.123
  939HOH     H1 3022   3.738   1.983   3.179
  939HOH     H2 3023   3.728   1.919   3.042
  940HOH      O 3024   3.875   1.467   1.516
  940HOH     H1 3025   3.923   1.395   1.556
  940HOH     H2 3026   3.937   1.540   1.514
  941HOH      O 3027   4.050   2.520   2.125
  941HOH     H1 3028   4.003   2.502   2.043
  941HOH     H2 3029   3.993   2.580   2.173
  942HOH      O 3030   2.815   2.408   1.649
  942HOH     H1 3031   2.747   2.406   1.716
  942HOH     H2 3032   2.815   2.319   1.612
  943HOH      O 3033   0.735   2.677   0.768
  943HOH     H1 3034   0.689   2.593   0.760
  943HOH     H2 3035   0.744   2.707   0.677
  944HOH      O 3036   3.064   0.114   3.677
  944HOH     H1 3037   2.999   0.088   3.612
  944HOH     H2 3038   3.144   0.128   3.628
  945HOH      O 3039   3.667   0.402   1.472
  945HOH     H1 3040   3.622   0.325   1.505
  945HOH     H2 3041   3.754   0.397   1.512
  946HOH      O 3042   2.829   1.372   2.898
  946HOH     H1 3043   2.924   1.381   2.899
  946HOH     H2 3044   2.814   1.289   2.852
  947HOH      O 3045   1.600   1.803   1.581
  947HOH     H1 3046   1.572   1.738   1.517
  947HOH     H2 3047   1.688   1.828   1.553
  948HOH      O 3048   3.508   3.883   1.202
  948HOH     H1 3049   3.457   3.805   1.224
  948HOH     H2 3050   3.483   3.904   1.112
  949HOH      O 3051   3.799   1.539   0.264
  949HOH     H1 3052   3.876   1.522   0.210
  949HOH     H2 3053   3.759   1.616   0.225
  950HOH      O 3054   2.296   3.546   2.622
  950HOH     H1 3055   2.249   3.612   2.570
  950HOH     H2 3056   2.350   3.500   2.558
  951HOH      O 3057   0.004   3.149   2.624
  951HOH     H1 3058   0.006   3.240   2.651
  951HOH     H2 3059   0.070   3.106   2.679
  952HOH      O 3060   1.472   0.664   2.188
  952HOH     H1 3061   1.561   0.634   2.166
  952HOH     H2 3062   1.425   0.583   2.209
  953HOH      O 3063   1.213   1.026   1.063
  953HOH     H1 3064   1.187   1.006   1.153
  953HOH     H2 3065   1.200   0.944   1.015
  954HOH      O 3066   2.330   3.635   3.790
  954HOH     H1 3067   2.419   3.603   3.809
  954HOH     H2 3068   2.291   3.650   3.876
  955HOH      O 3069   0.404   0.678   0.660
  955HOH     H1 3070   0.413   0.631   0.743
  955HOH     H2 3071   0.412   0.770   0.684
  956HOH      O 3072   1.546   3.721   1.603
  956HOH     H1 3073   1.567   3.630   1.625
  956HOH     H2 3074   1.595   3.738   1.523
  957HOH      O 3075   2.304   0.799   3.555
  957HOH     H1 3076   2.360   0.859   3.507
  957HOH     H2 3077   2.306   0.831   3.645
  958HOH      O 3078   2.036   0.371   0.334
  958HOH     H1 3079   2.009   0.294   0.383
  958HOH     H2 3080   2.126   0.353   0.307
  959HOH      O 3081   3.269   1.026   2.547
  959HOH     H1 3082   3.309   0.949   2.506
  959HOH     H2 3083   3.267   1.091   2.477
  960HOH      O 3084   3.388   2.868   0.591
  960HOH     H1 3085   3.318   2.929   0.569
  960HOH     H2 3086   3.447   2.918   0.648
  961HOH      O 3087   1.459   0.529   1.685
  961HOH     H1 3088   1.416   0.530   1.770
  961HOH     H2 3089   1.391   0.501   1.624
  962HOH      O 3090   0.221   3.363   0.486
  962HOH     H1 3091   0.293   3.364   0.548
  962HOH     H2 3092   0.153   3.417   0.527
  963HOH      O 3093   0.343   0.268   3.016
  963HOH     H1 3094   0.361   0.306   3.102
  963HOH     H2 3095   0.428   0.265   2.972
  964HOH      O 3096   1.208   2.589   1.375
  964HOH     H1 3097   1.179   2.621   1.461
  964HOH     H2 3098   1.290   2.544   1.392
  965HOH      O 3099   3.741   3.223   3.977
  965HOH     H1 3100   3.664   3.167   3.969
  965HOH     H2 3101   3.762   3.221   4.070
  966HOH      O 3102   1.305   1.666   2.100
  966HOH     H1 3103   1.225   1.656   2.050
  966HOH     H2 3104   1.275   1.671   2.191
  967HOH      O 3105   3.639   3.312   3.346
  967HOH     H1 3106   3.724   3.299   3.389
  967HOH     H2 3107   3.661   3.348   3.260
  968HOH      O 3108   3.783   0.879   3.959
  968HOH     H1 3109   3.834   0.958   3.976
  968HOH     H2 3110   3.718   0.905   3.894
  969HOH      O 3111   2.331   1.617   2.452
  969HOH     H1 3112   2.415   1.621   2.498
  969HOH     H2 3113   2.353   1.640   2.361
  970HOH      O 3114   3.070   3.348   3.296
  970HOH     H1 3115   3.109   3.425   3.339
  970HOH     H2 3116   3.132   3.328   3.226
  971HOH      O 3117   0.057   1.476   2.502
  971HOH     H1 3118   0.129   1.470   2.565
  971HOH     H2 3119  -0.001   1.544   2.538
  972HOH      O 3120   0.928   1.083   2.203
  972HOH     H1 3121   0.985   1.147   2.245
  972HOH     H2 3122   0.979   1.050   2.129
  973HOH      O 3123   2.836   2.200   1.030
  973HOH     H1 3124   2.912   2.179   1.084
  973HOH     H2 3125   2.873   2.244   0.953
  974HOH      O 3126   3.763   0.646   1.211
  974HOH     H1 3127   3.672   0.656   1.240
  974HOH     H2 3128   3.771   0.553   1.191
  975HOH      O 3129   2.664   0.857   1.768
  975HOH     H1 3130   2.722   0.886   1.698
  975HOH     H2 3131   2.577   0.885   1.741
  976HOH      O 3132   0.942   1.582   2.098
  976HOH     H1 3133   0.907   1.588   2.187
  976HOH     H2 3134   0.984   1.496   2.095
  977HOH      O 3135   3.022   1.126   2.829
  977HOH     H1 3136   3.016   1.038   2.793
  977HOH     H2 3137   3.079   1.173   2.768
  978HOH      O 3138   3.923   0.538   3.961
  978HOH     H1 3139   3.852   0.476   3.945
  978HOH     H2 3140   3.922   0.552   4.055
  979HOH      O 3141   1.569   0.445   2.470
  979HOH     H1 3142   1.556   0.406   2.556
  979HOH     H2 3143   1.653   0.490   2.475
  980HOH      O 3144   1.528   2.313   1.131
  980HOH     H1 3145   1.492   2.230   1.099
  980HOH     H2 3146   1.619   2.313   1.101
  981HOH      O 3147   3.245   3.884   0.053
  981HOH     H1 3148   3.323   3.891   0.107
  981HOH     H2 3149   3.220   3.791   0.058
  982HOH      O 3150   0.921   1.400   2.673
  982HOH     H1 3151   0.941   1.492   2.660
  982HOH     H2 3152   0.898   1.393   2.766
  983HOH      O 3153   2.871   3.626   3.974
  983HOH     H1 3154   2.951   3.624   3.921
  983HOH     H2 3155   2.865   3.539   4.012
  984HOH      O 3156   2.327   3.382   0.325
  984HOH     H1 3157   2.266   3.313   0.296
  984HOH     H2 3158   2.393   3.335   0.375
  985HOH      O 3159   1.216   2.087   2.449
  985HOH     H1 3160   1.161   2.011   2.431
  985HOH     H2 3161   1.299   2.068   2.404
  986HOH      O 3162   0.380   0.193   1.066
  986HOH     H1 3163   0.304   0.213   1.120
  986HOH     H2 3164   0.427   0.126   1.115
  987HOH      O 3165   3.330   0.628   0.287
  987HOH     H1 3166   3.247   0.672   0.305
  987HOH     H2 3167   3.388   0.656   0.358
  988HOH      O 3168   1.057   2.964   3.117
  988HOH     H1 3169   1.120   3.015   3.066
  988HOH     H2 3170   0.978   3.017   3.117
  989HOH      O 3171   2.876   3.169   3.315
  989HOH     H1 3172   2.921   3.113   3.253
  989HOH     H2 3173   2.934   3.245   3.326
  990HOH      O 3174   3.276   0.860   0.105
  990HOH     H1 3175   3.286   0.765   0.104
  990HOH     H2 3176   3.364   0.894   0.091
  991HOH      O 3177   2.377   2.114   2.627
  991HOH     H1 3178   2.425   2.087   2.705
  991HOH     H2 3179   2.285   2.103   2.650
  992HOH      O 3180   0.121   0.275   1.154
  992HOH     H1 3181   0.082   0.256   1.240
  992HOH     H2 3182   0.046   0.281   1.095
  993HOH      O 3183   1.028   1.741   1.188
  993HOH     H1 3184   1.032   1.653   1.151
  993HOH     H2 3185   1.095   1.741   1.257
  994HOH      O 3186   3.643   2.088   0.028
  994HOH     H1 3187   3.568   2.100  -0.029
  994HOH     H2 3188   3.606   2.087   0.116
  995HOH      O 3189   3.335   3.487   1.132
  995HOH     H1 3190   3.303   3.419   1.191
  995HOH     H2 3191   3.325   3.568   1.182
  996HOH      O 3192   0.258   1.755   2.410
  996HOH     H1 3193   0.256   1.729   2.502
  996HOH     H2 3194   0.194   1.697   2.368
  997HOH      O 3195   0.544   1.381   1.569
  997HOH     H1 3196   0.483   1.449   1.542
  997HOH     H2 3197   0.590   1.418   1.644
  998HOH      O 3198   0.110   2.159   0.979
  998HOH     H1 3199   0.184   2.203   0.936
  998HOH     H2 3200   0.033   2.191   0.932
  999HOH      O 3201   3.031   0.382   3.504
  999HOH     H1 3202   2.946   0.361   3.540
  999HOH     H2 3203   3.044   0.318   3.433
 1000HOH      O 3204   0.325   2.415   2.407
 1000HOH     H1 3205   0.257   2.464   2.454
 1000HOH     H2 3206   0.325   2.453   2.319
 1001HOH      O 3207   1.521   1.682   3.621
 1001HOH     H1 3208   1.606   1.706   3.660
 1001HOH     H2 3209   1.540   1.604   3.570
 1002HOH      O 3210   2.079   0.780   1.389
 1002HOH     H1 3211   2.107   0.799   1.479
 1002HOH     H2 3212   2.003   0.722   1.400
 1003HOH      O 3213   3.258   1.079   3.596
 1003HOH     H1 3214   3.291   1.077   3.686
 1003HOH     H2 3215   3.336   1.086   3.542
 1004HOH      O 3216   2.359   2.082   3.664
 1004HOH     H1 3217   2.416   2.143   3.616
 1004HOH     H2 3218   2.339   2.128   3.746
 1005HOH      O 3219   1.872   0.356   1.033
 1005HOH     H1 3220   1.913   0.272   1.012
 1005HOH     H2 3221   1.879   0.407   0.952
 1006HOH      O 3222   0.606   3.729   1.568
 1006HOH     H1 3223   0.580   3.646   1.608
 1006HOH     H2 3224   0.529   3.758   1.519
 1007HOH      O 3225   1.279   2.874   0.972
 1007HOH     H1 3226   1.333   2.799   0.948
 1007HOH     H2 3227   1.341   2.946   0.985
 1008HOH      O 3228   2.965   0.096   3.429
 1008HOH     H1 3229   2.874   0.118   3.448
 1008HOH     H2 3230   2.959   0.012   3.382
 1009HOH      O 3231   2.072   0.144   2.651
 1009HOH     H1 3232   2.160   0.166   2.617
 1009HOH     H2 3233   2.089   0.093   2.730
 1010HOH      O 3234   3.379   1.137   2.200
 1010HOH     H1 3235   3.314   1.188   2.248
 1010HOH     H2 3236   3.453   1.197   2.190
 1011HOH      O 3237   3.058   3.516   0.802
 1011HOH     H1 3238   3.038   3.516   0.709
 1011HOH     H2 3239   3.153   3.498   0.806
 1012HOH      O 3240   0.245   3.502   2.402
 1012HOH     H1 3241   0.283   3.570   2.346
 1012HOH     H2 3242   0.163   3.479   2.358
 1013HOH      O 3243   2.644   2.712   0.834
 1013HOH     H1 3244   2.717   2.662   0.798
 1013HOH     H2 3245   2.597   2.649   0.888
 1014HOH      O 3246   0.396   2.285   0.248
 1014HOH     H1 3247   0.305   2.311   0.248
 1014HOH     H2 3248   0.422   2.289   0.156
 1015HOH      O 3249   3.463   3.357   1.658
 1015HOH     H1 3250   3.369   3.363   1.677
 1015HOH     H2 3251   3.503   3.420   1.718
 1016HOH      O 3252   2.710   0.079   3.530
 1016HOH     H1 3253   2.686  -0.013   3.543
 1016HOH     H2 3254   2.629   0.127   3.549
 1017HOH      O 3255   1.397   3.144   1.208
 1017HOH     H1 3256   1.390   3.102   1.294
 1017HOH     H2 3257   1.309   3.138   1.171
 1018HOH      O 3258   3.395   0.328   0.649
 1018HOH     H1 3259   3.348   0.411   0.652
 1018HOH     H2 3260   3.456   0.333   0.723
 1019HOH      O 3261   1.930   0.037   1.671
 1019HOH     H1 3262   1.854  -0.009   1.709
 1019HOH     H2 3263   2.001   0.018   1.732
 1020HOH      O 3264   2.764   3.065   0.175
 1020HOH     H1 3265   2.705   3.136   0.149
 1020HOH     H2 3266   2.709   3.003   0.223
 1021HOH      O 3267   2.355   0.190   2.539
 1021HOH     H1 3268   2.407   0.110   2.541
 1021HOH     H2 3269   2.386   0.237   2.462
 1022HOH      O 3270   2.803   2.643   1.144
 1022HOH     H1 3271   2.887   2.648   1.190
 1022HOH     H2 3272   2.743   2.601   1.206
 1023HOH      O 3273   1.410   0.512   2.917
 1023HOH     H1 3274   1.436   0.603   2.935
 1023HOH     H2 3275   1.341   0.520   2.852
 1024HOH      O 3276   0.899   3.502   2.487
 1024HOH     H1 3277   0.834   3.571   2.496
 1024HOH     H2 3278   0.900   3.482   2.393
 1025HOH      O 3279   2.396   1.826   3.705
 1025HOH     H1 3280   2.340   1.827   3.783
 1025HOH     H2 3281   2.394   1.917   3.674
 1026HOH      O 3282   0.954   1.053   0.786
 1026HOH     H1 3283   0.955   1.018   0.876
 1026HOH     H2 3284   0.999   0.986   0.734
 1027HOH      O 3285   0.428   3.481   1.085
 1027HOH     H1 3286   0.509   3.529   1.071
 1027HOH     H2 3287   0.448   3.391   1.057
 1028HOH      O 3288   2.701   1.610   3.014
 1028HOH     H1 3289   2.769   1.556   2.973
 1028HOH     H2 3290   2.650   1.548   3.067
 1029HOH      O 3291   2.766   3.614   3.376
 1029HOH     H1 3292   2.767   3.529   3.333
 1029HOH     H2 3293   2.674   3.626   3.402
 1030HOH      O 3294   0.837   2.772   1.727
 1030HOH     H1 3295   0.840   2.834   1.801
 1030HOH     H2 3296   0.779   2.702   1.758
 1031HOH      O 3297   2.015   3.924   3.964
 1031HOH     H1 3298   2.062   3.842   3.948
 1031HOH     H2 3299   2.007   3.964   3.878
 1032HOH      O 3300   2.419   3.195   0.064
 1032HOH     H1 3301   2.383   3.142   0.135
 1032HOH     H2 3302   2.507   3.217   0.093
 1033HOH      O 3303   2.761   1.361   1.143
 1033HOH     H1 3304   2.756   1.454   1.165
 1033HOH     H2 3305   2.783   1.318   1.225
 1034HOH      O 3306   0.117   0.296   3.811
 1034HOH     H1 3307   0.167   0.242   3.748
 1034HOH     H2 3308   0.031   0.254   3.815
 1035HOH      O 3309   2.898   2.333   0.810
 1035HOH     H1 3310   2.820   2.358   0.761
 1035HOH     H2 3311   2.953   2.286   0.747
 1036HOH      O 3312   2.910   1.833   1.282
 1036HOH     H1 3313   2.868   1.840   1.368
 1036HOH     H2 3314   3.002   1.855   1.298
 1037HOH      O 3315   3.033   2.521   1.205
 1037HOH     H1 3316   3.109   2.507   1.149
 1037HOH     H2 3317   2.988   2.436   1.206
 1038HOH      O 3318   3.269   1.910   1.497
 1038HOH     H1 3319   3.359   1.930   1.472
 1038HOH     H2 3320   3.227   1.996   1.505
 1039HOH      O 3321   3.055   2.707   2.576
 1039HOH     H1 3322   3.067   2.790   2.530
 1039HOH     H2 3323   3.071   2.728   2.668
 1040HOH      O 3324   2.193   0.346   1.021
 1040HOH     H1 3325   2.250   0.422   1.030
 1040HOH     H2 3326   2.158   0.353   0.932
 1041HOH      O 3327   0.742   3.125   2.226
 1041HOH     H1 3328   0.659   3.138   2.180
 1041HOH     H2 3329   0.772   3.214   2.245
 1042HOH      O 3330   1.668   1.285   1.998
 1042HOH     H1 3331   1.659   1.364   1.945
 1042HOH     H2 3332   1.591   1.285   2.055
 1043HOH      O 3333   1.594   0.588   3.344
 1043HOH     H1 3334   1.556   0.545   3.421
 1043HOH     H2 3335   1.558   0.541   3.270
 1044HOH      O 3336   2.938   2.739   3.558
 1044HOH     H1 3337   2.894   2.777   3.481
 1044HOH     H2 3338   3.021   2.706   3.524
 1045HOH      O 3339   2.416   1.860   1.783
 1045HOH     H1 3340   2.405   1.783   1.728
 1045HOH     H2 3341   2.510   1.876   1.785
 1046HOH      O 3342   2.720   3.797   1.371
 1046HOH     H1 3343   2.719   3.727   1.306
 1046HOH     H2 3344   2.765   3.869   1.327
 1047HOH      O 3345   3.734   3.665   0.512
 1047HOH     H1 3346   3.651   3.625   0.539
 1047HOH     H2 3347   3.766   3.609   0.441
 1048HOH      O 3348   1.036   3.585   3.980
 1048HOH     H1 3349   0.942   3.575   3.961
 1048HOH     H2 3350   1.073   3.622   3.900
 1049HOH      O 3351   2.768   2.374   2.653
 1049HOH     H1 3352   2.737   2.300   2.600
 1049HOH     H2 3353   2.845   2.406   2.606
 1050HOH      O 3354   2.547   3.587   3.994
 1050HOH     H1 3355   2.546   3.496   3.962
 1050HOH     H2 3356   2.490   3.585   4.071
 1051HOH      O 3357   4.034   3.486   0.586
 1051HOH     H1 3358   4.016   3.485   0.680
 1051HOH     H2 3359   3.954   3.453   0.546
 1052HOH      O 3360   2.332   1.253  -0.002
 1052HOH     H1 3361   2.358   1.328  -0.055
 1052HOH     H2 3362   2.382   1.263   0.079
 1053HOH      O 3363   1.044   1.069   0.010
 1053HOH     H1 3364   1.085   1.124  -0.057
 1053HOH     H2 3365   1.117   1.033   0.060
 1054HOH      O 3366   1.360   1.816   0.135
 1054HOH     H1 3367   1.401   1.744   0.182
 1054HOH     H2 3368   1.325   1.873   0.203
 1055HOH      O 3369   0.528   2.393   0.955
 1055HOH     H1 3370   0.608   2.352   0.921
 1055HOH     H2 3371   0.458   2.354   0.903
 1056HOH      O 3372   3.302   0.181   1.461
 1056HOH     H1 3373   3.348   0.097   1.463
 1056HOH     H2 3374   3.334   0.228   1.539
 1057HOH      O 3375   3.038   1.781   0.126
 1057HOH     H1 3376   2.985   1.852   0.161
 1057HOH     H2 3377   3.089   1.749   0.200
 1058HOH      O 3378   1.908   4.003   3.103
 1058HOH     H1 3379   1.920   3.908   3.112
 1058HOH     H2 3380   1.942   4.039   3.184
 1059HOH      O 3381   3.683   1.959   0.904
 1059HOH     H1 3382   3.770   1.953   0.865
 1059HOH     H2 3383   3.645   1.872   0.891
 1060HOH      O 3384   3.453   2.973   2.190
 1060HOH     H1 3385   3.478   3.064   2.177
 1060HOH     H2 3386   3.357   2.976   2.194
 1061HOH      O 3387   0.882   1.677   2.997
 1061HOH     H1 3388   0.975   1.670   3.021
 1061HOH     H2 3389   0.877   1.756   2.944
 1062HOH      O 3390   2.172   3.277   3.640
 1062HOH     H1 3391   2.098   3.229   3.602
 1062HOH     H2 3392   2.154   3.278   3.734
 1063HOH      O 3393   3.767   2.393   3.133
 1063HOH     H1 3394   3.740   2.431   3.216
 1063HOH     H2 3395   3.860   2.374   3.144
 1064HOH      O 3396   2.198   0.156   3.138
 1064HOH     H1 3397   2.188   0.081   3.196
 1064HOH     H2 3398   2.110   0.194   3.133
 1065HOH      O 3399   1.108   3.430   3.303
 1065HOH     H1 3400   1.058   3.358   3.341
 1065HOH     H2 3401   1.199   3.409   3.320
 1066HOH      O 3402   0.709   3.288   1.180
 1066HOH     H1 3403   0.656   3.210   1.197
 1066HOH     H2 3404   0.701   3.302   1.085
 1067HOH      O 3405   1.451   3.887   1.129
 1067HOH     H1 3406   1.503   3.963   1.154
 1067HOH     H2 3407   1.360   3.917   1.137
 1068HOH      O 3408   0.060   1.638   0.461
 1068HOH     H1 3409   0.055   1.543   0.476
 1068HOH     H2 3410   0.141   1.649   0.410
 1069HOH      O 3411   2.506   0.771   1.359
 1069HOH     H1 3412   2.454   0.734   1.288
 1069HOH     H2 3413   2.500   0.866   1.346
 1070HOH      O 3414   2.132   2.502   3.109
 1070HOH     H1 3415   2.199   2.569   3.115
 1070HOH     H2 3416   2.107   2.501   3.016
 1071HOH      O 3417   0.410   3.321   1.375
 1071HOH     H1 3418   0.320   3.302   1.350
 1071HOH     H2 3419   0.460   3.246   1.342
 1072HOH      O 3420  -0.018   1.578   0.070
 1072HOH     H1 3421   0.050   1.624   0.121
 1072HOH     H2 3422  -0.010   1.614  -0.018
 1073HOH      O 3423   1.102   3.310   0.190
 1073HOH     H1 3424   1.121   3.311   0.096
 1073HOH     H2 3425   1.174   3.261   0.229
 1074HOH      O 3426   1.444   2.860   0.680
 1074HOH     H1 3427   1.407   2.939   0.720
 1074HOH     H2 3428   1.404   2.788   0.728
 1075HOH      O 3429   0.263   0.952   1.542
 1075HOH     H1 3430   0.174   0.922   1.561
 1075HOH     H2 3431   0.262   0.971   1.448
 1076HOH      O 3432   0.162   2.028   3.027
 1076HOH     H1 3433   0.104   2.081   2.972
 1076HOH     H2 3434   0.179   1.950   2.976
 1077HOH      O 3435   3.082   2.607   2.870
 1077HOH     H1 3436   3.006   2.588   2.925
 1077HOH     H2 3437   3.115   2.521   2.845
 1078HOH      O 3438   0.369   1.579   1.445
 1078HOH     H1 3439   0.379   1.644   1.376
 1078HOH     H2 3440   0.340   1.629   1.522
 1079HOH      O 3441   0.766   2.292   1.143
 1079HOH     H1 3442   0.676   2.321   1.162
 1079HOH     H2 3443   0.775   2.211   1.192
 1080HOH      O 3444   1.756   1.964   2.712
 1080HOH     H1 3445   1.706   2.031   2.665
 1080HOH     H2 3446   1.700   1.886   2.708
 1081HOH      O 3447   3.873   2.747   0.977
 1081HOH     H1 3448   3.903   2.807   1.045
 1081HOH     H2 3449   3.780   2.733   0.997
 1082HOH      O 3450   1.700   3.324   4.021
 1082HOH     H1 3451   1.613   3.284   4.027
 1082HOH     H2 3452   1.749   3.265   3.962
 1083HOH      O 3453   2.278   2.671   2.432
 1083HOH     H1 3454   2.361   2.679   2.384
 1083HOH     H2 3455   2.276   2.580   2.461
 1084HOH      O 3456   0.911   1.995   1.859
 1084HOH     H1 3457   0.918   2.010   1.765
 1084HOH     H2 3458   0.869   1.910   1.867
 1085HOH      O 3459   3.281   1.025   1.293
 1085HOH     H1 3460   3.357   0.991   1.246
 1085HOH     H2 3461   3.256   1.103   1.244
 1086HOH      O 3462   3.849   2.515   0.311
 1086HOH     H1 3463   3.857   2.511   0.406
 1086HOH     H2 3464   3.763   2.556   0.296
 1087HOH      O 3465   2.335   0.504   1.587
 1087HOH     H1 3466   2.356   0.466   1.672
 1087HOH     H2 3467   2.419   0.509   1.542
 1088HOH      O 3468   0.657  -0.006   2.295
 1088HOH     H1 3469   0.616   0.003   2.381
 1088HOH     H2 3470   0.672   0.085   2.266
 1089HOH      O 3471   1.385   3.516   3.580
 1089HOH     H1 3472   1.405   3.442   3.638
 1089HOH     H2 3473   1.470   3.538   3.540
 1090HOH      O 3474   2.450   0.755   2.311
 1090HOH     H1 3475   2.477   0.680   2.364
 1090HOH     H2 3476   2.437   0.825   2.376
 1091HOH      O 3477   2.577   2.370   0.591
 1091HOH     H1 3478   2.670   2.391   0.583
 1091HOH     H2 3479   2.556   2.321   0.511
 1092HOH      O 3480   1.117   0.782   2.745
 1092HOH     H1 3481   1.173   0.726   2.798
 1092HOH     H2 3482   1.174   0.852   2.714
 1093HOH      O 3483   1.747   3.417   0.266
 1093HOH     H1 3484   1.747   3.338   0.320
 1093HOH     H2 3485   1.711   3.389   0.182
 1094HOH      O 3486   3.932   2.747   2.499
 1094HOH     H1 3487   3.907   2.815   2.562
 1094HOH     H2 3488   4.007   2.785   2.452
 1095HOH      O 3489   3.691   1.166   0.608
 1095HOH     H1 3490   3.739   1.096   0.652
 1095HOH     H2 3491   3.758   1.217   0.564
 1096HOH      O 3492   1.957   1.242   1.846
 1096HOH     H1 3493   1.960   1.329   1.887
 1096HOH     H2 3494   1.874   1.241   1.798
 1097HOH      O 3495   0.390   2.243   4.013
 1097HOH     H1 3496   0.312   2.190   4.026
 1097HOH     H2 3497   0.402   2.246   3.918
 1098HOH      O 3498   2.508   0.908   3.813
 1098HOH     H1 3499   2.591   0.952   3.793
 1098HOH     H2 3500   2.518   0.821   3.774
 1099HOH      O 3501   1.234   0.139   2.366
 1099HOH     H1 3502   1.152   0.092   2.384
 1099HOH     H2 3503   1.291   0.074   2.326
 1100HOH      O 3504   0.771   0.904   0.526
 1100HOH     H1 3505   0.834   0.947   0.468
 1100HOH     H2 3506   0.757   0.967   0.597
 1101HOH      O 3507   2.931   2.600   0.030
 1101HOH     H1 3508   2.918   2.677  -0.026
 1101HOH     H2 3509   3.001   2.625   0.090
 1102HOH      O 3510   0.589   0.441   1.669
 1102HOH     H1 3511   0.602   0.452   1.763
 1102HOH     H2 3512   0.555   0.525   1.639
 1103HOH      O 3513   3.231   0.899   2.264
 1103HOH     H1 3514   3.288   0.972   2.242
 1103HOH     H2 3515   3.223   0.849   2.183
 1104HOH      O 3516   2.812   1.924   0.811
 1104HOH     H1 3517   2.801   1.944   0.903
 1104HOH     H2 3518   2.738   1.968   0.768
 1105HOH      O 3519   3.310   2.857   1.582
 1105HOH     H1 3520   3.260   2.839   1.502
 1105HOH     H2 3521   3.400   2.867   1.552
 1106HOH      O 3522   0.263   0.282   0.811
 1106HOH     H1 3523   0.312   0.237   0.880
 1106HOH     H2 3524   0.284   0.375   0.824
 1107HOH      O 3525   1.630   0.303   0.010
 1107HOH     H1 3526   1.646   0.229   0.069
 1107HOH     H2 3527   1.649   0.268  -0.077
 1108HOH      O 3528   0.542   2.274   3.183
 1108HOH     H1 3529   0.531   2.217   3.259
 1108HOH     H2 3530   0.512   2.221   3.109
 1109HOH      O 3531   3.356   2.193   2.279
 1109HOH     H1 3532   3.341   2.248   2.356
 1109HOH     H2 3533   3.448   2.168   2.285
 1110HOH      O 3534   1.362   2.811   2.913
 1110HOH     H1 3535   1.394   2.764   2.990
 1110HOH     H2 3536   1.337   2.742   2.852
 1111HOH      O 3537   0.804   1.816   1.637
 1111HOH     H1 3538   0.853   1.766   1.702
 1111HOH     H2 3539   0.763   1.749   1.582
 1112HOH      O 3540   2.682   3.370   3.280
 1112HOH     H1 3541   2.732   3.291   3.303
 1112HOH     H2 3542   2.679   3.369   3.184
 1113HOH      O 3543   3.217   1.596   3.348
 1113HOH     H1 3544   3.288   1.593   3.283
 1113HOH     H2 3545   3.262   1.592   3.432
 1114HOH      O 3546   3.426   3.786   3.307
 1114HOH     H1 3547   3.490   3.857   3.299
 1114HOH     H2 3548   3.475   3.707   3.287
 1115HOH      O 3549   4.073   1.400   3.502
 1115HOH     H1 3550   3.987   1.402   3.544
 1115HOH     H2 3551   4.055   1.389   3.409
 1116HOH      O 3552   3.334   3.469   3.954
 1116HOH     H1 3553   3.366   3.498   4.039
 1116HOH     H2 3554   3.411   3.475   3.897
 1117HOH      O 3555   3.240   3.314   2.400
 1117HOH     H1 3556   3.170   3.355   2.349
 1117HOH     H2 3557   3.311   3.300   2.337
 1118HOH      O 3558   2.104   1.578   3.771
 1118HOH     H1 3559   2.107   1.613   3.860
 1118HOH     H2 3560   2.195   1.551   3.754
 1119HOH      O 3561   0.083   2.107   1.703
 1119HOH     H1 3562   0.165   2.057   1.705
 1119HOH     H2 3563   0.035   2.073   1.628
 1120HOH      O 3564   1.170   1.479   3.978
 1120HOH     H1 3565   1.080   1.457   4.000
 1120HOH     H2 3566   1.176   1.573   3.992
 1121HOH      O 3567   1.573   3.423   2.130
 1121HOH     H1 3568   1.597   3.350   2.187
 1121HOH     H2 3569   1.512   3.384   2.067
 1122HOH      O 3570   2.740   0.888   2.574
 1122HOH     H1 3571   2.754   0.891   2.669
 1122HOH     H2 3572   2.809   0.831   2.541
 1123HOH      O 3573   1.352  -0.016   2.815
 1123HOH     H1 3574   1.386   0.054   2.760
 1123HOH     H2 3575   1.370   0.012   2.905
 1124HOH      O 3576   2.649   1.359   3.150
 1124HOH     H1 3577   2.697   1.326   3.226
 1124HOH     H2 3578   2.698   1.326   3.075
 1125HOH      O 3579   0.075   2.045   1.983
 1125HOH     H1 3580   0.032   2.111   2.038
 1125HOH     H2 3581   0.087   2.089   1.899
 1126HOH      O 3582   0.423   2.481   1.174
 1126HOH     H1 3583   0.477   2.556   1.199
 1126HOH     H2 3584   0.477   2.432   1.113
 1127HOH      O 3585   0.815   1.751   1.918
 1127HOH     H1 3586   0.867   1.675   1.946
 1127HOH     H2 3587   0.743   1.755   1.981
 1128HOH      O 3588   0.367   2.637   0.715
 1128HOH     H1 3589   0.412   2.553   0.724
 1128HOH     H2 3590   0.362   2.671   0.805
 1129HOH      O 3591   3.865   2.076   3.939
 1129HOH     H1 3592   3.844   2.126   3.860
 1129HOH     H2 3593   3.784   2.076   3.990
 1130HOH      O 3594   1.921   3.728   0.604
 1130HOH     H1 3595   1.841   3.726   0.552
 1130HOH     H2 3596   1.931   3.638   0.636
 1131HOH      O 3597   3.671   2.030   2.635
 1131HOH     H1 3598   3.743   2.093   2.635
 1131HOH     H2 3599   3.594   2.082   2.610
 1132HOH      O 3600   1.953   2.411   2.210
 1132HOH     H1 3601   1.874   2.429   2.159
 1132HOH     H2 3602   1.999   2.495   2.214
 1133HOH      O 3603   0.839   3.090   0.397
 1133HOH     H1 3604   0.830   3.185   0.394
 1133HOH     H2 3605   0.930   3.075   0.421
 1134HOH      O 3606   2.196   2.673   2.150
 1134HOH     H1 3607   2.246   2.647   2.227
 1134HOH     H2 3608   2.170   2.763   2.166
 1135HOH      O 3609   1.786   2.061   2.136
 1135HOH     H1 3610   1.784   2.126   2.065
 1135HOH     H2 3611   1.834   2.104   2.207
 1136HOH      O 3612   1.101   2.165   1.990
 1136HOH     H1 3613   1.057   2.118   1.919
 1136HOH     H2 3614   1.036   2.169   2.060
 1137HOH      O 3615   2.089   2.657   1.272
 1137HOH     H1 3616   2.009   2.631   1.319
 1137HOH     H2 3617   2.087   2.752   1.273
 1138HOH      O 3618   0.411   2.781   1.340
 1138HOH     H1 3619   0.434   2.867   1.376
 1138HOH     H2 3620   0.489   2.754   1.291
 1139HOH      O 3621   3.073   0.146   1.967
 1139HOH     H1 3622   3.123   0.085   2.021
 1139HOH     H2 3623   2.983   0.113   1.971
 1140HOH      O 3624   3.418   3.088   1.401
 1140HOH     H1 3625   3.426   3.014   1.342
 1140HOH     H2 3626   3.443   3.164   1.348
 1141HOH      O 3627   2.497   4.016   3.263
 1141HOH     H1 3628   2.572   3.968   3.228
 1141HOH     H2 3629   2.531   4.104   3.281
 1142HOH      O 3630   3.116   0.486   1.182
 1142HOH     H1 3631   3.184   0.522   1.239
 1142HOH     H2 3632   3.038   0.538   1.202
 1143HOH      O 3633   2.149   2.390   1.212
 1143HOH     H1 3634   2.144   2.485   1.228
 1143HOH     H2 3635   2.241   2.369   1.227
 1144HOH      O 3636   2.975   0.637   0.594
 1144HOH     H1 3637   3.023   0.565   0.635
 1144HOH     H2 3638   3.043   0.696   0.561
 1145HOH      O 3639   2.733   2.918   3.940
 1145HOH     H1 3640   2.828   2.915   3.925
 1145HOH     H2 3641   2.695   2.884   3.860
 1146HOH      O 3642   0.217   0.935   3.738
 1146HOH     H1 3643   0.177   0.851   3.716
 1146HOH     H2 3644   0.256   0.921   3.824
 1147HOH      O 3645   0.260   0.558   0.211
 1147HOH     H1 3646   0.253   0.551   0.116
 1147HOH     H2 3647   0.176   0.527   0.243
 1148HOH      O 3648   1.577   3.811   3.334
 1148HOH     H1 3649   1.570   3.858   3.251
 1148HOH     H2 3650   1.547   3.722   3.314
 1149HOH      O 3651   0.336   0.305   3.431
 1149HOH     H1 3652   0.275   0.370   3.465
 1149HOH     H2 3653   0.396   0.289   3.504
 1150HOH      O 3654   0.156   3.755   0.057
 1150HOH     H1 3655   0.239   3.788   0.092
 1150HOH     H2 3656   0.169   3.752  -0.038
 1151HOH      O 3657   0.459   3.570   0.706
 1151HOH     H1 3658   0.449   3.476   0.693
 1151HOH     H2 3659   0.435   3.608   0.622
 1152HOH      O 3660   0.251   2.380   2.124
 1152HOH     H1 3661   0.178   2.442   2.115
 1152HOH     H2 3662   0.274   2.357   2.033
 1153HOH      O 3663   3.090   3.924   1.804
 1153HOH     H1 3664   3.030   3.912   1.878
 1153HOH     H2 3665   3.054   3.998   1.755
 1154HOH      O 3666   3.564   0.791   0.749
 1154HOH     H1 3667   3.601   0.739   0.820
 1154HOH     H2 3668   3.621   0.867   0.742
 1155HOH      O 3669   1.203   1.142   0.641
 1155HOH     H1 3670   1.120   1.094   0.640
 1155HOH     H2 3671   1.268   1.079   0.610
 1156HOH      O 3672   2.628   3.290   0.210
 1156HOH     H1 3673   2.639   3.381   0.236
 1156HOH     H2 3674   2.601   3.245   0.290
 1157HOH      O 3675   2.061   0.642   3.562
 1157HOH     H1 3676   2.079   0.589   3.484
 1157HOH     H2 3677   2.097   0.728   3.541
 1158HOH      O 3678   1.099   1.921   3.267
 1158HOH     H1 3679   1.183   1.936   3.310
 1158HOH     H2 3680   1.039   1.901   3.339
 1159HOH      O 3681   1.417   1.325   3.237
 1159HOH     H1 3682   1.506   1.308   3.208
 1159HOH     H2 3683   1.362   1.284   3.170
 1160HOH      O 3684   3.554   1.805   1.669
 1160HOH     H1 3685   3.471   1.802   1.717
 1160HOH     H2 3686   3.596   1.722   1.689
 1161HOH      O 3687   0.999   3.037   2.203
 1161HOH     H1 3688   0.996   2.942   2.189
 1161HOH     H2 3689   0.910   3.061   2.227
 1162HOH      O 3690   2.730   1.027   1.072
 1162HOH     H1 3691   2.728   1.123   1.073
 1162HOH     H2 3692   2.669   1.003   1.003
 1163HOH      O 3693   2.040   3.488   3.129
 1163HOH     H1 3694   2.113   3.442   3.089
 1163HOH     H2 3695   2.074   3.518   3.213
 1164HOH      O 3696   4.024   3.300   3.068
 1164HOH     H1 3697   3.967   3.376   3.058
 1164HOH     H2 3698   3.964   3.227   3.086
 1165HOH      O 3699   1.035   3.411   3.588
 1165HOH     H1 3700   1.106   3.362   3.547
 1165HOH     H2 3701   0.964   3.408   3.525
 1166HOH      O 3702   1.698   3.826   1.377
 1166HOH     H1 3703   1.709   3.813   1.283
 1166HOH     H2 3704   1.713   3.919   1.390
 1167HOH      O 3705   3.015   1.435   0.145
 1167HOH     H1 3706   3.097   1.420   0.097
 1167HOH     H2 3707   2.963   1.356   0.130
 1168HOH      O 3708   1.965   0.276   3.091
 1168HOH     H1 3709   1.919   0.308   3.014
 1168HOH     H2 3710   1.896   0.262   3.156
 1169HOH      O 3711   2.364   2.614   0.933
 1169HOH     H1 3712   2.297   2.631   0.867
 1169HOH     H2 3713   2.361   2.691   0.990
 1170HOH      O 3714   0.644   2.420   0.292
 1170HOH     H1 3715   0.706   2.348   0.306
 1170HOH     H2 3716   0.558   2.378   0.289
 1171HOH      O 3717   2.925   1.758   3.845
 1171HOH     H1 3718   2.836   1.768   3.810
 1171HOH     H2 3719   2.915   1.696   3.917
 1172HOH      O 3720   3.589   1.157   3.126
 1172HOH     H1 3721   3.550   1.176   3.041
 1172HOH     H2 3722   3.540   1.082   3.159
 1173HOH      O 3723   2.733   1.287   3.884
 1173HOH     H1 3724   2.736   1.200   3.844
 1173HOH     H2 3725   2.779   1.277   3.968
 1174HOH      O 3726   3.361   1.036   1.809
 1174HOH     H1 3727   3.287   1.050   1.869
 1174HOH     H2 3728   3.338   1.088   1.732
 1175HOH      O 3729   3.587   3.507   1.023
 1175HOH     H1 3730   3.501   3.528   1.060
 1175HOH     H2 3731   3.647   3.513   1.098
 1176HOH      O 3732   1.061   0.853   0.596
 1176HOH     H1 3733   1.016   0.781   0.552
 1176HOH     H2 3734   1.154   0.834   0.584
 1177HOH      O 3735   2.561   1.538   0.095
 1177HOH     H1 3736   2.547   1.466   0.157
 1177HOH     H2 3737   2.573   1.615   0.151
 1178HOH      O 3738   0.477   2.522   3.237
 1178HOH     H1 3739   0.457   2.543   3.146
 1178HOH     H2 3740   0.500   2.429   3.237
 1179HOH      O 3741   3.430   2.031   0.219
 1179HOH     H1 3742   3.362   2.081   0.264
 1179HOH     H2 3743   3.425   1.943   0.258
 1180HOH      O 3744   1.761   0.751   2.873
 1180HOH     H1 3745   1.675   0.745   2.914
 1180HOH     H2 3746   1.742   0.778   2.783
 1181HOH      O 3747   1.737   0.441   0.796
 1181HOH     H1 3748   1.740   0.437   0.701
 1181HOH     H2 3749   1.651   0.405   0.819
 1182HOH      O 3750   1.888   2.360   3.157
 1182HOH     H1 3751   1.960   2.421   3.139
 1182HOH     H2 3752   1.874   2.366   3.252
 1183HOH      O 3753   0.535   1.079   0.170
 1183HOH     H1 3754   0.607   1.016   0.171
 1183HOH     H2 3755   0.486   1.061   0.251
 1184HOH      O 3756   4.017   2.954   1.533
 1184HOH     H1 3757   4.062   2.870   1.523
 1184HOH     H2 3758   4.040   2.983   1.621
 1185HOH      O 3759   0.943   2.793   3.923
 1185HOH     H1 3760   0.876   2.848   3.882
 1185HOH     H2 3761   0.897   2.713   3.947
 1186HOH      O 3762   1.215   2.421   1.842
 1186HOH     H1 3763   1.126   2.387   1.844
 1186HOH     H2 3764   1.244   2.416   1.933
 1187HOH      O 3765   3.112   1.921   3.695
 1187HOH     H1 3766   3.105   2.016   3.705
 1187HOH     H2 3767   3.064   1.886   3.770
 1188HOH      O 3768   2.368   2.160   3.933
 1188HOH     H1 3769   2.428   2.102   3.980
 1188HOH     H2 3770   2.289   2.162   3.987
 1189HOH      O 3771   0.228   1.176   0.768
 1189HOH     H1 3772   0.243   1.206   0.858
 1189HOH     H2 3773   0.136   1.195   0.752
 1190HOH      O 3774   2.769   0.817   0.684
 1190HOH     H1 3775   2.771   0.759   0.608
 1190HOH     H2 3776   2.825   0.773   0.749
 1191HOH      O 3777   2.478   1.354   1.934
 1191HOH     H1 3778   2.423   1.310   1.998
 1191HOH     H2 3779   2.422   1.367   1.858
 1192HOH      O 3780   2.631   3.216   2.282
 1192HOH     H1 3781   2.696   3.259   2.338
 1192HOH     H2 3782   2.674   3.136   2.253
 1193HOH      O 3783   0.580   2.329   1.852
 1193HOH     H1 3784   0.621   2.260   1.905
 1193HOH     H2 3785   0.596   2.302   1.762
 1194HOH      O 3786   1.917   0.509   1.379
 1194HOH     H1 3787   1.971   0.477   1.451
 1194HOH     H2 3788   1.830   0.473   1.397
 1195HOH      O 3789   2.769   0.228   0.164
 1195HOH     H1 3790   2.756   0.161   0.097
 1195HOH     H2 3791   2.687   0.279   0.162
 1196HOH      O 3792   0.911   1.657   3.311
 1196HOH     H1 3793   1.006   1.657   3.326
 1196HOH     H2 3794   0.875   1.704   3.386
 1197HOH      O 3795   1.793   0.647   3.664
 1197HOH     H1 3796   1.772   0.724   3.613
 1197HOH     H2 3797   1.888   0.636   3.653
 1198HOH      O 3798   2.310   2.995   0.560
 1198HOH     H1 3799   2.347   2.909   0.538
 1198HOH     H2 3800   2.317   3.000   0.655
 1199HOH      O 3801   1.661   2.152   2.509
 1199HOH     H1 3802   1.595   2.148   2.439
 1199HOH     H2 3803   1.743   2.170   2.463
 1200HOH      O 3804   2.859   3.341   2.332
 1200HOH     H1 3805   2.906   3.301   2.406
 1200HOH     H2 3806   2.926   3.355   2.266
 1201HOH      O 3807   2.688   0.638   0.361
 1201HOH     H1 3808   2.774   0.598   0.356
 1201HOH     H2 3809   2.652   0.631   0.273
 1202HOH      O 3810   0.201   0.048   3.426
 1202HOH     H1 3811   0.269   0.115   3.437
 1202HOH     H2 3812   0.142   0.083   3.360
 1203HOH      O 3813   0.730   3.003   1.118
 1203HOH     H1 3814   0.708   2.978   1.028
 1203HOH     H2 3815   0.820   2.971   1.129
 1204HOH      O 3816   1.732   0.313   3.796
 1204HOH     H1 3817   1.689   0.398   3.800
 1204HOH     H2 3818   1.826   0.333   3.798
 1205HOH      O 3819   3.078   1.736   0.444
 1205HOH     H1 3820   3.142   1.749   0.374
 1205HOH     H2 3821   3.058   1.643   0.442
 1206HOH      O 3822   3.568   3.272   1.256
 1206HOH     H1 3823   3.565   3.248   1.164
 1206HOH     H2 3824   3.654   3.242   1.287
 1207HOH      O 3825   3.317   3.305   2.676
 1207HOH     H1 3826   3.281   3.313   2.588
 1207HOH     H2 3827   3.241   3.316   2.734
 1208HOH      O 3828   0.416   3.698   1.345
 1208HOH     H1 3829   0.430   3.771   1.284
 1208HOH     H2 3830   0.478   3.631   1.317
 1209HOH      O 3831   2.082   0.016   2.400
 1209HOH     H1 3832   2.073   0.087   2.463
 1209HOH     H2 3833   2.151   0.045   2.340
 1210HOH      O 3834   3.213   2.684   3.832
 1210HOH     H1 3835   3.286   2.721   3.782
 1210HOH     H2 3836   3.193   2.601   3.788
 1211HOH      O 3837   2.818   0.886   2.837
 1211HOH     H1 3838   2.908   0.895   2.807
 1211HOH     H2 3839   2.825   0.830   2.915
 1212HOH      O 3840   0.564   1.925   3.827
 1212HOH     H1 3841   0.476   1.887   3.818
 1212HOH     H2 3842   0.612   1.889   3.752
 1213HOH      O 3843   3.333   1.048   0.486
 1213HOH     H1 3844   3.337   1.125   0.542
 1213HOH     H2 3845   3.424   1.030   0.464
 1214HOH      O 3846   2.943   2.726   0.599
 1214HOH     H1 3847   2.935   2.778   0.518
 1214HOH     H2 3848   2.986   2.786   0.660
 1215HOH      O 3849   3.901   2.499   1.560
 1215HOH     H1 3850   3.887   2.419   1.611
 1215HOH     H2 3851   3.991   2.524   1.580
 1216HOH      O 3852   3.368   2.162   3.283
 1216HOH     H1 3853   3.319   2.080   3.280
 1216HOH     H2 3854   3.305   2.229   3.255
 1217HOH      O 3855   3.946   2.157   3.313
 1217HOH     H1 3856   3.853   2.137   3.323
 1217HOH     H2 3857   3.956   2.177   3.220
 1218HOH      O 3858   3.438   2.249   0.871
 1218HOH     H1 3859   3.389   2.205   0.802
 1218HOH     H2 3860   3.526   2.211   0.866
 1219HOH      O 3861   0.480   1.936   2.444
 1219HOH     H1 3862   0.399   1.890   2.425
 1219HOH     H2 3863   0.511   1.897   2.526
 1220HOH      O 3864   0.019   2.760   1.865
 1220HOH     H1 3865  -0.051   2.697   1.880
 1220HOH     H2 3866   0.055   2.777   1.952
 1221HOH      O 3867   3.274   3.732   1.739
 1221HOH     H1 3868   3.215   3.785   1.793
 1221HOH     H2 3869   3.264   3.767   1.651
 1222HOH      O 3870   0.095   1.800   1.336
 1222HOH     H1 3871   0.100   1.888   1.299
 1222HOH     H2 3872   0.024   1.805   1.400
 1223HOH      O 3873   2.263   4.025   3.363
 1223HOH     H1 3874   2.216   3.966   3.303
 1223HOH     H2 3875   2.352   4.028   3.329
 1224HOH      O 3876   2.400   3.606   1.093
 1224HOH     H1 3877   2.319   3.559   1.114
 1224HOH     H2 3878   2.444   3.616   1.178
 1225HOH      O 3879   0.817   3.089   0.751
 1225HOH     H1 3880   0.882   3.046   0.695
 1225HOH     H2 3881   0.776   3.018   0.799
 1226HOH      O 3882   2.598   2.413   3.151
 1226HOH     H1 3883   2.649   2.407   3.070
 1226HOH     H2 3884   2.531   2.345   3.142
 1227HOH      O 3885   1.893   3.165   1.851
 1227HOH     H1 3886   1.981   3.177   1.888
 1227HOH     H2 3887   1.835   3.161   1.927
 1228HOH      O 3888   3.996   3.906   3.144
 1228HOH     H1 3889   3.998   3.991   3.189
 1228HOH     H2 3890   3.908   3.872   3.162
 1229HOH      O 3891   3.165   3.424   0.148
 1229HOH     H1 3892   3.213   3.413   0.066
 1229HOH     H2 3893   3.151   3.519   0.154
 1230HOH      O 3894   2.983   1.417   3.894
 1230HOH     H1 3895   2.954   1.494   3.943
 1230HOH     H2 3896   2.905   1.362   3.887
 1231HOH      O 3897   1.060   3.680   3.716
 1231HOH     H1 3898   1.144   3.691   3.673
 1231HOH     H2 3899   1.020   3.604   3.672
 1232HOH      O 3900   1.574   0.105   3.041
 1232HOH     H1 3901   1.638   0.123   3.111
 1232HOH     H2 3902   1.624   0.116   2.960
 1233HOH      O 3903   3.822   3.525   0.083
 1233HOH     H1 3904   3.906   3.546   0.123
 1233HOH     H2 3905   3.825   3.566  -0.003
 1234HOH      O 3906   2.632   3.658   3.035
 1234HOH     H1 3907   2.643   3.672   2.941
 1234HOH     H2 3908   2.639   3.563   3.045
 1235HOH      O 3909   3.818   3.142   3.140
 1235HOH     H1 3910   3.739   3.096   3.110
 1235HOH     H2 3911   3.791   3.234   3.145
 1236HOH      O 3912   2.058   0.564   3.837
 1236HOH     H1 3913   2.036   0.473   3.818
 1236HOH     H2 3914   2.053   0.608   3.752
 1237HOH      O 3915   0.197   3.141   2.126
 1237HOH     H1 3916   0.199   3.185   2.211
 1237HOH     H2 3917   0.175   3.211   2.064
 1238HOH      O 3918   2.285   1.273   1.079
 1238HOH     H1 3919   2.280   1.281   0.984
 1238HOH     H2 3920   2.198   1.243   1.105
 1239HOH      O 3921   2.580   2.923   1.855
 1239HOH     H1 3922   2.621   2.940   1.939
 1239HOH     H2 3923   2.647   2.879   1.803
 1240HOH      O 3924   2.521   3.952   1.556
 1240HOH     H1 3925   2.604   3.981   1.596
 1240HOH     H2 3926   2.548   3.905   1.477
 1241HOH      O 3927   1.829   3.031   0.882
 1241HOH     H1 3928   1.741   3.036   0.919
 1241HOH     H2 3929   1.868   2.955   0.924
 1242HOH      O 3930   1.733   0.799   1.045
 1242HOH     H1 3931   1.640   0.790   1.023
 1242HOH     H2 3932   1.778   0.752   0.975
 1243HOH      O 3933   2.074   2.129   0.641
 1243HOH     H1 3934   2.074   2.103   0.548
 1243HOH     H2 3935   2.165   2.151   0.659
 1244HOH      O 3936   1.724   3.734   1.096
 1244HOH     H1 3937   1.649   3.785   1.064
 1244HOH     H2 3938   1.773   3.712   1.016
 1245HOH      O 3939   2.390   3.434   1.601
 1245HOH     H1 3940   2.420   3.362   1.657
 1245HOH     H2 3941   2.327   3.481   1.655
 1246HOH      O 3942   1.938   1.660   0.145
 1246HOH     H1 3943   1.885   1.740   0.150
 1246HOH     H2 3944   1.995   1.664   0.221
 1247HOH      O 3945   0.632   0.916   3.014
 1247HOH     H1 3946   0.726   0.900   3.014
 1247HOH     H2 3947   0.609   0.922   3.107
 1248HOH      O 3948   0.741   2.963   1.482
 1248HOH     H1 3949   0.770   2.922   1.564
 1248HOH     H2 3950   0.770   2.904   1.413
 1249HOH      O 3951   2.543   3.698   0.901
 1249HOH     H1 3952   2.481   3.680   0.971
 1249HOH     H2 3953   2.488   3.723   0.826
 1250HOH      O 3954   2.893   3.766   0.422
 1250HOH     H1 3955   2.941   3.835   0.468
 1250HOH     H2 3956   2.806   3.804   0.407
 1251HOH      O 3957   2.125   2.127   2.098
 1251HOH     H1 3958   2.134   2.055   2.161
 1251HOH     H2 3959   2.066   2.189   2.141
 1252HOH      O 3960   0.679   1.941   0.689
 1252HOH     H1 3961   0.754   1.885   0.706
 1252HOH     H2 3962   0.681   1.958   0.595
 1253HOH      O 3963   1.370   2.257   3.541
 1253HOH     H1 3964   1.332   2.172   3.563
 1253HOH     H2 3965   1.348   2.313   3.614
 1254HOH      O 3966   3.159   1.314   2.679
 1254HOH     H1 3967   3.153   1.389   2.619
 1254HOH     H2 3968   3.170   1.354   2.765
 1255HOH      O 3969   0.128   3.019   2.840
 1255HOH     H1 3970   0.199   2.999   2.780
 1255HOH     H2 3971   0.132   2.949   2.905
 1256HOH      O 3972   3.413   3.188   3.282
 1256HOH     H1 3973   3.370   3.266   3.249
 1256HOH     H2 3974   3.506   3.209   3.281
 1257HOH      O 3975   3.874   1.244   0.433
 1257HOH     H1 3976   3.891   1.273   0.343
 1257HOH     H2 3977   3.955   1.202   0.461
 1258HOH      O 3978   2.420   0.736   2.719
 1258HOH     H1 3979   2.435   0.791   2.642
 1258HOH     H2 3980   2.447   0.648   2.691
 1259HOH      O 3981   2.371   0.173   1.891
 1259HOH     H1 3982   2.453   0.135   1.923
 1259HOH     H2 3983   2.381   0.267   1.905
 1260HOH      O 3984   2.971   2.032   2.624
 1260HOH     H1 3985   3.016   1.988   2.696
 1260HOH     H2 3986   2.891   2.067   2.664
 1261HOH      O 3987   3.604   3.534   1.790
 1261HOH     H1 3988   3.550   3.596   1.840
 1261HOH     H2 3989   3.691   3.540   1.829
 1262HOH      O 3990   0.974   0.909   3.520
 1262HOH     H1 3991   0.960   0.814   3.530
 1262HOH     H2 3992   0.888   0.947   3.539
 1263HOH      O 3993   2.590   1.481   2.596
 1263HOH     H1 3994   2.601   1.424   2.520
 1263HOH     H2 3995   2.678   1.515   2.614
 1264HOH      O 3996   2.394   0.970   4.026
 1264HOH     H1 3997   2.395   1.066   4.028
 1264HOH     H2 3998   2.450   0.948   3.952
 1265HOH      O 3999   1.522   0.190   2.065
 1265HOH     H1 4000   1.439   0.237   2.073
 1265HOH     H2 4001   1.565   0.201   2.150
 1266HOH      O 4002   1.387   2.579   1.121
 1266HOH     H1 4003   1.347   2.634   1.189
 1266HOH     H2 4004   1.421   2.503   1.168
 1267HOH      O 4005   0.642   2.584   1.876
 1267HOH     H1 4006   0.606   2.498   1.857
 1267HOH     H2 4007   0.596   2.613   1.955
 1268HOH      O 4008   0.373   3.432   2.108
 1268HOH     H1 4009   0.380   3.511   2.162
 1268HOH     H2 4010   0.386   3.463   2.018
 1269HOH      O 4011   2.452   0.048   0.240
 1269HOH     H1 4012   2.437   0.047   0.146
 1269HOH     H2 4013   2.453  -0.045   0.265
 1270HOH      O 4014   1.302   3.108   3.646
 1270HOH     H1 4015   1.218   3.085   3.685
 1270HOH     H2 4016   1.309   3.052   3.569
 1271HOH      O 4017   3.916   3.098   0.785
 1271HOH     H1 4018   3.895   3.033   0.851
 1271HOH     H2 4019   4.012   3.105   0.788
 1272HOH      O 4020   0.038   2.078   1.216
 1272HOH     H1 4021   0.064   2.055   1.126
 1272HOH     H2 4022   0.042   2.173   1.218
 1273HOH      O 4023   3.894   2.278   1.730
 1273HOH     H1 4024   3.978   2.233   1.739
 1273HOH     H2 4025   3.828   2.211   1.751
 1274HOH      O 4026   1.131   3.716   0.168
 1274HOH     H1 4027   1.178   3.786   0.121
 1274HOH     H2 4028   1.075   3.677   0.101
 1275HOH      O 4029   2.734   3.627   1.073
 1275HOH     H1 4030   2.828   3.632   1.052
 1275HOH     H2 4031   2.690   3.652   0.992
 1276HOH      O 4032   1.039   2.396   0.661
 1276HOH     H1 4033   1.005   2.383   0.750
 1276HOH     H2 4034   1.075   2.484   0.661
 1277HOH      O 4035   1.120   1.218   1.679
 1277HOH     H1 4036   1.112   1.134   1.633
 1277HOH     H2 4037   1.190   1.204   1.743
 1278HOH      O 4038   2.362   1.653   0.770
 1278HOH     H1 4039   2.431   1.716   0.748
 1278HOH     H2 4040   2.312   1.643   0.689
 1279HOH      O 4041   2.141   1.404   2.648
 1279HOH     H1 4042   2.230   1.425   2.676
 1279HOH     H2 4043   2.117   1.473   2.586
 1280HOH      O 4044   3.914   1.999   2.319
 1280HOH     H1 4045   3.987   2.051   2.352
 1280HOH     H2 4046   3.871   2.057   2.256
 1281HOH      O 4047   0.061   3.011   3.217
 1281HOH     H1 4048   0.060   3.019   3.121
 1281HOH     H2 4049  -0.024   3.044   3.245
 1282HOH      O 4050   1.048   3.619   0.780
 1282HOH     H1 4051   1.005   3.700   0.808
 1282HOH     H2 4052   0.994   3.587   0.708
 1283HOH      O 4053   3.034   3.038   3.140
 1283HOH     H1 4054   2.967   3.033   3.072
 1283HOH     H2 4055   3.098   3.100   3.105
 1284HOH      O 4056   3.042   1.727   3.197
 1284HOH     H1 4057   3.001   1.760   3.277
 1284HOH     H2 4058   3.094   1.652   3.226
 1285HOH      O 4059   2.363   1.912   2.294
 1285HOH     H1 4060   2.386   1.823   2.267
 1285HOH     H2 4061   2.442   1.963   2.277
 1286HOH      O 4062   0.401   0.474   2.181
 1286HOH     H1 4063   0.383   0.507   2.269
 1286HOH     H2 4064   0.379   0.381   2.185
 1287HOH      O 4065   3.169   2.309   3.156
 1287HOH     H1 4066   3.223   2.386   3.138
 1287HOH     H2 4067   3.082   2.333   3.125
 1288HOH      O 4068   2.604   2.687   2.036
 1288HOH     H1 4069   2.574   2.658   2.123
 1288HOH     H2 4070   2.589   2.611   1.980
 1289HOH      O 4071   0.918   1.072   3.184
 1289HOH     H1 4072   0.962   1.099   3.265
 1289HOH     H2 4073   0.828   1.053   3.212
 1290HOH      O 4074   2.467   0.205   3.443
 1290HOH     H1 4075   2.450   0.267   3.372
 1290HOH     H2 4076   2.431   0.246   3.521
 1291HOH      O 4077   0.784   2.198   0.393
 1291HOH     H1 4078   0.830   2.179   0.475
 1291HOH     H2 4079   0.720   2.128   0.385
 1292HOH      O 4080   3.585   0.419   0.810
 1292HOH     H1 4081   3.610   0.510   0.828
 1292HOH     H2 4082   3.668   0.374   0.795
 1293HOH      O 4083   1.447   2.377   2.439
 1293HOH     H1 4084   1.484   2.426   2.366
 1293HOH     H2 4085   1.450   2.286   2.412
 1294HOH      O 4086   2.783   2.655   2.424
 1294HOH     H1 4087   2.828   2.653   2.508
 1294HOH     H2 4088   2.764   2.564   2.404
 1295HOH      O 4089   2.395   1.488   0.514
 1295HOH     H1 4090   2.331   1.419   0.534
 1295HOH     H2 4091   2.476   1.440   0.496
 1296HOH      O 4092   0.303   2.284   3.734
 1296HOH     H1 4093   0.235   2.322   3.788
 1296HOH     H2 4094   0.270   2.292   3.644
 1297HOH      O 4095   0.179   3.435   0.010
 1297HOH     H1 4096   0.152   3.479  -0.071
 1297HOH     H2 4097   0.125   3.476   0.078
 1298HOH      O 4098   1.274   3.399   2.485
 1298HOH     H1 4099   1.246   3.470   2.542
 1298HOH     H2 4100   1.231   3.321   2.521
 1299HOH      O 4101   2.921   2.916   2.335
 1299HOH     H1 4102   2.852   2.946   2.277
 1299HOH     H2 4103   2.890   2.831   2.369
 1300HOH      O 4104   2.165   1.112   3.045
 1300HOH     H1 4105   2.070   1.107   3.041
 1300HOH     H2 4106   2.193   1.024   3.071
 1301HOH      O 4107   1.082   2.959   0.777
 1301HOH     H1 4108   1.140   2.918   0.841
 1301HOH     H2 4109   1.043   3.033   0.823
 1302HOH      O 4110   0.575   1.093   1.591
 1302HOH     H1 4111   0.599   1.186   1.594
 1302HOH     H2 4112   0.569   1.073   1.498
 1303HOH      O 4113   2.831   2.089   3.146
 1303HOH     H1 4114   2.743   2.101   3.182
 1303HOH     H2 4115   2.820   2.022   3.078
 1304HOH      O 4116   1.016   0.681   3.257
 1304HOH     H1 4117   0.934   0.729   3.264
 1304HOH     H2 4118   1.031   0.645   3.344
 1305HOH      O 4119   2.170   3.874   3.144
 1305HOH     H1 4120   2.104   3.822   3.098
 1305HOH     H2 4121   2.240   3.812   3.164
 1306HOH      O 4122   3.262   1.397   1.493
 1306HOH     H1 4123   3.304   1.363   1.414
 1306HOH     H2 4124   3.186   1.445   1.460
 1307HOH      O 4125   1.986   0.406   2.690
 1307HOH     H1 4126   2.049   0.476   2.671
 1307HOH     H2 4127   2.031   0.325   2.665
 1308HOH      O 4128   0.900   0.836   2.933
 1308HOH     H1 4129   0.920   0.930   2.932
 1308HOH     H2 4130   0.964   0.797   2.873
 1309HOH      O 4131   0.612   2.668   1.236
 1309HOH     H1 4132   0.668   2.616   1.293
 1309HOH     H2 4133   0.667   2.688   1.160
 1310HOH      O 4134   2.377   2.222   1.742
 1310HOH     H1 4135   2.452   2.208   1.800
 1310HOH     H2 4136   2.408   2.197   1.655
 1311HOH      O 4137   2.104   2.251   2.554
 1311HOH     H1 4138   2.049   2.328   2.541
 1311HOH     H2 4139   2.092   2.229   2.647
 1312HOH      O 4140   3.217   1.344   4.000
 1312HOH     H1 4141   3.142   1.372   3.946
 1312HOH     H2 4142   3.287   1.405   3.977
 1313HOH      O 4143   1.853   3.520   3.546
 1313HOH     H1 4144   1.782   3.475   3.500
 1313HOH     H2 4145   1.824   3.525   3.637
 1314HOH      O 4146   2.958   2.594   1.527
 1314HOH     H1 4147   2.891   2.530   1.549
 1314HOH     H2 4148   2.914   2.658   1.471
 1315HOH      O 4149   2.112   2.619   3.696
 1315HOH     H1 4150   2.118   2.621   3.600
 1315HOH     H2 4151   2.020   2.601   3.714
 1316HOH      O 4152   0.450   2.080   3.002
 1316HOH     H1 4153   0.358   2.080   3.029
 1316HOH     H2 4154   0.446   2.075   2.906
 1317HOH      O 4155   2.533   2.737   2.352
 1317HOH     H1 4156   2.623   2.714   2.374
 1317HOH     H2 4157   2.517   2.818   2.400
 1318HOH      O 4158   2.082   0.525   3.299
 1318HOH     H1 4159   1.999   0.496   3.339
 1318HOH     H2 4160   2.055   0.582   3.227
 1319HOH      O 4161   1.309   1.921   0.387
 1319HOH     H1 4162   1.313   1.932   0.482
 1319HOH     H2 4163   1.221   1.886   0.371
 1320HOH      O 4164   3.422   1.474   2.417
 1320HOH     H1 4165   3.426   1.548   2.357
 1320HOH     H2 4166   3.348   1.493   2.474
 1321HOH      O 4167   1.192   0.040   3.769
 1321HOH     H1 4168   1.158   0.130   3.760
 1321HOH     H2 4169   1.114  -0.013   3.788
 1322HOH      O 4170   1.571   1.352   1.029
 1322HOH     H1 4171   1.523   1.288   1.082
 1322HOH     H2 4172   1.506   1.386   0.968
 1323HOH      O 4173   1.982   1.779   2.265
 1323HOH     H1 4174   2.065   1.827   2.273
 1323HOH     H2 4175   1.949   1.803   2.178
 1324HOH      O 4176   2.742   2.234   1.378
 1324HOH     H1 4177   2.835   2.230   1.353
 1324HOH     H2 4178   2.696   2.249   1.296
 1325HOH      O 4179   2.334   1.079   0.260
 1325HOH     H1 4180   2.338   1.025   0.339
 1325HOH     H2 4181   2.266   1.038   0.206
 1326HOH      O 4182   1.828   1.426   1.254
 1326HOH     H1 4183   1.923   1.420   1.245
 1326HOH     H2 4184   1.811   1.405   1.346
 1327HOH      O 4185   2.575   0.929   3.487
 1327HOH     H1 4186   2.661   0.937   3.530
 1327HOH     H2 4187   2.595   0.889   3.402
 1328HOH      O 4188   0.460   1.222   3.272
 1328HOH     H1 4189   0.406   1.159   3.319
 1328HOH     H2 4190   0.502   1.274   3.341
 1329HOH      O 4191   3.270   1.527   0.825
 1329HOH     H1 4192   3.301   1.509   0.736
 1329HOH     H2 4193   3.307   1.456   0.878
 1330HOH      O 4194   1.068   2.128   0.355
 1330HOH     H1 4195   0.974   2.149   0.356
 1330HOH     H2 4196   1.074   2.044   0.400
 1331HOH      O 4197   0.802   2.061   1.525
 1331HOH     H1 4198   0.891   2.091   1.541
 1331HOH     H2 4199   0.793   1.981   1.577
 1332HOH      O 4200   2.263   3.089   2.141
 1332HOH     H1 4201   2.248   3.148   2.215
 1332HOH     H2 4202   2.226   3.006   2.169
 1333HOH      O 4203   0.916   3.634   0.330
 1333HOH     H1 4204   0.991   3.665   0.280
 1333HOH     H2 4205   0.901   3.703   0.395
 1334HOH      O 4206   2.613   1.007   3.015
 1334HOH     H1 4207   2.576   0.922   2.990
 1334HOH     H2 4208   2.695   0.985   3.058
 1335HOH      O 4209   3.857   3.477   1.907
 1335HOH     H1 4210   3.863   3.415   1.979
 1335HOH     H2 4211   3.896   3.431   1.832
 1336HOH      O 4212   0.522   4.058   1.252
 1336HOH     H1 4213   0.459   4.082   1.320
 1336HOH     H2 4214   0.483   3.981   1.210
 1337HOH      O 4215   1.115   1.360   2.059
 1337HOH     H1 4216   1.149   1.278   2.095
 1337HOH     H2 4217   1.194   1.407   2.031
 1338HOH      O 4218   3.237   2.679   0.470
 1338HOH     H1 4219   3.300   2.725   0.525
 1338HOH     H2 4220   3.195   2.617   0.529
 1339HOH      O 4221   2.863   0.401   0.354
 1339HOH     H1 4222   2.892   0.328   0.410
 1339HOH     H2 4223   2.840   0.359   0.271
 1340HOH      O 4224   3.115   2.497   0.629
 1340HOH     H1 4225   3.047   2.545   0.675
 1340HOH     H2 4226   3.083   2.406   0.627
 1341HOH      O 4227   0.857   0.934   1.064
 1341HOH     H1 4228   0.833   0.884   1.142
 1341HOH     H2 4229   0.774   0.969   1.032
 1342HOH      O 4230   0.606   0.285   2.929
 1342HOH     H1 4231   0.612   0.305   3.022
 1342HOH     H2 4232   0.628   0.192   2.923
 1343HOH      O 4233   2.409   0.933   1.707
 1343HOH     H1 4234   2.327   0.885   1.697
 1343HOH     H2 4235   2.413   0.954   1.801
 1344HOH      O 4236   1.347   1.234   0.887
 1344HOH     H1 4237   1.409   1.164   0.867
 1344HOH     H2 4238   1.264   1.189   0.904
 1345HOH      O 4239   2.644   1.006   0.505
 1345HOH     H1 4240   2.581   1.047   0.564
 1345HOH     H2 4241   2.693   0.946   0.561
 1346HOH      O 4242   2.564   2.980   2.526
 1346HOH     H1 4243   2.583   2.953   2.616
 1346HOH     H2 4244   2.600   3.069   2.519
 1347HOH      O 4245   1.829   2.373   3.413
 1347HOH     H1 4246   1.844   2.391   3.505
 1347HOH     H2 4247   1.751   2.318   3.412
 1348HOH      O 4248   0.489   2.249   0.503
 1348HOH     H1 4249   0.432   2.186   0.547
 1348HOH     H2 4250   0.467   2.241   0.411
 1349HOH      O 4251   3.030   0.970   1.652
 1349HOH     H1 4252   3.109   1.023   1.643
 1349HOH     H2 4253   3.056   0.884   1.620
 1350HOH      O 4254   1.741   1.135   0.510
 1350HOH     H1 4255   1.652   1.133   0.474
 1350HOH     H2 4256   1.752   1.049   0.551
 1351HOH      O 4257   1.565   0.367   2.733
 1351HOH     H1 4258   1.645   0.335   2.775
 1351HOH     H2 4259   1.516   0.408   2.804
 1352HOH      O 4260   0.344   2.644   3.481
 1352HOH     H1 4261   0.292   2.714   3.441
 1352HOH     H2 4262   0.404   2.616   3.412
 1353HOH      O 4263   2.957   0.881   1.029
 1353HOH     H1 4264   2.994   0.860   1.115
 1353HOH     H2 4265   2.877   0.930   1.049
 1354HOH      O 4266   4.005   2.683   0.109
 1354HOH     H1 4267   3.991   2.617   0.177
 1354HOH     H2 4268   3.997   2.766   0.155
 1355HOH      O 4269   3.572   3.004   3.093
 1355HOH     H1 4270   3.531   2.974   3.012
 1355HOH     H2 4271   3.503   3.054   3.137
 1356HOH      O 4272   1.105   0.542   1.181
 1356HOH     H1 4273   1.067   0.537   1.269
 1356HOH     H2 4274   1.050   0.485   1.128
 1357HOH      O 4275   3.079   1.197   1.174
 1357HOH     H1 4276   3.075   1.186   1.079
 1357HOH     H2 4277   3.163   1.241   1.189
 1358HOH      O 4278   1.656   1.461   3.469
 1358HOH     H1 4279   1.736   1.496   3.429
 1358HOH     H2 4280   1.641   1.378   3.423
 1359HOH      O 4281   1.247   1.617   0.781
 1359HOH     H1 4282   1.246   1.552   0.710
 1359HOH     H2 4283   1.314   1.680   0.754
 1360HOH      O 4284   3.056   2.215   0.639
 1360HOH     H1 4285   3.058   2.122   0.663
 1360HOH     H2 4286   3.077   2.216   0.546
 1361HOH      O 4287   3.243   0.734   3.109
 1361HOH     H1 4288   3.236   0.760   3.017
 1361HOH     H2 4289   3.187   0.796   3.156
 1362HOH      O 4290   1.920   2.184   2.331
 1362HOH     H1 4291   1.994   2.170   2.391
 1362HOH     H2 4292   1.935   2.272   2.296
 1363HOH      O 4293   3.508   0.259   1.035
 1363HOH     H1 4294   3.573   0.284   1.101
 1363HOH     H2 4295   3.493   0.338   0.984
 1364HOH      O 4296   2.833   3.312   1.410
 1364HOH     H1 4297   2.788   3.228   1.420
 1364HOH     H2 4298   2.899   3.312   1.479
 1365HOH      O 4299   2.700   2.932   2.127
 1365HOH     H1 4300   2.646   2.853   2.130
 1365HOH     H2 4301   2.785   2.901   2.094
 1366HOH      O 4302   0.663   0.196   1.545
 1366HOH     H1 4303   0.661   0.278   1.594
 1366HOH     H2 4304   0.571   0.173   1.532
 1367HOH      O 4305   2.422   1.429   1.241
 1367HOH     H1 4306   2.473   1.476   1.175
 1367HOH     H2 4307   2.362   1.374   1.191
 1368HOH      O 4308   0.832   3.343   0.847
 1368HOH     H1 4309   0.821   3.370   0.756
 1368HOH     H2 4310   0.807   3.251   0.848
 1369HOH      O 4311   1.996   3.365   1.691
 1369HOH     H1 4312   1.949   3.294   1.736
 1369HOH     H2 4313   2.041   3.412   1.761
 1370HOH      O 4314   0.533   3.766   3.209
 1370HOH     H1 4315   0.526   3.699   3.141
 1370HOH     H2 4316   0.581   3.838   3.167
 1371HOH      O 4317   2.675   2.574   1.370
 1371HOH     H1 4318   2.696   2.526   1.451
 1371HOH     H2 4319   2.637   2.656   1.401
 1372HOH      O 4320   0.715   0.637   2.230
 1372HOH     H1 4321   0.810   0.639   2.219
 1372HOH     H2 4322   0.700   0.571   2.297
 1373HOH      O 4323   3.417   3.993   1.445
 1373HOH     H1 4324   3.485   3.971   1.509
 1373HOH     H2 4325   3.442   3.946   1.366
 1374HOH      O 4326   1.586   0.544   0.114
 1374HOH     H1 4327   1.585   0.466   0.059
 1374HOH     H2 4328   1.646   0.604   0.070
 1375HOH      O 4329   1.619   3.045   2.936
 1375HOH     H1 4330   1.615   2.985   2.861
 1375HOH     H2 4331   1.624   3.132   2.897
 1376HOH      O 4332   2.655   2.396   3.748
 1376HOH     H1 4333   2.562   2.371   3.746
 1376HOH     H2 4334   2.657   2.473   3.805
 1377HOH      O 4335   0.914   2.088   2.376
 1377HOH     H1 4336   0.830   2.083   2.330
 1377HOH     H2 4337   0.901   2.158   2.441
 1378HOH      O 4338   1.508   3.983   2.281
 1378HOH     H1 4339   1.519   3.969   2.187
 1378HOH     H2 4340   1.556   4.063   2.299
 1379HOH      O 4341   2.492   3.365   3.816
 1379HOH     H1 4342   2.548   3.381   3.740
 1379HOH     H2 4343   2.522   3.281   3.850
 1380HOH      O 4344   2.703   3.173   3.823
 1380HOH     H1 4345   2.765   3.180   3.750
 1380HOH     H2 4346   2.671   3.083   3.819
 1381HOH      O 4347   1.319   1.969   0.662
 1381HOH     H1 4348   1.231   1.952   0.697
 1381HOH     H2 4349   1.369   1.891   0.687
 1382HOH      O 4350   3.063   1.186   2.173
 1382HOH     H1 4351   3.037   1.273   2.140
 1382HOH     H2 4352   3.100   1.204   2.260
 1383HOH      O 4353   1.069   1.947   0.784
 1383HOH     H1 4354   1.037   1.861   0.756
 1383HOH     H2 4355   1.070   1.942   0.880
 1384HOH      O 4356   3.479   1.512   3.958
 1384HOH     H1 4357   3.512   1.422   3.950
 1384HOH     H2 4358   3.492   1.549   3.871
 1385HOH      O 4359   1.966   1.684   2.871
 1385HOH     H1 4360   2.061   1.695   2.868
 1385HOH     H2 4361   1.953   1.594   2.901
 1386HOH      O 4362   2.640   3.819   0.305
 1386HOH     H1 4363   2.678   3.810   0.218
 1386HOH     H2 4364   2.649   3.733   0.345
 1387HOH      O 4365   2.939   1.194   1.804
 1387HOH     H1 4366   2.942   1.127   1.736
 1387HOH     H2 4367   2.848   1.223   1.804
 1388HOH      O 4368   1.585   2.740   1.420
 1388HOH     H1 4369   1.638   2.684   1.477
 1388HOH     H2 4370   1.502   2.694   1.412
 1389HOH      O 4371   1.160   2.131   0.103
 1389HOH     H1 4372   1.167   2.132   0.198
 1389HOH     H2 4373   1.074   2.093   0.085
 1390HOH      O 4374   0.519   3.765   3.837
 1390HOH     H1 4375   0.569   3.685   3.856
 1390HOH     H2 4376   0.468   3.780   3.916
 1391HOH      O 4377   1.906   2.495   2.693
 1391HOH     H1 4378   1.837   2.446   2.737
 1391HOH     H2 4379   1.956   2.535   2.763
 1392HOH      O 4380   1.659   1.969   3.810
 1392HOH     H1 4381   1.664   1.929   3.723
 1392HOH     H2 4382   1.601   1.911   3.859
 1393HOH      O 4383   1.539   2.526   2.235
 1393HOH     H1 4384   1.609   2.475   2.196
 1393HOH     H2 4385   1.551   2.614   2.200
 1394HOH      O 4386   3.004   3.057   4.056
 1394HOH     H1 4387   2.911   3.039   4.063
 1394HOH     H2 4388   3.017   3.086   3.966
 1395HOH      O 4389   2.246   0.045   2.168
 1395HOH     H1 4390   2.246   0.089   2.083
 1395HOH     H2 4391   2.333   0.061   2.204
 1396HOH      O 4392   0.100   2.387   0.310
 1396HOH     H1 4393   0.065   2.463   0.357
 1396HOH     H2 4394   0.037   2.317   0.325
 1397HOH      O 4395   2.376   0.769   0.374
 1397HOH     H1 4396   2.365   0.694   0.433
 1397HOH     H2 4397   2.454   0.747   0.322
 1398HOH      O 4398   3.585   1.249   4.000
 1398HOH     H1 4399   3.639   1.278   4.073
 1398HOH     H2 4400   3.553   1.163   4.026
 1399HOH      O 4401   0.481   1.614   3.682
 1399HOH     H1 4402   0.572   1.603   3.655
 1399HOH     H2 4403   0.431   1.571   3.613
 1400HOH      O 4404   0.118   0.886   0.175
 1400HOH     H1 4405   0.069   0.805   0.190
 1400HOH     H2 4406   0.202   0.857   0.139
 1401HOH      O 4407   2.208   1.766   2.777
 1401HOH     H1 4408   2.188   1.793   2.687
 1401HOH     H2 4409   2.303   1.760   2.779
 1402HOH      O 4410   0.602   1.845   3.358
 1402HOH     H1 4411   0.519   1.823   3.314
 1402HOH     H2 4412   0.641   1.913   3.303
 1403HOH      O 4413   3.074   0.901   2.687
 1403HOH     H1 4414   3.119   0.970   2.637
 1403HOH     H2 4415   3.056   0.833   2.623
 1404HOH      O 4416   3.742   2.059   1.813
 1404HOH     H1 4417   3.755   2.022   1.900
 1404HOH     H2 4418   3.672   2.006   1.774
 1405HOH      O 4419   3.512   0.376   3.684
 1405HOH     H1 4420   3.539   0.399   3.772
 1405HOH     H2 4421   3.475   0.288   3.692
 1406HOH      O 4422   3.614   0.949   1.824
 1406HOH     H1 4423   3.604   0.906   1.908
 1406HOH     H2 4424   3.524   0.957   1.791
 1407HOH      O 4425   0.635   2.561   2.473
 1407HOH     H1 4426   0.583   2.556   2.393
 1407HOH     H2 4427   0.571   2.570   2.543
 1408HOH      O 4428   3.869   1.766   1.813
 1408HOH     H1 4429   3.935   1.698   1.825
 1408HOH     H2 4430   3.830   1.777   1.900
 1409HOH      O 4431   3.178   3.222   1.405
 1409HOH     H1 4432   3.247   3.156   1.397
 1409HOH     H2 4433   3.225   3.305   1.417
 1410HOH      O 4434   2.249   3.810   0.188
 1410HOH     H1 4435   2.199   3.791   0.267
 1410HOH     H2 4436   2.325   3.753   0.192
 1411HOH      O 4437   3.762   3.079   1.100
 1411HOH     H1 4438   3.711   3.024   1.041
 1411HOH     H2 4439   3.815   3.017   1.151
 1412HOH      O 4440   2.891   2.065   2.163
 1412HOH     H1 4441   2.876   2.021   2.246
 1412HOH     H2 4442   2.984   2.091   2.167
 1413HOH      O 4443   0.283   1.503   2.632
 1413HOH     H1 4444   0.308   1.412   2.648
 1413HOH     H2 4445   0.280   1.543   2.719
 1414HOH      O 4446   3.028   0.808   2.432
 1414HOH     H1 4447   3.004   0.733   2.377
 1414HOH     H2 4448   3.110   0.840   2.394
 1415HOH      O 4449   0.547   3.531   0.330
 1415HOH     H1 4450   0.498   3.469   0.275
 1415HOH     H2 4451   0.590   3.476   0.395
 1416HOH      O 4452   2.786   0.066   3.951
 1416HOH     H1 4453   2.841   0.129   3.903
 1416HOH     H2 4454   2.797  -0.016   3.902
 1417HOH      O 4455   0.025   2.297   3.555
 1417HOH     H1 4456   0.107   2.286   3.505
 1417HOH     H2 4457  -0.039   2.246   3.505
 1418HOH      O 4458   0.527   3.050   1.325
 1418HOH     H1 4459   0.566   3.057   1.411
 1418HOH     H2 4460   0.599   3.027   1.267
 1419HOH      O 4461   3.674   2.578   2.172
 1419HOH     H1 4462   3.618   2.644   2.132
 1419HOH     H2 4463   3.758   2.623   2.184
 1420HOH      O 4464   1.285   2.566   2.803
 1420HOH     H1 4465   1.249   2.549   2.890
 1420HOH     H2 4466   1.329   2.485   2.779
 1421HOH      O 4467   3.999   3.108   3.499
 1421HOH     H1 4468   4.067   3.118   3.566
 1421HOH     H2 4469   3.957   3.024   3.519
 1422HOH      O 4470   0.499   3.890   2.128
 1422HOH     H1 4471   0.543   3.924   2.206
 1422HOH     H2 4472   0.443   3.962   2.099
 1423HOH      O 4473   1.456   0.813   1.014
 1423HOH     H1 4474   1.475   0.766   1.095
 1423HOH     H2 4475   1.363   0.800   1.000
 1424HOH      O 4476   0.349   1.203   0.410
 1424HOH     H1 4477   0.391   1.128   0.453
 1424HOH     H2 4478   0.390   1.280   0.450
 1425HOH      O 4479   3.131   0.211   1.242
 1425HOH     H1 4480   3.129   0.306   1.238
 1425HOH     H2 4481   3.204   0.191   1.300
 1426HOH      O 4482   0.352   3.929   0.397
 1426HOH     H1 4483   0.279   3.988   0.416
 1426HOH     H2 4484   0.397   3.969   0.323
 1427HOH      O 4485   1.539   2.136   1.747
 1427HOH     H1 4486   1.522   2.045   1.775
 1427HOH     H2 4487   1.559   2.128   1.654
 1428HOH      O 4488   2.929   0.287   3.826
 1428HOH     H1 4489   2.964   0.213   3.776
 1428HOH     H2 4490   2.871   0.332   3.765
 1429HOH      O 4491   0.424   1.645   1.925
 1429HOH     H1 4492   0.451   1.735   1.939
 1429HOH     H2 4493   0.504   1.600   1.899
 1430HOH      O 4494   3.878   0.300   1.631
 1430HOH     H1 4495   3.880   0.386   1.672
 1430HOH     H2 4496   3.792   0.264   1.654
 1431HOH      O 4497   0.453   0.062   0.175
 1431HOH     H1 4498   0.464   0.156   0.191
 1431HOH     H2 4499   0.455   0.053   0.080
 1432HOH      O 4500   1.257   0.055   1.551
 1432HOH     H1 4501   1.178   0.011   1.518
 1432HOH     H2 4502   1.259   0.034   1.644
 1433HOH      O 4503   2.230   0.631   2.231
 1433HOH     H1 4504   2.206   0.605   2.320
 1433HOH     H2 4505   2.312   0.678   2.242
 1434HOH      O 4506   3.022   2.134   3.349
 1434HOH     H1 4507   3.055   2.208   3.298
 1434HOH     H2 4508   2.955   2.094   3.294
 1435HOH      O 4509   1.403   1.844   1.230
 1435HOH     H1 4510   1.430   1.753   1.241
 1435HOH     H2 4511   1.370   1.870   1.316
 1436HOH      O 4512   0.605   3.526   2.335
 1436HOH     H1 4513   0.628   3.565   2.420
 1436HOH     H2 4514   0.548   3.452   2.358
 1437HOH      O 4515   2.433   1.444   1.521
 1437HOH     H1 4516   2.428   1.439   1.426
 1437HOH     H2 4517   2.404   1.358   1.551
 1438HOH      O 4518   3.250   3.217   3.560
 1438HOH     H1 4519   3.230   3.281   3.492
 1438HOH     H2 4520   3.257   3.134   3.513
 1439HOH      O 4521   1.066   3.376   1.547
 1439HOH     H1 4522   1.114   3.436   1.489
 1439HOH     H2 4523   0.991   3.348   1.496
 1440HOH      O 4524   3.136   2.074   1.162
 1440HOH     H1 4525   3.211   2.131   1.145
 1440HOH     H2 4526   3.173   1.986   1.164
 1441HOH      O 4527   0.104   1.406   1.005
 1441HOH     H1 4528   0.065   1.490   0.980
 1441HOH     H2 4529   0.117   1.412   1.099
 1442HOH      O 4530   2.505   2.886   0.996
 1442HOH     H1 4531   2.575   2.855   0.938
 1442HOH     H2 4532   2.551   2.916   1.074
 1443HOH      O 4533   1.314   2.423   2.113
 1443HOH     H1 4534   1.356   2.337   2.117
 1443HOH     H2 4535   1.368   2.478   2.170
 1444HOH      O 4536   1.493   1.127   1.554
 1444HOH     H1 4537   1.481   1.102   1.462
 1444HOH     H2 4538   1.431   1.071   1.602
 1445HOH      O 4539   1.216   1.238   3.098
 1445HOH     H1 4540   1.156   1.291   3.150
 1445HOH     H2 4541   1.183   1.148   3.106
 1446HOH      O 4542   3.525   1.781   3.297
 1446HOH     H1 4543   3.501   1.831   3.376
 1446HOH     H2 4544   3.475   1.822   3.227
 1447HOH      O 4545   1.774   2.430   0.312
 1447HOH     H1 4546   1.730   2.416   0.396
 1447HOH     H2 4547   1.766   2.524   0.296
 1448HOH      O 4548   1.818   0.430   3.349
 1448HOH     H1 4549   1.769   0.513   3.346
 1448HOH     H2 4550   1.760   0.370   3.396
 1449HOH      O 4551   1.239   0.920   0.171
 1449HOH     H1 4552   1.291   0.980   0.117
 1449HOH     H2 4553   1.288   0.838   0.169
 1450HOH      O 4554   1.049   0.463   2.433
 1450HOH     H1 4555   0.974   0.404   2.439
 1450HOH     H2 4556   1.123   0.412   2.465
 1451HOH      O 4557   3.585   3.586   3.246
 1451HOH     H1 4558   3.671   3.627   3.237
 1451HOH     H2 4559   3.593   3.502   3.202
 1452HOH      O 4560   2.643   3.375   3.014
 1452HOH     H1 4561   2.715   3.370   2.951
 1452HOH     H2 4562   2.578   3.313   2.981
 1453HOH      O 4563   1.671   0.362   1.763
 1453HOH     H1 4564   1.747   0.415   1.786
 1453HOH     H2 4565   1.601   0.426   1.749
 1454HOH      O 4566   1.171   1.934   1.053
 1454HOH     H1 4567   1.109   1.875   1.095
 1454HOH     H2 4568   1.257   1.893   1.066
 1455HOH      O 4569   3.908   3.829   1.074
 1455HOH     H1 4570   3.867   3.865   1.152
 1455HOH     H2 4571   3.882   3.737   1.074
 1456HOH      O 4572   1.151   0.951   3.146
 1456HOH     H1 4573   1.138   0.857   3.142
 1456HOH     H2 4574   1.062   0.987   3.144
 1457HOH      O 4575   3.779   1.709   1.243
 1457HOH     H1 4576   3.772   1.792   1.197
 1457HOH     H2 4577   3.779   1.734   1.336
 1458HOH      O 4578   0.669   3.272   3.257
 1458HOH     H1 4579   0.589   3.305   3.215
 1458HOH     H2 4580   0.655   3.178   3.266
 1459HOH      O 4581   1.624   2.737   3.638
 1459HOH     H1 4582   1.539   2.742   3.595
 1459HOH     H2 4583   1.607   2.696   3.722
 1460HOH      O 4584   0.600   2.771   3.237
 1460HOH     H1 4585   0.561   2.685   3.249
 1460HOH     H2 4586   0.652   2.763   3.157
 1461HOH      O 4587   3.743   2.277   0.808
 1461HOH     H1 4588   3.821   2.310   0.851
 1461HOH     H2 4589   3.713   2.349   0.753
 1462HOH      O 4590   2.273   3.987   0.846
 1462HOH     H1 4591   2.266   4.037   0.927
 1462HOH     H2 4592   2.349   4.025   0.801
 1463HOH      O 4593   3.116   1.895   1.731
 1463HOH     H1 4594   3.133   1.869   1.640
 1463HOH     H2 4595   3.080   1.984   1.724
 1464HOH      O 4596   1.562   2.997   1.995
 1464HOH     H1 4597   1.607   3.069   2.038
 1464HOH     H2 4598   1.494   3.039   1.942
 1465HOH      O 4599   3.100   1.153   0.410
 1465HOH     H1 4600   3.170   1.098   0.444
 1465HOH     H2 4601   3.124   1.168   0.318
 1466HOH      O 4602   2.929   0.697   1.768
 1466HOH     H1 4603   2.914   0.627   1.831
 1466HOH     H2 4604   2.899   0.776   1.813
 1467HOH      O 4605   0.968   2.284   0.900
 1467HOH     H1 4606   1.044   2.227   0.915
 1467HOH     H2 4607   0.935   2.303   0.987
 1468HOH      O 4608   1.596   0.814   0.370
 1468HOH     H1 4609   1.637   0.881   0.316
 1468HOH     H2 4610   1.533   0.772   0.313
 1469HOH      O 4611   0.320   1.816   3.765
 1469HOH     H1 4612   0.364   1.732   3.754
 1469HOH     H2 4613   0.272   1.829   3.683
 1470HOH      O 4614   3.395   2.363   1.854
 1470HOH     H1 4615   3.440   2.438   1.814
 1470HOH     H2 4616   3.345   2.401   1.927
 1471HOH      O 4617   3.305   3.078   1.895
 1471HOH     H1 4618   3.254   3.017   1.842
 1471HOH     H2 4619   3.376   3.107   1.836
 1472HOH      O 4620   1.643   3.643   0.592
 1472HOH     H1 4621   1.635   3.551   0.618
 1472HOH     H2 4622   1.623   3.692   0.672
 1473HOH      O 4623   2.651   0.495   0.612
 1473HOH     H1 4624   2.639   0.516   0.519
 1473HOH     H2 4625   2.739   0.456   0.616
 1474HOH      O 4626   0.656   2.025   2.284
 1474HOH     H1 4627   0.586   2.004   2.346
 1474HOH     H2 4628   0.652   1.955   2.219
 1475HOH      O 4629   2.066   2.310   3.633
 1475HOH     H1 4630   2.038   2.388   3.680
 1475HOH     H2 4631   1.987   2.256   3.627
 1476HOH      O 4632   3.405   3.119   0.320
 1476HOH     H1 4633   3.366   3.113   0.233
 1476HOH     H2 4634   3.331   3.113   0.380
 1477HOH      O 4635   1.664   0.816   3.477
 1477HOH     H1 4636   1.638   0.738   3.429
 1477HOH     H2 4637   1.658   0.887   3.413
 1478HOH      O 4638   2.562   3.945   3.911
 1478HOH     H1 4639   2.628   4.010   3.937
 1478HOH     H2 4640   2.480   3.980   3.946
 1479HOH      O 4641   2.137   1.307   3.202
 1479HOH     H1 4642   2.092   1.266   3.275
 1479HOH     H2 4643   2.158   1.235   3.142
 1480HOH      O 4644   1.882   3.951   3.698
 1480HOH     H1 4645   1.860   3.939   3.606
 1480HOH     H2 4646   1.890   3.862   3.733
 1481HOH      O 4647   0.583   0.705   1.287
 1481HOH     H1 4648   0.651   0.762   1.323
 1481HOH     H2 4649   0.595   0.622   1.334
 1482HOH      O 4650   1.447   0.308   0.856
 1482HOH     H1 4651   1.396   0.389   0.851
 1482HOH     H2 4652   1.384   0.239   0.838
 1483HOH      O 4653   1.156   0.745   1.014
 1483HOH     H1 4654   1.100   0.713   0.943
 1483HOH     H2 4655   1.137   0.688   1.088
 1484HOH      O 4656   0.688   2.861   2.151
 1484HOH     H1 4657   0.741   2.851   2.072
 1484HOH     H2 4658   0.692   2.955   2.169
 1485HOH      O 4659   2.013   1.993   2.661
 1485HOH     H1 4660   1.922   1.962   2.663
 1485HOH     H2 4661   2.034   1.996   2.567
 1486HOH      O 4662   3.356   1.930   3.741
 1486HOH     H1 4663   3.265   1.931   3.710
 1486HOH     H2 4664   3.355   1.987   3.818
 1487HOH      O 4665   0.133   3.844   1.061
 1487HOH     H1 4666   0.135   3.830   0.966
 1487HOH     H2 4667   0.039   3.844   1.083
 1488HOH      O 4668   0.590   1.791   2.117
 1488HOH     H1 4669   0.498   1.814   2.106
 1488HOH     H2 4670   0.588   1.710   2.167
 1489HOH      O 4671   3.851   1.393   3.657
 1489HOH     H1 4672   3.883   1.361   3.741
 1489HOH     H2 4673   3.851   1.488   3.665
 1490HOH      O 4674   0.703   1.130   0.709
 1490HOH     H1 4675   0.789   1.114   0.748
 1490HOH     H2 4676   0.721   1.182   0.631
 1491HOH      O 4677   3.832   3.982   1.945
 1491HOH     H1 4678   3.740   3.954   1.947
 1491HOH     H2 4679   3.873   3.931   2.014
 1492HOH      O 4680   1.735   3.263   0.479
 1492HOH     H1 4681   1.721   3.354   0.503
 1492HOH     H2 4682   1.716   3.214   0.560
 1493HOH      O 4683   1.985   4.054   3.371
 1493HOH     H1 4684   1.952   3.971   3.406
 1493HOH     H2 4685   2.078   4.055   3.394
 1494HOH      O 4686   1.488   3.072   0.428
 1494HOH     H1 4687   1.457   3.080   0.518
 1494HOH     H2 4688   1.573   3.028   0.437
 1495HOH      O 4689   3.433   2.620   0.923
 1495HOH     H1 4690   3.502   2.566   0.962
 1495HOH     H2 4691   3.480   2.682   0.867
 1496HOH      O 4692   2.326   1.385   3.609
 1496HOH     H1 4693   2.358   1.305   3.568
 1496HOH     H2 4694   2.395   1.411   3.670
 1497HOH      O 4695   0.578   3.043   1.872
 1497HOH     H1 4696   0.548   3.103   1.941
 1497HOH     H2 4697   0.673   3.049   1.875
 1498HOH      O 4698   3.729   0.416   3.507
 1498HOH     H1 4699   3.670   0.406   3.582
 1498HOH     H2 4700   3.697   0.352   3.443
 1499HOH      O 4701   1.735   3.249   1.258
 1499HOH     H1 4702   1.711   3.296   1.338
 1499HOH     H2 4703   1.733   3.157   1.284
 1500HOH      O 4704   0.251   3.863   3.260
 1500HOH     H1 4705   0.222   3.935   3.315
 1500HOH     H2 4706   0.345   3.855   3.278
 1501HOH      O 4707   2.834   2.804   3.305
 1501HOH     H1 4708   2.827   2.744   3.231
 1501HOH     H2 4709   2.754   2.857   3.301
 1502HOH      O 4710   1.076   3.637   2.876
 1502HOH     H1 4711   1.021   3.583   2.932
 1502HOH     H2 4712   1.051   3.727   2.897
 1503HOH      O 4713   1.435   1.377   1.419
 1503HOH     H1 4714   1.462   1.333   1.339
 1503HOH     H2 4715   1.435   1.308   1.485
 1504HOH      O 4716   2.449   1.917   1.141
 1504HOH     H1 4717   2.443   1.838   1.195
 1504HOH     H2 4718   2.541   1.924   1.118
 1505HOH      O 4719   3.910   2.509   1.897
 1505HOH     H1 4720   3.892   2.434   1.840
 1505HOH     H2 4721   3.846   2.575   1.871
 1506HOH      O 4722   3.297   0.086   0.562
 1506HOH     H1 4723   3.387   0.063   0.543
 1506HOH     H2 4724   3.303   0.170   0.609
 1507HOH      O 4725   2.710   1.146   2.753
 1507HOH     H1 4726   2.617   1.153   2.771
 1507HOH     H2 4727   2.740   1.072   2.805
 1508HOH      O 4728   1.831   1.911   0.225
 1508HOH     H1 4729   1.778   1.990   0.236
 1508HOH     H2 4730   1.922   1.942   0.230
 1509HOH      O 4731   3.831   3.661   3.222
 1509HOH     H1 4732   3.880   3.604   3.281
 1509HOH     H2 4733   3.821   3.611   3.142
 1510HOH      O 4734   3.643   2.745   0.784
 1510HOH     H1 4735   3.735   2.755   0.760
 1510HOH     H2 4736   3.612   2.834   0.798
 1511HOH      O 4737   1.139   3.750   0.525
 1511HOH     H1 4738   1.229   3.744   0.491
 1511HOH     H2 4739   1.131   3.676   0.585
 1512HOH      O 4740   3.012   2.161   2.950
 1512HOH     H1 4741   2.977   2.147   3.038
 1512HOH     H2 4742   3.021   2.073   2.913
 1513HOH      O 4743   3.210   2.215   0.241
 1513HOH     H1 4744   3.232   2.254   0.157
 1513HOH     H2 4745   3.245   2.277   0.306
 1514HOH      O 4746   1.873   0.677   0.838
 1514HOH     H1 4747   1.840   0.588   0.833
 1514HOH     H2 4748   1.920   0.690   0.755
 1515HOH      O 4749   0.978   3.697   3.242
 1515HOH     H1 4750   0.965   3.753   3.318
 1515HOH     H2 4751   0.967   3.608   3.275
 1516HOH      O 4752   1.409   2.374   1.652
 1516HOH     H1 4753   1.446   2.295   1.691
 1516HOH     H2 4754   1.334   2.394   1.708
 1517HOH      O 4755   2.493   1.887   0.659
 1517HOH     H1 4756   2.433   1.882   0.585
 1517HOH     H2 4757   2.450   1.947   0.720
 1518HOH      O 4758   3.820   0.947   0.718
 1518HOH     H1 4759   3.862   0.973   0.801
 1518HOH     H2 4760   3.881   0.885   0.679
 1519HOH      O 4761   3.854   1.661   3.714
 1519HOH     H1 4762   3.923   1.635   3.774
 1519HOH     H2 4763   3.862   1.756   3.708
 1520HOH      O 4764   1.341   2.639   3.643
 1520HOH     H1 4765   1.265   2.683   3.682
 1520HOH     H2 4766   1.326   2.646   3.549
 1521HOH      O 4767   0.721   1.309   2.825
 1521HOH     H1 4768   0.654   1.280   2.887
 1521HOH     H2 4769   0.682   1.293   2.739
 1522HOH      O 4770   2.385   3.681   3.140
 1522HOH     H1 4771   2.478   3.681   3.117
 1522HOH     H2 4772   2.339   3.669   3.057
 1523HOH      O 4773   1.686   1.782   2.962
 1523HOH     H1 4774   1.692   1.755   3.054
 1523HOH     H2 4775   1.771   1.757   2.925
 1524HOH      O 4776   1.266   3.119   0.594
 1524HOH     H1 4777   1.240   3.207   0.565
 1524HOH     H2 4778   1.285   3.128   0.687
 1525HOH      O 4779   3.159   3.837   0.609
 1525HOH     H1 4780   3.097   3.839   0.682
 1525HOH     H2 4781   3.167   3.928   0.582
 1526HOH      O 4782   0.109   2.562   3.280
 1526HOH     H1 4783   0.089   2.593   3.368
 1526HOH     H2 4784   0.201   2.535   3.285
 1527HOH      O 4785   2.792   1.146   3.305
 1527HOH     H1 4786   2.740   1.066   3.303
 1527HOH     H2 4787   2.854   1.135   3.232
 1528HOH      O 4788   2.491   1.304   0.243
 1528HOH     H1 4789   2.530   1.319   0.329
 1528HOH     H2 4790   2.424   1.237   0.258
 1529HOH      O 4791   0.828   0.092   3.425
 1529HOH     H1 4792   0.865   0.156   3.364
 1529HOH     H2 4793   0.836   0.134   3.511
 1530HOH      O 4794   3.773   2.829   0.419
 1530HOH     H1 4795   3.706   2.762   0.410
 1530HOH     H2 4796   3.730   2.910   0.392
 1531HOH      O 4797   2.121   2.891   3.701
 1531HOH     H1 4798   2.170   2.888   3.783
 1531HOH     H2 4799   2.123   2.801   3.669
 1532HOH      O 4800   0.192   0.675   1.721
 1532HOH     H1 4801   0.271   0.681   1.668
 1532HOH     H2 4802   0.184   0.581   1.741
 1533HOH      O 4803   1.932   0.647   0.349
 1533HOH     H1 4804   1.962   0.712   0.285
 1533HOH     H2 4805   1.967   0.564   0.318
 1534HOH      O 4806   3.135  -0.010   1.054
 1534HOH     H1 4807   3.137   0.067   1.109
 1534HOH     H2 4808   3.226  -0.024   1.028
 1535HOH      O 4809   2.910   3.884   2.040
 1535HOH     H1 4810   2.855   3.820   1.994
 1535HOH     H2 4811   2.847   3.945   2.079
 1536HOH      O 4812   0.613   2.435   2.147
 1536HOH     H1 4813   0.706   2.452   2.161
 1536HOH     H2 4814   0.611   2.349   2.105
 1537HOH      O 4815   0.540   2.143   1.624
 1537HOH     H1 4816   0.538   2.220   1.567
 1537HOH     H2 4817   0.591   2.079   1.574
 1538HOH      O 4818   2.526   1.568   1.034
 1538HOH     H1 4819   2.616   1.598   1.046
 1538HOH     H2 4820   2.509   1.580   0.940
 1539HOH      O 4821   1.221   1.728   3.745
 1539HOH     H1 4822   1.317   1.720   3.747
 1539HOH     H2 4823   1.196   1.745   3.835
 1540HOH      O 4824   0.396   1.039   2.486
 1540HOH     H1 4825   0.454   0.965   2.506
 1540HOH     H2 4826   0.363   1.020   2.398
 1541HOH      O 4827   1.729   2.367   1.490
 1541HOH     H1 4828   1.808   2.329   1.529
 1541HOH     H2 4829   1.663   2.298   1.500
 1542HOH      O 4830   2.817   2.476   0.573
 1542HOH     H1 4831   2.838   2.569   0.580
 1542HOH     H2 4832   2.825   2.457   0.479
 1543HOH      O 4833   3.588   1.221   1.773
 1543HOH     H1 4834   3.597   1.290   1.838
 1543HOH     H2 4835   3.552   1.147   1.822
 1544HOH      O 4836   1.063   3.915   1.648
 1544HOH     H1 4837   1.003   3.989   1.654
 1544HOH     H2 4838   1.007   3.839   1.635
 1545HOH      O 4839   2.012   2.685   2.887
 1545HOH     H1 4840   1.925   2.709   2.918
 1545HOH     H2 4841   2.044   2.764   2.843
 1546HOH      O 4842   2.834   0.990   2.265
 1546HOH     H1 4843   2.813   0.980   2.358
 1546HOH     H2 4844   2.917   1.038   2.264
 1547HOH      O 4845   3.690   2.836   3.860
 1547HOH     H1 4846   3.624   2.848   3.928
 1547HOH     H2 4847   3.733   2.754   3.883
 1548HOH      O 4848   1.413   0.449   1.935
 1548HOH     H1 4849   1.484   0.472   1.996
 1548HOH     H2 4850   1.341   0.422   1.991
 1549HOH      O 4851   1.378   2.615   0.855
 1549HOH     H1 4852   1.451   2.562   0.822
 1549HOH     H2 4853   1.389   2.614   0.950
 1550HOH      O 4854   1.477   1.884   1.804
 1550HOH     H1 4855   1.527   1.839   1.872
 1550HOH     H2 4856   1.510   1.848   1.721
 1551HOH      O 4857   0.466   1.021   0.646
 1551HOH     H1 4858   0.396   1.053   0.703
 1551HOH     H2 4859   0.543   1.071   0.673
 1552HOH      O 4860   1.649   1.535   1.842
 1552HOH     H1 4861   1.614   1.597   1.778
 1552HOH     H2 4862   1.741   1.559   1.851
 1553HOH      O 4863   3.704   3.875   3.382
 1553HOH     H1 4864   3.771   3.936   3.411
 1553HOH     H2 4865   3.752   3.807   3.335
 1554HOH      O 4866   3.482   3.382   0.317
 1554HOH     H1 4867   3.498   3.291   0.292
 1554HOH     H2 4868   3.396   3.380   0.359
 1555HOH      O 4869   2.426   0.135   4.027
 1555HOH     H1 4870   2.335   0.153   4.001
 1555HOH     H2 4871   2.479   0.172   3.957
 1556HOH      O 4872   1.434   0.516   3.552
 1556HOH     H1 4873   1.447   0.531   3.645
 1556HOH     H2 4874   1.412   0.423   3.545
 1557HOH      O 4875   2.832   2.338   0.318
 1557HOH     H1 4876   2.740   2.313   0.316
 1557HOH     H2 4877   2.873   2.281   0.253
 1558HOH      O 4878   2.930   1.893   1.948
 1558HOH     H1 4879   3.020   1.878   1.922
 1558HOH     H2 4880   2.934   1.967   2.009
 1559HOH      O 4881   3.166   2.619   3.467
 1559HOH     H1 4882   3.195   2.610   3.376
 1559HOH     H2 4883   3.183   2.533   3.506
 1560HOH      O 4884   0.853   0.350   2.794
 1560HOH     H1 4885   0.881   0.412   2.862
 1560HOH     H2 4886   0.762   0.330   2.816
 1561HOH      O 4887   1.708   2.599   1.068
 1561HOH     H1 4888   1.635   2.655   1.094
 1561HOH     H2 4889   1.666   2.523   1.026
 1562HOH      O 4890   1.721   0.127   0.233
 1562HOH     H1 4891   1.709   0.032   0.229
 1562HOH     H2 4892   1.800   0.138   0.286
 1563HOH      O 4893   0.637   0.424   3.478
 1563HOH     H1 4894   0.585   0.500   3.504
 1563HOH     H2 4895   0.603   0.353   3.531
 1564HOH      O 4896   0.729   2.264   2.839
 1564HOH     H1 4897   0.807   2.282   2.891
 1564HOH     H2 4898   0.707   2.174   2.861
 1565HOH      O 4899   1.769   1.265   3.300
 1565HOH     H1 4900   1.827   1.194   3.326
 1565HOH     H2 4901   1.825   1.323   3.249
 1566HOH      O 4902   2.908   3.352   3.688
 1566HOH     H1 4903   2.968   3.425   3.703
 1566HOH     H2 4904   2.956   3.275   3.718
 1567HOH      O 4905   3.418   2.101   1.896
 1567HOH     H1 4906   3.416   2.088   1.801
 1567HOH     H2 4907   3.409   2.196   1.907
 1568HOH      O 4908   3.424   2.355   2.929
 1568HOH     H1 4909   3.378   2.391   3.005
 1568HOH     H2 4910   3.516   2.373   2.948
 1569HOH      O 4911   3.427   2.741   3.278
 1569HOH     H1 4912   3.355   2.780   3.228
 1569HOH     H2 4913   3.468   2.815   3.323
 1570HOH      O 4914   2.555   3.890   3.499
 1570HOH     H1 4915   2.517   3.944   3.430
 1570HOH     H2 4916   2.537   3.800   3.471
 1571HOH      O 4917   0.403   1.551   1.025
 1571HOH     H1 4918   0.436   1.498   1.097
 1571HOH     H2 4919   0.313   1.572   1.051
 1572HOH      O 4920   3.888   2.698   2.248
 1572HOH     H1 4921   3.885   2.710   2.343
 1572HOH     H2 4922   3.903   2.786   2.213
 1573HOH      O 4923   0.422   1.944   1.798
 1573HOH     H1 4924   0.497   2.003   1.790
 1573HOH     H2 4925   0.378   1.950   1.713
 1574HOH      O 4926   0.307   4.049   3.973
 1574HOH     H1 4927   0.237   3.999   3.932
 1574HOH     H2 4928   0.388   4.004   3.946
 1575HOH      O 4929   1.830   0.068   2.226
 1575HOH     H1 4930   1.836   0.008   2.152
 1575HOH     H2 4931   1.901   0.041   2.285
 1576HOH      O 4932   0.629   3.727   2.809
 1576HOH     H1 4933   0.669   3.792   2.752
 1576HOH     H2 4934   0.686   3.724   2.886
 1577HOH      O 4935   1.917   1.240   2.675
 1577HOH     H1 4936   1.901   1.271   2.586
 1577HOH     H2 4937   1.985   1.298   2.709
 1578HOH      O 4938   3.214   3.202   3.031
 1578HOH     H1 4939   3.255   3.267   3.088
 1578HOH     H2 4940   3.171   3.253   2.963
 1579HOH      O 4941   1.125   0.144   0.387
 1579HOH     H1 4942   1.116   0.091   0.466
 1579HOH     H2 4943   1.205   0.112   0.345
 1580HOH      O 4944   0.600   3.675   3.482
 1580HOH     H1 4945   0.526   3.618   3.462
 1580HOH     H2 4946   0.602   3.737   3.408
 1581HOH      O 4947   2.216   3.940   1.550
 1581HOH     H1 4948   2.219   4.002   1.477
 1581HOH     H2 4949   2.307   3.913   1.563
 1582HOH      O 4950   1.739   3.640   2.083
 1582HOH     H1 4951   1.792   3.591   2.021
 1582HOH     H2 4952   1.685   3.574   2.126
 1583HOH      O 4953   0.272   3.191   1.034
 1583HOH     H1 4954   0.252   3.257   1.101
 1583HOH     H2 4955   0.296   3.113   1.083
 1584HOH      O 4956   3.926   2.423   1.142
 1584HOH     H1 4957   3.865   2.424   1.216
 1584HOH     H2 4958   4.009   2.393   1.179
 1585HOH      O 4959   2.201   0.902   0.597
 1585HOH     H1 4960   2.222   0.974   0.657
 1585HOH     H2 4961   2.285   0.874   0.562
 1586HOH      O 4962   3.529   1.008   0.090
 1586HOH     H1 4963   3.596   0.945   0.066
 1586HOH     H2 4964   3.539   1.019   0.185
 1587HOH      O 4965   3.445   1.172   3.420
 1587HOH     H1 4966   3.477   1.258   3.393
 1587HOH     H2 4967   3.510   1.111   3.385
 1588HOH      O 4968   1.469   1.360   3.753
 1588HOH     H1 4969   1.561   1.342   3.734
 1588HOH     H2 4970   1.429   1.274   3.763
 1589HOH      O 4971   2.477   3.642   3.394
 1589HOH     H1 4972   2.442   3.578   3.456
 1589HOH     H2 4973   2.427   3.626   3.313
 1590HOH      O 4974   3.659   3.092   0.385
 1590HOH     H1 4975   3.665   3.120   0.476
 1590HOH     H2 4976   3.567   3.106   0.362
 1591HOH      O 4977   3.558   1.641   2.945
 1591HOH     H1 4978   3.498   1.715   2.938
 1591HOH     H2 4979   3.644   1.680   2.963
 1592HOH      O 4980   1.995   2.254   0.879
 1592HOH     H1 4981   2.004   2.253   0.784
 1592HOH     H2 4982   2.084   2.268   0.912
 1593HOH      O 4983   0.717   2.272   4.012
 1593HOH     H1 4984   0.662   2.342   4.044
 1593HOH     H2 4985   0.660   2.220   3.956
 1594HOH      O 4986   1.702   3.419   0.981
 1594HOH     H1 4987   1.670   3.503   1.015
 1594HOH     H2 4988   1.713   3.364   1.059
 1595HOH      O 4989   1.349   0.427   0.497
 1595HOH     H1 4990   1.342   0.366   0.570
 1595HOH     H2 4991   1.434   0.407   0.457
 1596HOH      O 4992   0.396   3.497   3.431
 1596HOH     H1 4993   0.323   3.526   3.376
 1596HOH     H2 4994   0.427   3.416   3.389
 1597HOH      O 4995   3.987   2.201   0.653
 1597HOH     H1 4996   3.899   2.208   0.691
 1597HOH     H2 4997   4.037   2.270   0.696
 1598HOH      O 4998   3.465   0.935   3.257
 1598HOH     H1 4999   3.369   0.932   3.248
 1598HOH     H2 5000   3.493   0.845   3.240
 1599HOH      O 5001   3.890   1.773   1.527
 1599HOH     H1 5002   3.891   1.868   1.515
 1599HOH     H2 5003   3.878   1.761   1.621
 1600HOH      O 5004   3.876   0.749   0.135
 1600HOH     H1 5005   3.849   0.791   0.054
 1600HOH     H2 5006   3.825   0.668   0.139
 1601HOH      O 5007   0.627   1.850   2.693
 1601HOH     H1 5008   0.574   1.779   2.731
 1601HOH     H2 5009   0.715   1.835   2.728
 1602HOH      O 5010   1.492   1.224   2.220
 1602HOH     H1 5011   1.559   1.178   2.270
 1602HOH     H2 5012   1.451   1.283   2.283
 1603HOH      O 5013   0.884   0.090   1.694
 1603HOH     H1 5014   0.808   0.126   1.648
 1603HOH     H2 5015   0.845   0.038   1.765
 1604HOH      O 5016   3.750   1.973   1.174
 1604HOH     H1 5017   3.692   1.973   1.098
 1604HOH     H2 5018   3.826   2.024   1.145
 1605HOH      O 5019   1.374   3.047   1.442
 1605HOH     H1 5020   1.356   3.102   1.518
 1605HOH     H2 5021   1.316   2.971   1.453
 1606HOH      O 5022   3.849   1.989   0.289
 1606HOH     H1 5023   3.876   1.910   0.242
 1606HOH     H2 5024   3.862   2.060   0.226
 1607HOH      O 5025   2.868   2.334   2.020
 1607HOH     H1 5026   2.907   2.411   1.979
 1607HOH     H2 5027   2.902   2.335   2.109
 1608HOH      O 5028   1.086   0.256   1.759
 1608HOH     H1 5029   1.020   0.196   1.725
 1608HOH     H2 5030   1.064   0.267   1.852
 1609HOH      O 5031   0.600   3.207   2.676
 1609HOH     H1 5032   0.661   3.249   2.736
 1609HOH     H2 5033   0.641   3.123   2.654
 1610HOH      O 5034   2.626   1.431   3.666
 1610HOH     H1 5035   2.656   1.446   3.576
 1610HOH     H2 5036   2.688   1.367   3.701
 1611HOH      O 5037   0.421   3.529   2.607
 1611HOH     H1 5038   0.341   3.523   2.555
 1611HOH     H2 5039   0.469   3.448   2.587
 1612HOH      O 5040   1.039   2.479   2.076
 1612HOH     H1 5041   1.009   2.505   2.163
 1612HOH     H2 5042   1.128   2.447   2.091
 1613HOH      O 5043   3.470   3.612   0.102
 1613HOH     H1 5044   3.439   3.575   0.184
 1613HOH     H2 5045   3.564   3.626   0.116
 1614HOH      O 5046   2.255   1.773   1.996
 1614HOH     H1 5047   2.313   1.818   1.934
 1614HOH     H2 5048   2.167   1.785   1.958
 1615HOH      O 5049   2.831   2.798   2.881
 1615HOH     H1 5050   2.863   2.880   2.920
 1615HOH     H2 5051   2.900   2.773   2.820
 1616HOH      O 5052   2.797   1.637   1.089
 1616HOH     H1 5053   2.822   1.692   1.163
 1616HOH     H2 5054   2.863   1.653   1.022
 1617HOH      O 5055   3.512   3.109   1.724
 1617HOH     H1 5056   3.500   3.070   1.638
 1617HOH     H2 5057   3.522   3.203   1.707
 1618HOH      O 5058   0.494   2.081   1.207
 1618HOH     H1 5059   0.586   2.055   1.206
 1618HOH     H2 5060   0.481   2.125   1.123
 1619HOH      O 5061   1.133   3.165   1.138
 1619HOH     H1 5062   1.139   3.202   1.050
 1619HOH     H2 5063   1.089   3.232   1.190
 1620HOH      O 5064   1.374   0.906   3.298
 1620HOH     H1 5065   1.437   0.977   3.304
 1620HOH     H2 5066   1.312   0.934   3.231
 1621HOH      O 5067   3.279   0.474   1.421
 1621HOH     H1 5068   3.299   0.499   1.511
 1621HOH     H2 5069   3.314   0.385   1.413
 1622HOH      O 5070   2.263   2.461   2.778
 1622HOH     H1 5071   2.334   2.424   2.724
 1622HOH     H2 5072   2.263   2.554   2.756
 1623HOH      O 5073   2.065   3.931   2.062
 1623HOH     H1 5074   2.081   3.951   1.970
 1623HOH     H2 5075   2.128   3.985   2.110
 1624HOH      O 5076   0.039   0.901   3.301
 1624HOH     H1 5077  -0.042   0.854   3.320
 1624HOH     H2 5078   0.012   0.992   3.289
 1625HOH      O 5079   0.024   1.828   2.114
 1625HOH     H1 5080   0.049   1.885   2.041
 1625HOH     H2 5081  -0.025   1.885   2.173
 1626HOH      O 5082   3.426   2.768   3.697
 1626HOH     H1 5083   3.505   2.802   3.739
 1626HOH     H2 5084   3.457   2.734   3.612
 1627HOH      O 5085   3.412   2.079   2.855
 1627HOH     H1 5086   3.428   2.111   2.767
 1627HOH     H2 5087   3.409   2.158   2.910
 1628HOH      O 5088   0.976   2.665   2.628
 1628HOH     H1 5089   0.978   2.647   2.722
 1628HOH     H2 5090   1.007   2.584   2.588
 1629HOH      O 5091   1.449   1.495   4.001
 1629HOH     H1 5092   1.356   1.491   3.983
 1629HOH     H2 5093   1.489   1.438   3.935
 1630HOH      O 5094   0.917   3.890   2.008
 1630HOH     H1 5095   0.855   3.961   1.996
 1630HOH     H2 5096   0.866   3.811   1.990
 1631HOH      O 5097   0.085   3.016   0.534
 1631HOH     H1 5098   0.053   3.097   0.573
 1631HOH     H2 5099   0.111   2.962   0.610
 1632HOH      O 5100   1.063   2.109   1.582
 1632HOH     H1 5101   1.108   2.040   1.630
 1632HOH     H2 5102   1.134   2.164   1.547
 1633HOH      O 5103   0.421   2.710   0.976
 1633HOH     H1 5104   0.352   2.771   1.002
 1633HOH     H2 5105   0.412   2.636   1.036
 1634HOH      O 5106   3.877   1.408   2.738
 1634HOH     H1 5107   3.828   1.462   2.676
 1634HOH     H2 5108   3.951   1.462   2.764
 1635HOH      O 5109   1.301   3.380   3.941
 1635HOH     H1 5110   1.318   3.474   3.950
 1635HOH     H2 5111   1.362   3.351   3.873
 1636HOH      O 5112   0.111   1.846   3.573
 1636HOH     H1 5113   0.102   1.850   3.478
 1636HOH     H2 5114   0.024   1.865   3.606
 1637HOH      O 5115   0.372   0.474   1.190
 1637HOH     H1 5116   0.340   0.559   1.219
 1637HOH     H2 5117   0.294   0.418   1.189
 1638HOH      O 5118   1.000   2.893   3.453
 1638HOH     H1 5119   0.924   2.944   3.482
 1638HOH     H2 5120   1.038   2.859   3.534
 1639HOH      O 5121   1.792   0.451   2.896
 1639HOH     H1 5122   1.794   0.546   2.907
 1639HOH     H2 5123   1.842   0.436   2.816
 1640HOH      O 5124   1.015   3.346   3.857
 1640HOH     H1 5125   1.007   3.377   3.767
 1640HOH     H2 5126   1.068   3.412   3.901
 1641HOH      O 5127   3.887   2.790   0.657
 1641HOH     H1 5128   3.983   2.796   0.657
 1641HOH     H2 5129   3.861   2.826   0.572
 1642HOH      O 5130   3.794   3.230   1.410
 1642HOH     H1 5131   3.846   3.156   1.442
 1642HOH     H2 5132   3.811   3.300   1.473
 1643HOH      O 5133   0.087   3.727   2.530
 1643HOH     H1 5134   0.154   3.674   2.487
 1643HOH     H2 5135   0.132   3.765   2.606
 1644HOH      O 5136   2.096   0.349   0.778
 1644HOH     H1 5137   2.135   0.372   0.694
 1644HOH     H2 5138   2.050   0.267   0.762
 1645HOH      O 5139   1.059   2.940   0.476
 1645HOH     H1 5140   1.123   2.920   0.408
 1645HOH     H2 5141   1.110   2.980   0.546
 1646HOH      O 5142   0.017   0.408   0.904
 1646HOH     H1 5143   0.089   0.345   0.895
 1646HOH     H2 5144  -0.037   0.394   0.826
 1647HOH      O 5145   3.145   0.299   0.928
 1647HOH     H1 5146   3.130   0.340   1.013
 1647HOH     H2 5147   3.168   0.208   0.948
 1648HOH      O 5148   3.311   1.815   3.101
 1648HOH     H1 5149   3.221   1.818   3.133
 1648HOH     H2 5150   3.303   1.792   3.009
 1649HOH      O 5151   1.039   3.628   2.165
 1649HOH     H1 5152   0.944   3.639   2.159
 1649HOH     H2 5153   1.073   3.662   2.082
 1650HOH      O 5154   3.993   3.504   3.386
 1650HOH     H1 5155   3.958   3.494   3.474
 1650HOH     H2 5156   4.038   3.422   3.368
 1651HOH      O 5157   0.824   0.087   0.824
 1651HOH     H1 5158   0.829   0.183   0.830
 1651HOH     H2 5159   0.746   0.070   0.771
 1652HOH      O 5160   2.660   1.191   1.772
 1652HOH     H1 5161   2.606   1.159   1.700
 1652HOH     H2 5162   2.598   1.229   1.834
 1653HOH      O 5163   2.267   3.369   3.002
 1653HOH     H1 5164   2.313   3.376   3.086
 1653HOH     H2 5165   2.327   3.321   2.945
 1654HOH      O 5166   2.155   1.797   3.542
 1654HOH     H1 5167   2.193   1.712   3.521
 1654HOH     H2 5168   2.097   1.779   3.617
 1655HOH      O 5169   3.431   1.427   2.986
 1655HOH     H1 5170   3.494   1.496   2.966
 1655HOH     H2 5171   3.440   1.413   3.080
 1656HOH      O 5172   2.209   3.169   1.170
 1656HOH     H1 5173   2.244   3.248   1.212
 1656HOH     H2 5174   2.122   3.196   1.140
 1657HOH      O 5175   0.849   0.587   1.627
 1657HOH     H1 5176   0.824   0.675   1.657
 1657HOH     H2 5177   0.776   0.531   1.654
 1658HOH      O 5178   3.718   1.470   3.118
 1658HOH     H1 5179   3.689   1.440   3.032
 1658HOH     H2 5180   3.638   1.474   3.170
 1659HOH      O 5181   1.787   1.203   1.015
 1659HOH     H1 5182   1.704   1.250   1.006
 1659HOH     H2 5183   1.811   1.178   0.926
 1660HOH      O 5184   2.594   2.894   0.330
 1660HOH     H1 5185   2.626   2.932   0.412
 1660HOH     H2 5186   2.518   2.842   0.355
 1661HOH      O 5187   2.156   3.268   1.492
 1661HOH     H1 5188   2.090   3.294   1.555
 1661HOH     H2 5189   2.235   3.251   1.544
 1662HOH      O 5190   2.294   2.520   1.776
 1662HOH     H1 5191   2.301   2.427   1.799
 1662HOH     H2 5192   2.276   2.520   1.682
 1663HOH      O 5193   3.069   2.610   2.199
 1663HOH     H1 5194   3.055   2.628   2.106
 1663HOH     H2 5195   3.126   2.681   2.229
 1664HOH      O 5196   2.233   2.732   3.019
 1664HOH     H1 5197   2.159   2.682   2.984
 1664HOH     H2 5198   2.193   2.796   3.078
 1665HOH      O 5199   1.465   0.720   1.284
 1665HOH     H1 5200   1.501   0.691   1.368
 1665HOH     H2 5201   1.372   0.736   1.303
 1666HOH      O 5202   3.427   1.756   0.041
 1666HOH     H1 5203   3.371   1.796  -0.025
 1666HOH     H2 5204   3.453   1.672   0.003
 1667HOH      O 5205   1.671   3.995   0.960
 1667HOH     H1 5206   1.644   4.074   1.008
 1667HOH     H2 5207   1.764   3.987   0.980
 1668HOH      O 5208   3.613   1.268   2.272
 1668HOH     H1 5209   3.582   1.313   2.351
 1668HOH     H2 5210   3.691   1.317   2.246
 1669HOH      O 5211   2.490   0.563   3.962
 1669HOH     H1 5212   2.570   0.604   3.995
 1669HOH     H2 5213   2.480   0.598   3.873
 1670HOH      O 5214   3.103   0.017   0.404
 1670HOH     H1 5215   3.194   0.039   0.427
 1670HOH     H2 5216   3.051   0.087   0.443
 1671HOH      O 5217   1.692   2.379   2.809
 1671HOH     H1 5218   1.603   2.348   2.792
 1671HOH     H2 5219   1.746   2.300   2.808
 1672HOH      O 5220   1.385   1.103   4.059
 1672HOH     H1 5221   1.363   1.125   3.969
 1672HOH     H2 5222   1.473   1.139   4.071
 1673HOH      O 5223   2.083   2.942   1.261
 1673HOH     H1 5224   2.130   3.002   1.204
 1673HOH     H2 5225   2.063   2.994   1.339
 1674HOH      O 5226   3.223   3.528   3.451
 1674HOH     H1 5227   3.220   3.624   3.452
 1674HOH     H2 5228   3.277   3.505   3.526
 1675HOH      O 5229   0.979   1.691   0.689
 1675HOH     H1 5230   1.033   1.612   0.696
 1675HOH     H2 5231   0.891   1.659   0.670
 1676HOH      O 5232   0.146   0.546   2.156
 1676HOH     H1 5233   0.155   0.602   2.079
 1676HOH     H2 5234   0.226   0.492   2.155
 1677HOH      O 5235   3.439   3.679   1.949
 1677HOH     H1 5236   3.379   3.697   1.877
 1677HOH     H2 5237   3.385   3.639   2.016
 1678HOH      O 5238   2.068   2.910   2.755
 1678HOH     H1 5239   1.992   2.884   2.702
 1678HOH     H2 5240   2.119   2.966   2.697
 1679HOH      O 5241   0.429   3.965   1.735
 1679HOH     H1 5242   0.413   4.057   1.755
 1679HOH     H2 5243   0.359   3.941   1.673
 1680HOH      O 5244   1.237   2.326   0.898
 1680HOH     H1 5245   1.316   2.316   0.845
 1680HOH     H2 5246   1.188   2.398   0.858
 1681HOH      O 5247   0.952   3.346   1.283
 1681HOH     H1 5248   0.949   3.439   1.262
 1681HOH     H2 5249   0.875   3.309   1.239
 1682HOH      O 5250   0.226   2.832   3.305
 1682HOH     H1 5251   0.255   2.782   3.229
 1682HOH     H2 5252   0.161   2.893   3.270
 1683HOH      O 5253   2.990   2.371   3.944
 1683HOH     H1 5254   2.987   2.401   3.853
 1683HOH     H2 5255   2.973   2.451   3.996
 1684HOH      O 5256   0.446   1.144   1.876
 1684HOH     H1 5257   0.394   1.172   1.801
 1684HOH     H2 5258   0.514   1.087   1.838
 1685HOH      O 5259   1.397   3.166   0.867
 1685HOH     H1 5260   1.446   3.144   0.946
 1685HOH     H2 5261   1.330   3.228   0.897
 1686HOH      O 5262   3.811   1.002   3.006
 1686HOH     H1 5263   3.857   0.922   3.033
 1686HOH     H2 5264   3.727   0.998   3.051
 1687HOH      O 5265   0.132   0.611   1.385
 1687HOH     H1 5266   0.049   0.654   1.363
 1687HOH     H2 5267   0.199   0.666   1.345
 1688HOH      O 5268   0.597   3.051   0.595
 1688HOH     H1 5269   0.619   3.007   0.677
 1688HOH     H2 5270   0.677   3.049   0.544
 1689HOH      O 5271   0.389   0.883   0.052
 1689HOH     H1 5272   0.439   0.951   0.097
 1689HOH     H2 5273   0.452   0.811   0.041
 1690HOH      O 5274   3.921   3.883   3.845
 1690HOH     H1 5275   3.865   3.931   3.784
 1690HOH     H2 5276   3.874   3.886   3.928
 1691HOH      O 5277   0.898   2.350   3.558
 1691HOH     H1 5278   0.834   2.398   3.505
 1691HOH     H2 5279   0.934   2.416   3.618
 1692HOH      O 5280   3.112   0.816   1.268
 1692HOH     H1 5281   3.094   0.779   1.354
 1692HOH     H2 5282   3.153   0.901   1.286
 1693HOH      O 5283   0.015   0.848   1.595
 1693HOH     H1 5284  -0.048   0.789   1.553
 1693HOH     H2 5285   0.079   0.789   1.637
 1694HOH      O 5286   2.665   1.124   2.116
 1694HOH     H1 5287   2.699   1.142   2.028
 1694HOH     H2 5288   2.733   1.072   2.158
 1695HOH      O 5289   0.824   2.576   0.019
 1695HOH     H1 5290   0.729   2.573   0.009
 1695HOH     H2 5291   0.838   2.563   0.113
 1696HOH      O 5292   2.142   1.018   2.354
 1696HOH     H1 5293   2.192   1.044   2.431
 1696HOH     H2 5294   2.153   0.923   2.349
 1697HOH      O 5295   1.582   1.736   2.041
 1697HOH     H1 5296   1.603   1.649   2.007
 1697HOH     H2 5297   1.487   1.735   2.051
 1698HOH      O 5298   0.834   2.294   2.580
 1698HOH     H1 5299   0.773   2.267   2.649
 1698HOH     H2 5300   0.815   2.387   2.567
 1699HOH      O 5301   1.250   3.172   1.663
 1699HOH     H1 5302   1.213   3.172   1.751
 1699HOH     H2 5303   1.203   3.241   1.617
 1700HOH      O 5304   3.364   1.539   1.734
 1700HOH     H1 5305   3.455   1.546   1.704
 1700HOH     H2 5306   3.322   1.482   1.670
 1701HOH      O 5307   2.513   0.671   3.703
 1701HOH     H1 5308   2.448   0.699   3.638
 1701HOH     H2 5309   2.587   0.640   3.652
 1702HOH      O 5310   1.923   2.867   0.218
 1702HOH     H1 5311   1.966   2.895   0.299
 1702HOH     H2 5312   1.863   2.798   0.246
 1703HOH      O 5313   0.982   1.666   2.665
 1703HOH     H1 5314   0.950   1.750   2.698
 1703HOH     H2 5315   1.075   1.664   2.690
 1704HOH      O 5316   2.309   2.396   2.434
 1704HOH     H1 5317   2.235   2.343   2.464
 1704HOH     H2 5318   2.336   2.354   2.352
 1705HOH      O 5319   3.168   3.815   1.506
 1705HOH     H1 5320   3.172   3.903   1.467
 1705HOH     H2 5321   3.075   3.799   1.521
 1706HOH      O 5322   2.441   1.447   3.878
 1706HOH     H1 5323   2.516   1.449   3.818
 1706HOH     H2 5324   2.473   1.487   3.959
 1707HOH      O 5325   0.760   2.796   2.548
 1707HOH     H1 5326   0.723   2.712   2.519
 1707HOH     H2 5327   0.854   2.780   2.551
 1708HOH      O 5328   0.533   0.575   2.817
 1708HOH     H1 5329   0.588   0.538   2.886
 1708HOH     H2 5330   0.463   0.621   2.863
 1709HOH      O 5331   1.030   2.913   1.113
 1709HOH     H1 5332   1.050   3.006   1.127
 1709HOH     H2 5333   1.111   2.876   1.079
 1710HOH      O 5334   1.435   2.588   3.144
 1710HOH     H1 5335   1.392   2.506   3.120
 1710HOH     H2 5336   1.525   2.578   3.113
 1711HOH      O 5337   1.067   1.279   3.603
 1711HOH     H1 5338   1.085   1.208   3.542
 1711HOH     H2 5339   1.144   1.336   3.598
 1712HOH      O 5340   1.140   0.321   3.781
 1712HOH     H1 5341   1.093   0.359   3.855
 1712HOH     H2 5342   1.228   0.360   3.786
 1713HOH      O 5343   3.844   2.886   2.074
 1713HOH     H1 5344   3.882   2.886   1.986
 1713HOH     H2 5345   3.781   2.959   2.072
 1714HOH      O 5346   0.905   3.334   2.279
 1714HOH     H1 5347   0.943   3.345   2.192
 1714HOH     H2 5348   0.977   3.299   2.332
 1715HOH      O 5349   1.031   1.851   2.393
 1715HOH     H1 5350   0.986   1.793   2.331
 1715HOH     H2 5351   0.982   1.933   2.389
 1716HOH      O 5352   2.555   2.910   3.712
 1716HOH     H1 5353   2.516   2.824   3.699
 1716HOH     H2 5354   2.535   2.959   3.632
 1717HOH      O 5355   3.192   3.821   3.431
 1717HOH     H1 5356   3.228   3.883   3.494
 1717HOH     H2 5357   3.266   3.799   3.374
 1718HOH      O 5358   2.116   2.216   1.833
 1718HOH     H1 5359   2.137   2.155   1.904
 1718HOH     H2 5360   2.198   2.224   1.784
 1719HOH      O 5361   2.156   4.011   1.832
 1719HOH     H1 5362   2.205   3.943   1.785
 1719HOH     H2 5363   2.216   4.086   1.833
 1720HOH      O 5364   2.025   3.243   0.855
 1720HOH     H1 5365   1.955   3.178   0.846
 1720HOH     H2 5366   2.021   3.271   0.947
 1721HOH      O 5367   3.990   3.667   2.945
 1721HOH     H1 5368   3.933   3.711   2.883
 1721HOH     H2 5369   3.941   3.590   2.973
 1722HOH      O 5370   2.680   2.439   2.908
 1722HOH     H1 5371   2.714   2.419   2.821
 1722HOH     H2 5372   2.610   2.502   2.894
 1723HOH      O 5373   3.884   1.125   3.564
 1723HOH     H1 5374   3.881   1.156   3.473
 1723HOH     H2 5375   3.886   1.204   3.617
 1724HOH      O 5376   3.714   1.575   0.527
 1724HOH     H1 5377   3.745   1.664   0.541
 1724HOH     H2 5378   3.742   1.553   0.438
 1725HOH      O 5379   0.768   3.990   1.332
 1725HOH     H1 5380   0.678   4.013   1.309
 1725HOH     H2 5381   0.804   4.071   1.369
 1726HOH      O 5382   1.212   3.882   4.027
 1726HOH     H1 5383   1.294   3.932   4.030
 1726HOH     H2 5384   1.176   3.900   3.940
 1727HOH      O 5385   0.732   1.619   0.616
 1727HOH     H1 5386   0.644   1.608   0.653
 1727HOH     H2 5387   0.723   1.591   0.525
 1728HOH      O 5388   2.664   0.033   0.427
 1728HOH     H1 5389   2.657  -0.055   0.389
 1728HOH     H2 5390   2.586   0.079   0.396
 1729HOH      O 5391   0.453   0.614   3.798
 1729HOH     H1 5392   0.492   0.666   3.868
 1729HOH     H2 5393   0.359   0.631   3.804
 1730HOH      O 5394   3.335   1.655   2.230
 1730HOH     H1 5395   3.397   1.727   2.218
 1730HOH     H2 5396   3.336   1.608   2.147
 1731HOH      O 5397   3.092   0.761   3.813
 1731HOH     H1 5398   3.186   0.746   3.817
 1731HOH     H2 5399   3.070   0.802   3.897
 1732HOH      O 5400   1.032   1.286   2.378
 1732HOH     H1 5401   0.961   1.348   2.392
 1732HOH     H2 5402   1.011   1.212   2.435
 1733HOH      O 5403   2.840   0.666   3.632
 1733HOH     H1 5404   2.901   0.676   3.559
 1733HOH     H2 5405   2.888   0.698   3.708
 1734HOH      O 5406   2.195   1.906   1.624
 1734HOH     H1 5407   2.218   1.947   1.541
 1734HOH     H2 5408   2.269   1.924   1.682
 1735HOH      O 5409   2.188   3.271   2.337
 1735HOH     H1 5410   2.274   3.305   2.362
 1735HOH     H2 5411   2.156   3.335   2.272
 1736HOH      O 5412   3.220   1.959   3.375
 1736HOH     H1 5413   3.183   1.880   3.414
 1736HOH     H2 5414   3.150   2.024   3.383
 1737HOH      O 5415   3.299   0.594   4.026
 1737HOH     H1 5416   3.244   0.576   4.103
 1737HOH     H2 5417   3.247   0.563   3.952
 1738HOH      O 5418   3.820   3.830   0.689
 1738HOH     H1 5419   3.800   3.775   0.613
 1738HOH     H2 5420   3.877   3.776   0.744
 1739HOH      O 5421   2.010   3.610   1.205
 1739HOH     H1 5422   2.099   3.578   1.220
 1739HOH     H2 5423   1.964   3.593   1.288
 1740HOH      O 5424   2.063   3.605   3.400
 1740HOH     H1 5425   1.991   3.571   3.453
 1740HOH     H2 5426   2.142   3.576   3.446
 1741HOH      O 5427   1.614   1.461   2.941
 1741HOH     H1 5428   1.522   1.484   2.956
 1741HOH     H2 5429   1.620   1.448   2.846
 1742HOH      O 5430   3.952   0.673   2.763
 1742HOH     H1 5431   4.046   0.688   2.773
 1742HOH     H2 5432   3.913   0.707   2.843
 1743HOH      O 5433   0.902   2.547   2.312
 1743HOH     H1 5434   0.813   2.540   2.345
 1743HOH     H2 5435   0.956   2.508   2.381
 1744HOH      O 5436   3.179   2.144   1.540
 1744HOH     H1 5437   3.123   2.148   1.618
 1744HOH     H2 5438   3.229   2.226   1.541
 1745HOH      O 5439   0.332   0.451   2.462
 1745HOH     H1 5440   0.405   0.439   2.523
 1745HOH     H2 5441   0.272   0.380   2.483
 1746HOH      O 5442   3.821   3.186   0.187
 1746HOH     H1 5443   3.789   3.144   0.268
 1746HOH     H2 5444   3.915   3.195   0.201
 1747HOH      O 5445   1.041   3.902   3.002
 1747HOH     H1 5446   1.018   3.991   2.974
 1747HOH     H2 5447   1.117   3.914   3.059
 1748HOH      O 5448   2.965   1.687   0.890
 1748HOH     H1 5449   2.975   1.621   0.822
 1748HOH     H2 5450   2.916   1.758   0.848
 1749HOH      O 5451   0.354   2.574   2.982
 1749HOH     H1 5452   0.296   2.504   2.952
 1749HOH     H2 5453   0.442   2.543   2.961
 1750HOH      O 5454   2.044   2.905   3.150
 1750HOH     H1 5455   2.038   2.983   3.095
 1750HOH     H2 5456   1.962   2.859   3.135
 1751HOH      O 5457   0.931   1.176   1.897
 1751HOH     H1 5458   0.999   1.211   1.955
 1751HOH     H2 5459   0.850   1.213   1.931
 1752HOH      O 5460   0.862   3.793   1.489
 1752HOH     H1 5461   0.844   3.883   1.460
 1752HOH     H2 5462   0.778   3.761   1.521
 1753HOH      O 5463   3.565   0.659   0.131
 1753HOH     H1 5464   3.608   0.574   0.138
 1753HOH     H2 5465   3.482   0.648   0.176
 1754HOH      O 5466   2.264   2.934   0.862
 1754HOH     H1 5467   2.357   2.940   0.883
 1754HOH     H2 5468   2.220   2.969   0.939
 1755HOH      O 5469   2.653   2.589   3.948
 1755HOH     H1 5470   2.622   2.648   4.017
 1755HOH     H2 5471   2.746   2.612   3.938
 1756HOH      O 5472   2.840   1.529   0.686
 1756HOH     H1 5473   2.912   1.511   0.625
 1756HOH     H2 5474   2.854   1.467   0.758
 1757HOH      O 5475   2.024   0.606   1.055
 1757HOH     H1 5476   2.091   0.656   1.007
 1757HOH     H2 5477   1.946   0.613   1.001
 1758HOH      O 5478   3.775   2.283   3.784
 1758HOH     H1 5479   3.719   2.300   3.708
 1758HOH     H2 5480   3.730   2.325   3.857
 1759HOH      O 5481   4.037   0.643   0.364
 1759HOH     H1 5482   4.068   0.555   0.387
 1759HOH     H2 5483   3.962   0.627   0.306
 1760HOH      O 5484   3.298   0.836   2.846
 1760HOH     H1 5485   3.222   0.851   2.789
 1760HOH     H2 5486   3.343   0.920   2.849
 1761HOH      O 5487   2.123   0.523   2.920
 1761HOH     H1 5488   2.102   0.468   2.996
 1761HOH     H2 5489   2.200   0.481   2.881
 1762HOH      O 5490   0.187   3.581   1.089
 1762HOH     H1 5491   0.279   3.564   1.109
 1762HOH     H2 5492   0.173   3.672   1.115
 1763HOH      O 5493   1.912   3.583   2.430
 1763HOH     H1 5494   1.840   3.646   2.425
 1763HOH     H2 5495   1.990   3.638   2.444
 1764HOH      O 5496   3.234   3.452   1.763
 1764HOH     H1 5497   3.183   3.415   1.836
 1764HOH     H2 5498   3.249   3.543   1.788
 1765HOH      O 5499   0.284   0.841   3.185
 1765HOH     H1 5500   0.190   0.847   3.199
 1765HOH     H2 5501   0.294   0.786   3.107
 1766HOH      O 5502   2.040   1.609   2.460
 1766HOH     H1 5503   2.003   1.663   2.390
 1766HOH     H2 5504   2.128   1.643   2.473
 1767HOH      O 5505   1.718   2.392   0.579
 1767HOH     H1 5506   1.715   2.308   0.625
 1767HOH     H2 5507   1.674   2.453   0.638
 1768HOH      O 5508   0.979   0.930   2.424
 1768HOH     H1 5509   0.995   0.991   2.496
 1768HOH     H2 5510   0.898   0.961   2.384
 1769HOH      O 5511   3.709   1.886   2.104
 1769HOH     H1 5512   3.650   1.951   2.143
 1769HOH     H2 5513   3.755   1.848   2.179
 1770HOH      O 5514   3.229   3.360   0.487
 1770HOH     H1 5515   3.246   3.318   0.572
 1770HOH     H2 5516   3.148   3.408   0.501
 1771HOH      O 5517   0.901   3.379   0.359
 1771HOH     H1 5518   0.954   3.343   0.288
 1771HOH     H2 5519   0.917   3.474   0.355
 1772HOH      O 5520   1.348   2.531   4.011
 1772HOH     H1 5521   1.320   2.462   4.071
 1772HOH     H2 5522   1.275   2.593   4.010
 1773HOH      O 5523   1.141   3.118   2.432
 1773HOH     H1 5524   1.113   3.102   2.342
 1773HOH     H2 5525   1.166   3.031   2.465
 1774HOH      O 5526   1.678   0.238   3.525
 1774HOH     H1 5527   1.661   0.144   3.527
 1774HOH     H2 5528   1.683   0.264   3.617
 1775HOH      O 5529   2.581   3.047   3.475
 1775HOH     H1 5530   2.492   3.079   3.462
 1775HOH     H2 5531   2.594   2.983   3.405
 1776HOH      O 5532   0.696   0.264   2.094
 1776HOH     H1 5533   0.668   0.302   2.177
 1776HOH     H2 5534   0.707   0.339   2.036
 1777HOH      O 5535   3.385   1.648   3.717
 1777HOH     H1 5536   3.299   1.631   3.754
 1777HOH     H2 5537   3.399   1.742   3.731
 1778HOH      O 5538   1.344   1.464   1.826
 1778HOH     H1 5539   1.368   1.371   1.829
 1778HOH     H2 5540   1.416   1.506   1.779
 1779HOH      O 5541   0.981   3.855   2.352
 1779HOH     H1 5542   0.948   3.933   2.307
 1779HOH     H2 5543   0.980   3.787   2.285
 1780HOH      O 5544   0.494   0.910   0.370
 1780HOH     H1 5545   0.493   0.958   0.453
 1780HOH     H2 5546   0.515   0.820   0.394
 1781HOH      O 5547   0.628   2.716   3.654
 1781HOH     H1 5548   0.676   2.742   3.576
 1781HOH     H2 5549   0.641   2.622   3.660
 1782HOH      O 5550   0.720   0.306   2.376
 1782HOH     H1 5551   0.714   0.392   2.419
 1782HOH     H2 5552   0.776   0.255   2.435
 1783HOH      O 5553   0.855   0.814   3.773
 1783HOH     H1 5554   0.875   0.742   3.832
 1783HOH     H2 5555   0.881   0.893   3.821
 1784HOH      O 5556   1.376   2.075   3.092
 1784HOH     H1 5557   1.422   2.059   3.174
 1784HOH     H2 5558   1.445   2.085   3.027
 1785HOH      O 5559   0.350   3.670   0.482
 1785HOH     H1 5560   0.405   3.603   0.442
 1785HOH     H2 5561   0.388   3.753   0.451
 1786HOH      O 5562   1.696   0.541   2.083
 1786HOH     H1 5563   1.750   0.546   2.004
 1786HOH     H2 5564   1.743   0.480   2.139
 1787HOH      O 5565   3.939   1.130   2.188
 1787HOH     H1 5566   3.995   1.206   2.171
 1787HOH     H2 5567   3.858   1.149   2.140
 1788HOH      O 5568   2.048   3.005   0.422
 1788HOH     H1 5569   2.008   3.088   0.396
 1788HOH     H2 5570   2.130   3.031   0.464
 1789HOH      O 5571   3.916   0.142   1.060
 1789HOH     H1 5572   3.931   0.097   0.977
 1789HOH     H2 5573   3.888   0.073   1.121
 1790HOH      O 5574   1.035   1.840   3.582
 1790HOH     H1 5575   1.101   1.798   3.638
 1790HOH     H2 5576   1.060   1.932   3.582
 1791HOH      O 5577   0.201   0.451   2.907
 1791HOH     H1 5578   0.114   0.417   2.890
 1791HOH     H2 5579   0.250   0.377   2.942
 1792HOH      O 5580   3.944   1.841   2.820
 1792HOH     H1 5581   3.876   1.860   2.885
 1792HOH     H2 5582   3.989   1.925   2.808
 1793HOH      O 5583   0.827   3.170   3.515
 1793HOH     H1 5584   0.785   3.217   3.587
 1793HOH     H2 5585   0.765   3.177   3.442
 1794HOH      O 5586   0.658   1.970   0.411
 1794HOH     H1 5587   0.725   1.932   0.354
 1794HOH     H2 5588   0.581   1.979   0.356
 1795HOH      O 5589   4.012   2.511   2.792
 1795HOH     H1 5590   4.005   2.566   2.870
 1795HOH     H2 5591   3.932   2.528   2.744
 1796HOH      O 5592   1.957   3.733   3.047
 1796HOH     H1 5593   1.964   3.640   3.066
 1796HOH     H2 5594   1.922   3.737   2.958
 1797HOH      O 5595   1.675   0.909   3.762
 1797HOH     H1 5596   1.759   0.956   3.769
 1797HOH     H2 5597   1.668   0.887   3.669
 1798HOH      O 5598   0.185   1.523   1.236
 1798HOH     H1 5599   0.265   1.524   1.290
 1798HOH     H2 5600   0.136   1.600   1.265
 1799HOH      O 5601   0.812   3.494   3.392
 1799HOH     H1 5602   0.766   3.432   3.336
 1799HOH     H2 5603   0.743   3.549   3.428
 1800HOH      O 5604   2.339   2.724   2.689
 1800HOH     H1 5605   2.419   2.671   2.684
 1800HOH     H2 5606   2.291   2.703   2.609
 1801HOH      O 5607   0.689   3.626   0.137
 1801HOH     H1 5608   0.776   3.619   0.176
 1801HOH     H2 5609   0.629   3.603   0.207
 1802HOH      O 5610   0.515   3.335   3.864
 1802HOH     H1 5611   0.436   3.321   3.813
 1802HOH     H2 5612   0.498   3.293   3.949
 1803HOH      O 5613   3.648   2.086   3.289
 1803HOH     H1 5614   3.615   2.034   3.362
 1803HOH     H2 5615   3.574   2.141   3.264
 1804HOH      O 5616   2.541   0.380   0.109
 1804HOH     H1 5617   2.528   0.444   0.039
 1804HOH     H2 5618   2.509   0.297   0.071
 1805HOH      O 5619   3.516   2.851   0.036
 1805HOH     H1 5620   3.438   2.902   0.060
 1805HOH     H2 5621   3.535   2.800   0.115
 1806HOH      O 5622   0.576   0.404   3.944
 1806HOH     H1 5623   0.642   0.357   3.893
 1806HOH     H2 5624   0.521   0.447   3.878
 1807HOH      O 5625   2.123   2.697   1.897
 1807HOH     H1 5626   2.142   2.674   1.988
 1807HOH     H2 5627   2.174   2.634   1.845
 1808HOH      O 5628   2.962   2.898   0.836
 1808HOH     H1 5629   2.998   2.886   0.924
 1808HOH     H2 5630   2.896   2.829   0.829
 1809HOH      O 5631   1.868   1.750   0.978
 1809HOH     H1 5632   1.858   1.656   0.963
 1809HOH     H2 5633   1.822   1.767   1.060
 1810HOH      O 5634   1.682   0.932   0.120
 1810HOH     H1 5635   1.769   0.957   0.152
 1810HOH     H2 5636   1.643   1.014   0.089
 1811HOH      O 5637   2.419   3.632   2.166
 1811HOH     H1 5638   2.411   3.612   2.072
 1811HOH     H2 5639   2.485   3.570   2.197
 1812HOH      O 5640   3.838   0.276   0.739
 1812HOH     H1 5641   3.858   0.193   0.782
 1812HOH     H2 5642   3.821   0.253   0.648
 1813HOH      O 5643   0.365   1.915   2.066
 1813HOH     H1 5644   0.352   2.003   2.101
 1813HOH     H2 5645   0.398   1.929   1.978
 1814HOH      O 5646   3.394   3.511   3.641
 1814HOH     H1 5647   3.420   3.454   3.714
 1814HOH     H2 5648   3.455   3.584   3.646
 1815HOH      O 5649   3.736   2.698   1.843
 1815HOH     H1 5650   3.753   2.772   1.785
 1815HOH     H2 5651   3.685   2.735   1.915
 1816HOH      O 5652   0.787   3.572   1.012
 1816HOH     H1 5653   0.765   3.532   1.096
 1816HOH     H2 5654   0.800   3.498   0.953
 1817HOH      O 5655   3.185   2.051   2.122
 1817HOH     H1 5656   3.217   2.098   2.045
 1817HOH     H2 5657   3.214   2.103   2.196
 1818HOH      O 5658   3.386   0.013   0.968
 1818HOH     H1 5659   3.423   0.100   0.984
 1818HOH     H2 5660   3.442  -0.024   0.900
 1819HOH      O 5661   1.206   0.837   2.262
 1819HOH     H1 5662   1.137   0.887   2.306
 1819HOH     H2 5663   1.262   0.806   2.334
 1820HOH      O 5664   0.965   0.099   2.895
 1820HOH     H1 5665   0.880   0.069   2.863
 1820HOH     H2 5666   0.952   0.192   2.916
 1821HOH      O 5667   1.897   0.526   1.885
 1821HOH     H1 5668   1.936   0.578   1.814
 1821HOH     H2 5669   1.969   0.514   1.948
 1822HOH      O 5670   3.958   2.028   1.459
 1822HOH     H1 5671   3.907   2.109   1.468
 1822HOH     H2 5672   4.000   2.035   1.374
 1823HOH      O 5673   1.481   2.117   2.316
 1823HOH     H1 5674   1.483   2.138   2.222
 1823HOH     H2 5675   1.472   2.022   2.318
 1824HOH      O 5676   2.425   1.716   1.356
 1824HOH     H1 5677   2.329   1.715   1.354
 1824HOH     H2 5678   2.450   1.625   1.349
 1825HOH      O 5679   2.730   1.595   3.432
 1825HOH     H1 5680   2.656   1.643   3.470
 1825HOH     H2 5681   2.795   1.662   3.415
 1826HOH      O 5682   1.447   3.743   0.411
 1826HOH     H1 5683   1.509   3.697   0.468
 1826HOH     H2 5684   1.425   3.678   0.343
 1827HOH      O 5685   1.737   0.506   0.531
 1827HOH     H1 5686   1.796   0.557   0.474
 1827HOH     H2 5687   1.679   0.461   0.470
 1828HOH      O 5688   3.835   2.230   2.757
 1828HOH     H1 5689   3.806   2.298   2.818
 1828HOH     H2 5690   3.875   2.277   2.684
 1829HOH      O 5691   0.207   1.685   0.166
 1829HOH     H1 5692   0.247   1.757   0.118
 1829HOH     H2 5693   0.277   1.620   0.173
 1830HOH      O 5694   1.603   2.043   2.977
 1830HOH     H1 5695   1.657   1.965   2.962
 1830HOH     H2 5696   1.658   2.116   2.948
 1831HOH      O 5697   1.196   3.123   3.976
 1831HOH     H1 5698   1.144   3.089   3.903
 1831HOH     H2 5699   1.236   3.203   3.942
 1832HOH      O 5700   3.755   3.543   1.263
 1832HOH     H1 5701   3.727   3.518   1.351
 1832HOH     H2 5702   3.811   3.471   1.234
 1833HOH      O 5703   2.058   1.985   1.002
 1833HOH     H1 5704   2.024   2.070   0.973
 1833HOH     H2 5705   2.004   1.921   0.957
 1834HOH      O 5706   1.317   2.030   2.681
 1834HOH     H1 5707   1.260   2.082   2.624
 1834HOH     H2 5708   1.367   1.974   2.622
 1835HOH      O 5709   1.948   3.984   0.982
 1835HOH     H1 5710   1.973   3.895   0.958
 1835HOH     H2 5711   2.031   4.026   1.007
 1836HOH      O 5712   3.559  -0.001   0.539
 1836HOH     H1 5713   3.627  -0.059   0.506
 1836HOH     H2 5714   3.580   0.084   0.500
 1837HOH      O 5715   2.298   3.071   0.267
 1837HOH     H1 5716   2.247   3.010   0.214
 1837HOH     H2 5717   2.293   3.036   0.356
 1838HOH      O 5718   1.504   1.028   2.921
 1838HOH     H1 5719   1.477   1.118   2.904
 1838HOH     H2 5720   1.589   1.021   2.878
 1839HOH      O 5721   3.526   3.135   2.672
 1839HOH     H1 5722   3.555   3.109   2.584
 1839HOH     H2 5723   3.440   3.174   2.659
 1840HOH      O 5724   0.526   3.265   0.941
 1840HOH     H1 5725   0.475   3.300   0.868
 1840HOH     H2 5726   0.469   3.199   0.980
 1841HOH      O 5727   2.249   0.423   1.316
 1841HOH     H1 5728   2.287   0.452   1.399
 1841HOH     H2 5729   2.300   0.470   1.250
 1842HOH      O 5730   2.778   2.088   1.648
 1842HOH     H1 5731   2.779   2.092   1.552
 1842HOH     H2 5732   2.723   2.012   1.669
 1843HOH      O 5733   1.478   1.151   1.215
 1843HOH     H1 5734   1.569   1.122   1.218
 1843HOH     H2 5735   1.431   1.079   1.173
 1844HOH      O 5736   0.747   1.278   3.341
 1844HOH     H1 5737   0.834   1.265   3.304
 1844HOH     H2 5738   0.717   1.361   3.304
 1845HOH      O 5739   1.487   3.531   3.230
 1845HOH     H1 5740   1.455   3.609   3.185
 1845HOH     H2 5741   1.411   3.472   3.234
 1846HOH      O 5742   1.867   3.817   2.212
 1846HOH     H1 5743   1.929   3.850   2.147
 1846HOH     H2 5744   1.817   3.750   2.166
 1847HOH      O 5745   2.437   1.186   1.607
 1847HOH     H1 5746   2.344   1.177   1.586
 1847HOH     H2 5747   2.465   1.098   1.633
 1848HOH      O 5748   4.028   2.925   3.897
 1848HOH     H1 5749   4.104   2.959   3.945
 1848HOH     H2 5750   3.959   2.921   3.963
 1849HOH      O 5751   0.456   3.320   0.625
 1849HOH     H1 5752   0.469   3.225   0.631
 1849HOH     H2 5753   0.543   3.355   0.609
 1850HOH      O 5754   0.541   1.397   0.489
 1850HOH     H1 5755   0.544   1.472   0.429
 1850HOH     H2 5756   0.513   1.435   0.572
 1851HOH      O 5757   0.943   3.214   2.607
 1851HOH     H1 5758   0.891   3.282   2.565
 1851HOH     H2 5759   1.007   3.188   2.540
 1852HOH      O 5760   2.048   3.379   2.715
 1852HOH     H1 5761   2.105   3.449   2.685
 1852HOH     H2 5762   1.967   3.423   2.741
 1853HOH      O 5763   2.349   2.761   3.384
 1853HOH     H1 5764   2.413   2.828   3.358
 1853HOH     H2 5765   2.392   2.713   3.454
 1854HOH      O 5766   0.968   3.920   3.778
 1854HOH     H1 5767   1.013   3.837   3.767
 1854HOH     H2 5768   0.883   3.907   3.735
 1855HOH      O 5769   1.540   3.244   2.473
 1855HOH     H1 5770   1.530   3.183   2.400
 1855HOH     H2 5771   1.462   3.300   2.468
 1856HOH      O 5772   1.002   2.563   0.277
 1856HOH     H1 5773   1.075   2.534   0.332
 1856HOH     H2 5774   0.926   2.558   0.334
 1857HOH      O 5775   0.356   2.961   0.680
 1857HOH     H1 5776   0.342   2.895   0.612
 1857HOH     H2 5777   0.442   2.997   0.661
 1858HOH      O 5778   3.983   3.905   0.304
 1858HOH     H1 5779   4.043   3.847   0.351
 1858HOH     H2 5780   4.026   3.922   0.221
 1859HOH      O 5781   2.073   1.104   0.433
 1859HOH     H1 5782   2.006   1.071   0.374
 1859HOH     H2 5783   2.090   1.030   0.492
 1860HOH      O 5784   0.617   0.674   0.986
 1860HOH     H1 5785   0.695   0.667   0.932
 1860HOH     H2 5786   0.650   0.688   1.075
 1861HOH      O 5787   1.678   3.492   1.615
 1861HOH     H1 5788   1.665   3.400   1.592
 1861HOH     H2 5789   1.744   3.523   1.553
 1862HOH      O 5790   3.895   0.016   3.441
 1862HOH     H1 5791   3.966   0.079   3.428
 1862HOH     H2 5792   3.940  -0.068   3.449
 1863HOH      O 5793   4.067   2.293   3.824
 1863HOH     H1 5794   3.974   2.284   3.844
 1863HOH     H2 5795   4.071   2.289   3.729
 1864HOH      O 5796   2.382   3.765   2.409
 1864HOH     H1 5797   2.311   3.822   2.437
 1864HOH     H2 5798   2.350   3.723   2.329
 1865HOH      O 5799   1.263   1.354   0.252
 1865HOH     H1 5800   1.315   1.320   0.325
 1865HOH     H2 5801   1.297   1.309   0.175
 1866HOH      O 5802   2.726   0.448   3.073
 1866HOH     H1 5803   2.637   0.476   3.055
 1866HOH     H2 5804   2.753   0.402   2.993
 1867HOH      O 5805   2.000   2.346   0.155
 1867HOH     H1 5806   1.999   2.413   0.086
 1867HOH     H2 5807   1.940   2.379   0.221
 1868HOH      O 5808   3.244   1.734   1.887
 1868HOH     H1 5809   3.192   1.779   1.820
 1868HOH     H2 5810   3.275   1.654   1.843
 1869HOH      O 5811   0.063   2.093   0.413
 1869HOH     H1 5812   0.016   2.126   0.490
 1869HOH     H2 5813  -0.000   2.033   0.371
 1870HOH      O 5814   1.125   1.635   1.823
 1870HOH     H1 5815   1.196   1.570   1.816
 1870HOH     H2 5816   1.050   1.592   1.783
 1871HOH      O 5817   2.522   2.530   2.627
 1871HOH     H1 5818   2.601   2.478   2.637
 1871HOH     H2 5819   2.479   2.494   2.549
 1872HOH      O 5820   2.113   2.620   3.413
 1872HOH     H1 5821   2.039   2.628   3.353
 1872HOH     H2 5822   2.173   2.690   3.387
 1873HOH      O 5823   3.185   2.703   1.360
 1873HOH     H1 5824   3.198   2.661   1.446
 1873HOH     H2 5825   3.116   2.651   1.319
 1874HOH      O 5826   0.971   2.266   2.961
 1874HOH     H1 5827   1.011   2.179   2.960
 1874HOH     H2 5828   1.042   2.326   2.985
 1875HOH      O 5829   0.259   0.393   1.503
 1875HOH     H1 5830   0.204   0.459   1.461
 1875HOH     H2 5831   0.345   0.434   1.507
 1876HOH      O 5832   2.915   1.925   2.395
 1876HOH     H1 5833   2.953   1.957   2.476
 1876HOH     H2 5834   2.829   1.891   2.420
 1877HOH      O 5835   2.315   1.748   0.444
 1877HOH     H1 5836   2.228   1.745   0.484
 1877HOH     H2 5837   2.348   1.659   0.451
 1878HOH      O 5838   1.051   2.469   3.763
 1878HOH     H1 5839   1.108   2.397   3.735
 1878HOH     H2 5840   1.047   2.462   3.858
 1879HOH      O 5841   2.003   1.056   1.450
 1879HOH     H1 5842   2.036   0.974   1.412
 1879HOH     H2 5843   1.937   1.028   1.513
 1880HOH      O 5844   0.904   2.466   1.820
 1880HOH     H1 5845   0.942   2.473   1.908
 1880HOH     H2 5846   0.824   2.519   1.824
 1881HOH      O 5847   2.511   2.691   2.982
 1881HOH     H1 5848   2.537   2.751   2.912
 1881HOH     H2 5849   2.419   2.711   2.998
 1882HOH      O 5850   3.716   1.309   1.091
 1882HOH     H1 5851   3.795   1.354   1.121
 1882HOH     H2 5852   3.675   1.371   1.030
 1883HOH      O 5853   2.608   3.894   2.244
 1883HOH     H1 5854   2.591   3.914   2.152
 1883HOH     H2 5855   2.585   3.802   2.253
 1884HOH      O 5856   3.561   1.345   1.337
 1884HOH     H1 5857   3.605   1.284   1.395
 1884HOH     H2 5858   3.631   1.392   1.292
 1885HOH      O 5859   3.924   1.318   1.843
 1885HOH     H1 5860   3.850   1.357   1.890
 1885HOH     H2 5861   3.884   1.248   1.791
 1886HOH      O 5862   1.645   3.215   1.535
 1886HOH     H1 5863   1.702   3.150   1.578
 1886HOH     H2 5864   1.573   3.163   1.499
 1887HOH      O 5865   0.078   0.241   1.748
 1887HOH     H1 5866   0.155   0.275   1.702
 1887HOH     H2 5867   0.004   0.272   1.696
 1888HOH      O 5868   2.361   0.291   0.327
 1888HOH     H1 5869   2.422   0.346   0.277
 1888HOH     H2 5870   2.383   0.202   0.302
 1889HOH      O 5871   1.422   3.672   2.144
 1889HOH     H1 5872   1.338   3.673   2.190
 1889HOH     H2 5873   1.453   3.582   2.152
 1890HOH      O 5874   0.780   2.695   3.043
 1890HOH     H1 5875   0.824   2.635   3.103
 1890HOH     H2 5876   0.850   2.727   2.986
 1891HOH      O 5877   0.404   2.879   1.753
 1891HOH     H1 5878   0.454   2.943   1.804
 1891HOH     H2 5879   0.363   2.823   1.818
 1892HOH      O 5880   2.315   0.124   1.317
 1892HOH     H1 5881   2.298   0.211   1.353
 1892HOH     H2 5882   2.410   0.112   1.323
 1893HOH      O 5883   1.827   0.610   4.023
 1893HOH     H1 5884   1.860   0.629   3.935
 1893HOH     H2 5885   1.905   0.604   4.078
 1894HOH      O 5886   2.634   3.304   2.673
 1894HOH     H1 5887   2.723   3.289   2.705
 1894HOH     H2 5888   2.636   3.393   2.637
 1895HOH      O 5889   0.052   1.672   3.863
 1895HOH     H1 5890   0.068   1.734   3.791
 1895HOH     H2 5891   0.136   1.630   3.878
 1896HOH      O 5892   3.447   0.631   3.286
 1896HOH     H1 5893   3.396   0.597   3.360
 1896HOH     H2 5894   3.383   0.646   3.217
 1897HOH      O 5895   0.430   0.741   1.567
 1897HOH     H1 5896   0.362   0.804   1.541
 1897HOH     H2 5897   0.467   0.779   1.647
 1898HOH      O 5898   0.842   1.335   3.769
 1898HOH     H1 5899   0.791   1.264   3.806
 1898HOH     H2 5900   0.908   1.292   3.714
 1899HOH      O 5901   1.169   0.340   2.694
 1899HOH     H1 5902   1.139   0.250   2.708
 1899HOH     H2 5903   1.110   0.394   2.746
 1900HOH      O 5904   0.070   0.588   3.168
 1900HOH     H1 5905   0.136   0.623   3.228
 1900HOH     H2 5906   0.116   0.521   3.118
 1901HOH      O 5907   3.009   1.459   0.447
 1901HOH     H1 5908   3.049   1.378   0.479
 1901HOH     H2 5909   3.005   1.448   0.352
 1902HOH      O 5910   3.391   3.416   1.401
 1902HOH     H1 5911   3.470   3.372   1.369
 1902HOH     H2 5912   3.402   3.417   1.496
 1903HOH      O 5913   0.890   3.934   2.629
 1903HOH     H1 5914   0.914   3.896   2.544
 1903HOH     H2 5915   0.964   3.990   2.652
 1904HOH      O 5916   1.186   3.856   2.593
 1904HOH     H1 5917   1.157   3.777   2.548
 1904HOH     H2 5918   1.279   3.864   2.569
 1905HOH      O 5919   1.989   0.898   1.059
 1905HOH     H1 5920   1.932   0.834   1.102
 1905HOH     H2 5921   2.044   0.847   1.001
 1906HOH      O 5922   2.716   3.726   1.902
 1906HOH     H1 5923   2.689   3.668   1.973
 1906HOH     H2 5924   2.690   3.679   1.822
 1907HOH      O 5925   1.730   0.759   2.334
 1907HOH     H1 5926   1.653   0.747   2.279
 1907HOH     H2 5927   1.783   0.825   2.290
 1908HOH      O 5928   1.864   1.373   2.461
 1908HOH     H1 5929   1.911   1.457   2.468
 1908HOH     H2 5930   1.851   1.361   2.367
 1909HOH      O 5931   1.975   3.300   1.121
 1909HOH     H1 5932   1.969   3.386   1.162
 1909HOH     H2 5933   1.907   3.248   1.163
 1910HOH      O 5934   1.936   2.809   1.018
 1910HOH     H1 5935   1.943   2.812   1.113
 1910HOH     H2 5936   1.894   2.725   0.999
 1911HOH      O 5937   3.392   2.571   0.029
 1911HOH     H1 5938   3.382   2.604   0.118
 1911HOH     H2 5939   3.357   2.641  -0.026
 1912HOH      O 5940   3.436   1.821   0.412
 1912HOH     H1 5941   3.380   1.761   0.365
 1912HOH     H2 5942   3.435   1.790   0.503
 1913HOH      O 5943   1.660   1.721   3.227
 1913HOH     H1 5944   1.591   1.655   3.216
 1913HOH     H2 5945   1.720   1.683   3.290
 1914HOH      O 5946   1.273   0.743   2.001
 1914HOH     H1 5947   1.273   0.794   2.082
 1914HOH     H2 5948   1.334   0.671   2.018
 1915HOH      O 5949   1.701   1.225   3.731
 1915HOH     H1 5950   1.774   1.287   3.725
 1915HOH     H2 5951   1.730   1.150   3.680
 1916HOH      O 5952   2.216   0.643   4.029
 1916HOH     H1 5953   2.298   0.615   3.987
 1916HOH     H2 5954   2.149   0.624   3.963
 1917HOH      O 5955   1.564   2.655   3.921
 1917HOH     H1 5956   1.483   2.604   3.928
 1917HOH     H2 5957   1.567   2.707   4.002
 1918HOH      O 5958   1.281   0.643   2.498
 1918HOH     H1 5959   1.204   0.593   2.526
 1918HOH     H2 5960   1.328   0.584   2.440
 1919HOH      O 5961   0.596   2.393   1.550
 1919HOH     H1 5962   0.676   2.369   1.503
 1919HOH     H2 5963   0.598   2.488   1.553
 1920HOH      O 5964   1.524   1.011   0.839
 1920HOH     H1 5965   1.509   0.949   0.910
 1920HOH     H2 5966   1.618   1.028   0.841
 1921HOH      O 5967   0.742   1.698   1.164
 1921HOH     H1 5968   0.837   1.698   1.156
 1921HOH     H2 5969   0.711   1.734   1.081
 1922HOH      O 5970   1.566   2.103   1.470
 1922HOH     H1 5971   1.490   2.139   1.424
 1922HOH     H2 5972   1.560   2.009   1.455
 1923HOH      O 5973   1.618   4.005   3.528
 1923HOH     H1 5974   1.617   3.941   3.458
 1923HOH     H2 5975   1.558   3.970   3.594
 1924HOH      O 5976   1.245   3.398   0.540
 1924HOH     H1 5977   1.281   3.443   0.617
 1924HOH     H2 5978   1.310   3.413   0.472
 1925HOH      O 5979   1.135   0.015   0.850
 1925HOH     H1 5980   1.141   0.023   0.945
 1925HOH     H2 5981   1.085   0.092   0.822
 1926HOH      O 5982   0.230   1.661   1.705
 1926HOH     H1 5983   0.301   1.675   1.768
 1926HOH     H2 5984   0.154   1.640   1.759
 1927HOH      O 5985   2.131   0.490   2.019
 1927HOH     H1 5986   2.118   0.403   2.058
 1927HOH     H2 5987   2.163   0.544   2.091
 1928HOH      O 5988   2.738   1.945   1.090
 1928HOH     H1 5989   2.805   1.919   1.153
 1928HOH     H2 5990   2.770   2.028   1.054
 1929HOH      O 5991   3.704   0.587   3.201
 1929HOH     H1 5992   3.614   0.616   3.220
 1929HOH     H2 5993   3.698   0.492   3.197
 1930HOH      O 5994   2.980   1.636   2.356
 1930HOH     H1 5995   2.946   1.725   2.348
 1930HOH     H2 5996   2.990   1.607   2.265
 1931HOH      O 5997   2.400   1.416   2.769
 1931HOH     H1 5998   2.431   1.341   2.819
 1931HOH     H2 5999   2.465   1.428   2.700
 1932HOH      O 6000   0.394   0.528   1.885
 1932HOH     H1 6001   0.377   0.615   1.921
 1932HOH     H2 6002   0.433   0.480   1.958
 1933HOH      O 6003   3.911   0.184   3.842
 1933HOH     H1 6004   3.839   0.233   3.881
 1933HOH     H2 6005   3.872   0.138   3.768
 1934HOH      O 6006   3.394   1.485   0.589
 1934HOH     H1 6007   3.484   1.518   0.597
 1934HOH     H2 6008   3.387   1.457   0.498
 1935HOH      O 6009   2.922   1.389   2.065
 1935HOH     H1 6010   2.925   1.483   2.082
 1935HOH     H2 6011   2.937   1.381   1.971
 1936HOH      O 6012   0.063   0.177   3.244
 1936HOH     H1 6013   0.065   0.209   3.154
 1936HOH     H2 6014   0.026   0.249   3.294
 1937HOH      O 6015   0.890   0.348   3.619
 1937HOH     H1 6016   0.983   0.358   3.642
 1937HOH     H2 6017   0.873   0.417   3.555
 1938HOH      O 6018   3.142   1.409   2.992
 1938HOH     H1 6019   3.105   1.404   3.080
 1938HOH     H2 6020   3.237   1.412   3.005
 1939HOH      O 6021   1.798   2.080   3.179
 1939HOH     H1 6022   1.802   2.172   3.151
 1939HOH     H2 6023   1.708   2.069   3.210
 1940HOH      O 6024   0.616   2.513   2.907
 1940HOH     H1 6025   0.662   2.430   2.895
 1940HOH     H2 6026   0.680   2.571   2.950
 1941HOH      O 6027   1.156   2.459   3.061
 1941HOH     H1 6028   1.115   2.538   3.098
 1941HOH     H2 6029   1.202   2.420   3.135
 1942HOH      O 6030   2.032   3.714   0.938
 1942HOH     H1 6031   1.982   3.657   0.880
 1942HOH     H2 6032   2.034   3.668   1.021
 1943HOH      O 6033   2.491   3.832   2.814
 1943HOH     H1 6034   2.457   3.903   2.868
 1943HOH     H2 6035   2.420   3.769   2.809
 1944HOH      O 6036   1.271   2.273   0.486
 1944HOH     H1 6037   1.235   2.361   0.478
 1944HOH     H2 6038   1.201   2.215   0.457
 1945HOH      O 6039   2.503   3.208   0.434
 1945HOH     H1 6040   2.464   3.134   0.388
 1945HOH     H2 6041   2.505   3.180   0.526
 1946HOH      O 6042   1.552   3.758   3.052
 1946HOH     H1 6043   1.483   3.781   2.990
 1946HOH     H2 6044   1.606   3.695   3.004
 1947HOH      O 6045   0.544   3.919   0.606
 1947HOH     H1 6046   0.608   3.937   0.537
 1947HOH     H2 6047   0.459   3.940   0.567
 1948HOH      O 6048   3.735   1.061   1.142
 1948HOH     H1 6049   3.703   1.146   1.113
 1948HOH     H2 6050   3.773   1.078   1.228
 1949HOH      O 6051   0.191   3.142   3.692
 1949HOH     H1 6052   0.228   3.136   3.780
 1949HOH     H2 6053   0.220   3.062   3.648
 1950HOH      O 6054   2.239   2.573   3.967
 1950HOH     H1 6055   2.245   2.592   3.873
 1950HOH     H2 6056   2.145   2.571   3.985
 1951HOH      O 6057   2.110   1.293   0.235
 1951HOH     H1 6058   2.020   1.305   0.264
 1951HOH     H2 6059   2.143   1.219   0.286
 1952HOH      O 6060   2.341   0.369   2.838
 1952HOH     H1 6061   2.355   0.407   2.751
 1952HOH     H2 6062   2.388   0.286   2.836
 1953HOH      O 6063   0.407   0.857   0.929
 1953HOH     H1 6064   0.325   0.861   0.978
 1953HOH     H2 6065   0.450   0.777   0.962
 1954HOH      O 6066   3.010   2.218   1.331
 1954HOH     H1 6067   3.049   2.164   1.263
 1954HOH     H2 6068   3.064   2.203   1.408
 1955HOH      O 6069   1.293   3.396   0.972
 1955HOH     H1 6070   1.200   3.413   0.990
 1955HOH     H2 6071   1.339   3.432   1.048
 1956HOH      O 6072   1.217   0.476   0.268
 1956HOH     H1 6073   1.239   0.402   0.212
 1956HOH     H2 6074   1.246   0.451   0.355
 1957HOH      O 6075   3.317   3.075   0.076
 1957HOH     H1 6076   3.224   3.081   0.053
 1957HOH     H2 6077   3.363   3.097  -0.005
 1958HOH      O 6078   0.284   1.891   4.041
 1958HOH     H1 6079   0.276   1.845   3.958
 1958HOH     H2 6080   0.212   1.955   4.040
 1959HOH      O 6081   2.419   1.041   3.231
 1959HOH     H1 6082   2.487   1.031   3.165
 1959HOH     H2 6083   2.366   0.962   3.223
 1960HOH      O 6084   2.720   1.991   3.497
 1960HOH     H1 6085   2.632   1.967   3.525
 1960HOH     H2 6086   2.713   2.002   3.402
 1961HOH      O 6087   2.676   2.391   2.392
 1961HOH     H1 6088   2.603   2.365   2.335
 1961HOH     H2 6089   2.752   2.395   2.334
 1962HOH      O 6090   2.974   3.186   1.931
 1962HOH     H1 6091   2.961   3.181   1.837
 1962HOH     H2 6092   2.994   3.278   1.948
 1963HOH      O 6093   1.599   3.379   0.742
 1963HOH     H1 6094   1.540   3.312   0.776
 1963HOH     H2 6095   1.652   3.405   0.817
 1964HOH      O 6096   2.972   2.389   2.279
 1964HOH     H1 6097   2.986   2.395   2.374
 1964HOH     H2 6098   3.013   2.467   2.243
 1965HOH      O 6099   0.978   3.889   0.369
 1965HOH     H1 6100   1.040   3.851   0.430
 1965HOH     H2 6101   1.032   3.924   0.298
 1966HOH      O 6102   1.447   1.075   3.750
 1966HOH     H1 6103   1.535   1.047   3.777
 1966HOH     H2 6104   1.409   0.996   3.711
 1967HOH      O 6105   0.281   2.302   3.411
 1967HOH     H1 6106   0.376   2.298   3.421
 1967HOH     H2 6107   0.261   2.234   3.347
 1968HOH      O 6108   2.071   1.215   3.583
 1968HOH     H1 6109   2.157   1.258   3.581
 1968HOH     H2 6110   2.011   1.284   3.612
 1969HOH      O 6111   1.874   2.787   3.987
 1969HOH     H1 6112   1.785   2.812   4.011
 1969HOH     H2 6113   1.930   2.843   4.041
 1970HOH      O 6114   1.775   0.072   2.864
 1970HOH     H1 6115   1.848   0.090   2.805
 1970HOH     H2 6116   1.808   0.004   2.923
 1971HOH      O 6117   1.466   1.585   0.220
 1971HOH     H1 6118   1.537   1.534   0.260
 1971HOH     H2 6119   1.465   1.556   0.128
 1972HOH      O 6120   3.590   1.672   0.858
 1972HOH     H1 6121   3.557   1.666   0.948
 1972HOH     H2 6122   3.628   1.586   0.840
 1973HOH      O 6123   1.117   3.574   2.607
 1973HOH     H1 6124   1.089   3.594   2.696
 1973HOH     H2 6125   1.036   3.558   2.559
 1974HOH      O 6126   0.879   2.763   1.340
 1974HOH     H1 6127   0.876   2.752   1.245
 1974HOH     H2 6128   0.886   2.674   1.375
 1975HOH      O 6129   3.368   1.416   0.327
 1975HOH     H1 6130   3.308   1.344   0.307
 1975HOH     H2 6131   3.455   1.378   0.315
 1976HOH      O 6132   2.612   1.722   0.301
 1976HOH     H1 6133   2.661   1.714   0.383
 1976HOH     H2 6134   2.528   1.760   0.327
 1977HOH      O 6135   1.533   2.076   0.957
 1977HOH     H1 6136   1.600   2.011   0.975
 1977HOH     H2 6137   1.515   2.067   0.863
 1978HOH      O 6138   2.152   2.058   3.459
 1978HOH     H1 6139   2.194   2.108   3.529
 1978HOH     H2 6140   2.157   1.967   3.489
 1979HOH      O 6141   0.246   2.065   3.279
 1979HOH     H1 6142   0.203   2.082   3.196
 1979HOH     H2 6143   0.229   1.972   3.296
 1980HOH      O 6144   0.491   3.037   3.841
 1980HOH     H1 6145   0.487   2.959   3.896
 1980HOH     H2 6146   0.480   3.110   3.903
 1981HOH      O 6147   0.340   3.095   3.384
 1981HOH     H1 6148   0.417   3.081   3.438
 1981HOH     H2 6149   0.299   3.009   3.376
 1982HOH      O 6150   0.509   0.345   2.677
 1982HOH     H1 6151   0.578   0.298   2.725
 1982HOH     H2 6152   0.504   0.430   2.720
 1983HOH      O 6153   0.469   0.842   1.818
 1983HOH     H1 6154   0.409   0.916   1.810
 1983HOH     H2 6155   0.485   0.834   1.912
 1984HOH      O 6156   0.475   3.190   0.071
 1984HOH     H1 6157   0.547   3.143   0.114
 1984HOH     H2 6158   0.434   3.240   0.142
 1985HOH      O 6159   1.661   0.380   1.374
 1985HOH     H1 6160   1.598   0.331   1.427
 1985HOH     H2 6161   1.625   0.375   1.285
 1986HOH      O 6162   0.448   3.817   0.083
 1986HOH     H1 6163   0.451   3.874   0.160
 1986HOH     H2 6164   0.520   3.756   0.096
 1987HOH      O 6165   1.564   3.971   4.048
 1987HOH     H1 6166   1.598   4.014   3.970
 1987HOH     H2 6167   1.639   3.928   4.088
 1988HOH      O 6168   3.958   1.273   3.888
 1988HOH     H1 6169   3.946   1.193   3.939
 1988HOH     H2 6170   4.036   1.314   3.925
 1989HOH      O 6171   0.437   3.951   3.623
 1989HOH     H1 6172   0.358   3.919   3.579
 1989HOH     H2 6173   0.455   3.885   3.690
 1990HOH      O 6174   0.230   1.728   3.064
 1990HOH     H1 6175   0.213   1.806   3.117
 1990HOH     H2 6176   0.254   1.661   3.128
 1991HOH      O 6177   2.768   3.423   1.890
 1991HOH     H1 6178   2.761   3.340   1.844
 1991HOH     H2 6179   2.796   3.486   1.823
 1992HOH      O 6180   2.931   1.134   0.628
 1992HOH     H1 6181   2.990   1.169   0.562
 1992HOH     H2 6182   2.895   1.054   0.589
 1993HOH      O 6183   2.296   1.335   0.793
 1993HOH     H1 6184   2.237   1.346   0.718
 1993HOH     H2 6185   2.318   1.424   0.820
 1994HOH      O 6186   0.128   2.802   2.368
 1994HOH     H1 6187   0.119   2.819   2.274
 1994HOH     H2 6188   0.198   2.861   2.396
 1995HOH      O 6189   2.854   3.886   3.799
 1995HOH     H1 6190   2.863   3.862   3.707
 1995HOH     H2 6191   2.942   3.912   3.826
 1996HOH      O 6192   0.308   3.166   2.675
 1996HOH     H1 6193   0.273   3.243   2.720
 1996HOH     H2 6194   0.402   3.179   2.676
 1997HOH      O 6195   1.234   2.723   1.955
 1997HOH     H1 6196   1.223   2.783   1.881
 1997HOH     H2 6197   1.226   2.636   1.917
 1998HOH      O 6198   2.825   2.781   1.793
 1998HOH     H1 6199   2.778   2.698   1.781
 1998HOH     H2 6200   2.832   2.817   1.705
 1999HOH      O 6201   0.934   3.621   1.314
 1999HOH     H1 6202   1.024   3.601   1.340
 1999HOH     H2 6203   0.905   3.685   1.379
 2000HOH      O 6204   1.325   2.392   3.766
 2000HOH     H1 6205   1.312   2.394   3.861
 2000HOH     H2 6206   1.336   2.484   3.742
 2001HOH      O 6207   0.875   3.244   1.954
 2001HOH     H1 6208   0.821   3.290   2.019
 2001HOH     H2 6209   0.926   3.313   1.912
 2002HOH      O 6210   1.185   3.767   1.172
 2002HOH     H1 6211   1.108   3.825   1.177
 2002HOH     H2 6212   1.161   3.691   1.224
 2003HOH      O 6213   2.653   3.523   0.320
 2003HOH     H1 6214   2.648   3.520   0.416
 2003HOH     H2 6215   2.745   3.509   0.300
 2004HOH      O 6216   2.672   3.392   3.568
 2004HOH     H1 6217   2.665   3.373   3.474
 2004HOH     H2 6218   2.761   3.364   3.591
 2005HOH      O 6219   2.072   1.585   0.791
 2005HOH     H1 6220   2.106   1.608   0.878
 2005HOH     H2 6221   1.989   1.542   0.807
 2006HOH      O 6222   2.584   0.219   2.953
 2006HOH     H1 6223   2.644   0.192   3.022
 2006HOH     H2 6224   2.629   0.196   2.871
 2007HOH      O 6225   1.622   1.218   3.997
 2007HOH     H1 6226   1.678   1.275   4.050
 2007HOH     H2 6227   1.668   1.211   3.913
 2008HOH      O 6228   2.565   2.416   0.900
 2008HOH     H1 6229   2.491   2.477   0.899
 2008HOH     H2 6230   2.583   2.398   0.808
 2009HOH      O 6231   3.955   3.755   2.080
 2009HOH     H1 6232   3.999   3.762   1.995
 2009HOH     H2 6233   3.896   3.680   2.070
 2010HOH      O 6234   0.113   0.055   0.423
 2010HOH     H1 6235   0.036   0.012   0.386
 2010HOH     H2 6236   0.091   0.068   0.516
 2011HOH      O 6237   2.012   0.273   3.443
 2011HOH     H1 6238   1.990   0.182   3.427
 2011HOH     H2 6239   1.950   0.323   3.390
 2012HOH      O 6240   4.064   0.688   3.776
 2012HOH     H1 6241   4.016   0.732   3.706
 2012HOH     H2 6242   3.996   0.647   3.829
 2013HOH      O 6243   1.400   4.009   0.418
 2013HOH     H1 6244   1.370   3.994   0.508
 2013HOH     H2 6245   1.445   3.928   0.393
 2014HOH      O 6246   0.633   0.016   3.958
 2014HOH     H1 6247   0.676   0.085   3.907
 2014HOH     H2 6248   0.697  -0.055   3.962
 2015HOH      O 6249   2.741   1.120   0.287
 2015HOH     H1 6250   2.712   1.080   0.369
 2015HOH     H2 6251   2.666   1.173   0.258
 2016HOH      O 6252   3.411   1.908   2.094
 2016HOH     H1 6253   3.431   1.974   2.028
 2016HOH     H2 6254   3.328   1.936   2.132
 2017HOH      O 6255   2.878   3.178   0.408
 2017HOH     H1 6256   2.812   3.165   0.340
 2017HOH     H2 6257   2.961   3.163   0.364
 2018HOH      O 6258   3.020   1.115   0.874
 2018HOH     H1 6259   3.002   1.026   0.905
 2018HOH     H2 6260   2.989   1.116   0.783
 2019HOH      O 6261   3.646   1.912   2.901
 2019HOH     H1 6262   3.572   1.963   2.936
 2019HOH     H2 6263   3.661   1.951   2.814
 2020HOH      O 6264   0.563   2.190   3.738
 2020HOH     H1 6265   0.469   2.210   3.735
 2020HOH     H2 6266   0.567   2.100   3.769
 2021HOH      O 6267   0.676   1.520   3.221
 2021HOH     H1 6268   0.645   1.527   3.131
 2021HOH     H2 6269   0.741   1.589   3.230
 2022HOH      O 6270   2.127   1.450   1.314
 2022HOH     H1 6271   2.147   1.539   1.286
 2022HOH     H2 6272   2.202   1.398   1.285
 2023HOH      O 6273   3.066   1.903   2.827
 2023HOH     H1 6274   3.041   1.812   2.842
 2023HOH     H2 6275   3.161   1.904   2.837
 2024HOH      O 6276   3.339   0.012   1.774
 2024HOH     H1 6277   3.358   0.097   1.736
 2024HOH     H2 6278   3.246  -0.001   1.760
 2025HOH      O 6279   0.088   3.734   0.440
 2025HOH     H1 6280   0.180   3.707   0.443
 2025HOH     H2 6281   0.048   3.692   0.517
 2026HOH      O 6282   3.547   2.692   0.396
 2026HOH     H1 6283   3.517   2.604   0.373
 2026HOH     H2 6284   3.470   2.734   0.435
 2027HOH      O 6285   2.552   0.559   0.844
 2027HOH     H1 6286   2.571   0.528   0.756
 2027HOH     H2 6287   2.632   0.540   0.894
 2028HOH      O 6288   2.528   3.954   2.567
 2028HOH     H1 6289   2.489   3.889   2.509
 2028HOH     H2 6290   2.519   3.917   2.655
 2029HOH      O 6291   2.005   0.880   2.889
 2029HOH     H1 6292   1.980   0.967   2.918
 2029HOH     H2 6293   1.923   0.833   2.878
 2030HOH      O 6294   1.285   3.775   1.545
 2030HOH     H1 6295   1.244   3.851   1.587
 2030HOH     H2 6296   1.373   3.773   1.581
 2031HOH      O 6297   3.382   1.043   3.835
 2031HOH     H1 6298   3.387   1.035   3.930
 2031HOH     H2 6299   3.464   1.006   3.804
 2032HOH      O 6300   1.083   2.258   3.407
 2032HOH     H1 6301   1.011   2.260   3.470
 2032HOH     H2 6302   1.156   2.300   3.452
 2033HOH      O 6303   1.630   1.423   2.674
 2033HOH     H1 6304   1.570   1.380   2.613
 2033HOH     H2 6305   1.700   1.456   2.619
 2034HOH      O 6306   0.153   2.500   1.643
 2034HOH     H1 6307   0.144   2.594   1.625
 2034HOH     H2 6308   0.237   2.476   1.605
 2035HOH      O 6309   1.997   3.834   2.738
 2035HOH     H1 6310   2.022   3.920   2.772
 2035HOH     H2 6311   1.903   3.842   2.722
 2036HOH      O 6312   3.800   0.081   1.466
 2036HOH     H1 6313   3.857   0.128   1.527
 2036HOH     H2 6314   3.739   0.034   1.521
 2037HOH      O 6315   1.718   2.151   0.257
 2037HOH     H1 6316   1.629   2.138   0.289
 2037HOH     H2 6317   1.714   2.234   0.208
 2038HOH      O 6318   3.621   2.448   3.986
 2038HOH     H1 6319   3.546   2.492   4.028
 2038HOH     H2 6320   3.695   2.507   4.002
 2039HOH      O 6321   3.890   1.468   1.247
 2039HOH     H1 6322   3.870   1.560   1.232
 2039HOH     H2 6323   3.895   1.460   1.342
 2040HOH      O 6324   2.379   2.996   1.477
 2040HOH     H1 6325   2.303   2.991   1.535
 2040HOH     H2 6326   2.371   3.080   1.433
 2041HOH      O 6327   1.514   0.792   3.939
 2041HOH     H1 6328   1.557   0.841   3.868
 2041HOH     H2 6329   1.536   0.841   4.018
 2042HOH      O 6330   3.204   0.809   0.545
 2042HOH     H1 6331   3.239   0.804   0.634
 2042HOH     H2 6332   3.233   0.895   0.513
 2043HOH      O 6333   0.661   3.596   1.283
 2043HOH     H1 6334   0.657   3.501   1.297
 2043HOH     H2 6335   0.750   3.620   1.307
 2044HOH      O 6336   1.253   3.742   3.512
 2044HOH     H1 6337   1.298   3.660   3.533
 2044HOH     H2 6338   1.239   3.738   3.418
 2045HOH      O 6339   3.896   3.204   2.414
 2045HOH     H1 6340   3.960   3.162   2.471
 2045HOH     H2 6341   3.901   3.297   2.438
 2046HOH      O 6342   2.880   0.282   0.766
 2046HOH     H1 6343   2.816   0.321   0.826
 2046HOH     H2 6344   2.959   0.272   0.819
 2047HOH      O 6345   0.220   1.898   1.571
 2047HOH     H1 6346   0.172   1.880   1.490
 2047HOH     H2 6347   0.223   1.814   1.617
 2048HOH      O 6348   3.664   1.566   1.693
 2048HOH     H1 6349   3.726   1.538   1.626
 2048HOH     H2 6350   3.703   1.536   1.775
 2049HOH      O 6351   3.107   3.692   0.172
 2049HOH     H1 6352   3.166   3.703   0.247
 2049HOH     H2 6353   3.019   3.697   0.210
 2050HOH      O 6354   2.283   3.514   3.554
 2050HOH     H1 6355   2.233   3.435   3.577
 2050HOH     H2 6356   2.322   3.543   3.636
 2051HOH      O 6357   0.718   0.194   1.114
 2051HOH     H1 6358   0.625   0.171   1.120
 2051HOH     H2 6359   0.755   0.129   1.055
 2052HOH      O 6360   1.218   0.785   1.363
 2052HOH     H1 6361   1.157   0.841   1.315
 2052HOH     H2 6362   1.162   0.727   1.414
 2053HOH      O 6363   3.288   1.178   0.771
 2053HOH     H1 6364   3.196   1.184   0.794
 2053HOH     H2 6365   3.307   1.084   0.770
 2054HOH      O 6366   0.590   0.447   1.365
 2054HOH     H1 6367   0.517   0.405   1.318
 2054HOH     H2 6368   0.665   0.389   1.348
 2055HOH      O 6369   0.363   1.164   3.775
 2055HOH     H1 6370   0.353   1.076   3.738
 2055HOH     H2 6371   0.326   1.222   3.709
 2056HOH      O 6372   0.538   1.201   3.001
 2056HOH     H1 6373   0.537   1.233   3.091
 2056HOH     H2 6374   0.556   1.108   3.009
 2057HOH      O 6375   3.979   0.852   1.206
 2057HOH     H1 6376   3.956   0.921   1.269
 2057HOH     H2 6377   3.905   0.792   1.207
 2058HOH      O 6378   0.168   0.668   2.478
 2058HOH     H1 6379   0.167   0.703   2.388
 2058HOH     H2 6380   0.236   0.601   2.477
 2059HOH      O 6381   2.525   3.902   1.968
 2059HOH     H1 6382   2.448   3.887   1.913
 2059HOH     H2 6383   2.584   3.829   1.947
 2060HOH      O 6384   0.681   3.423   2.074
 2060HOH     H1 6385   0.636   3.465   2.147
 2060HOH     H2 6386   0.707   3.495   2.017
 2061HOH      O 6387   3.496   1.942   1.307
 2061HOH     H1 6388   3.456   1.863   1.271
 2061HOH     H2 6389   3.570   1.960   1.249
 2062HOH      O 6390   2.777   3.827   0.085
 2062HOH     H1 6391   2.835   3.895   0.118
 2062HOH     H2 6392   2.835   3.758   0.055
 2063HOH      O 6393   3.910   3.341   1.092
 2063HOH     H1 6394   3.875   3.252   1.087
 2063HOH     H2 6395   4.003   3.329   1.107
 2064HOH      O 6396   2.890   3.798   1.573
 2064HOH     H1 6397   2.863   3.884   1.604
 2064HOH     H2 6398   2.845   3.786   1.490
 2065HOH      O 6399   0.429   0.505   0.922
 2065HOH     H1 6400   0.411   0.475   1.010
 2065HOH     H2 6401   0.500   0.569   0.932
 2066HOH      O 6402   3.942   1.916   3.717
 2066HOH     H1 6403   3.909   1.934   3.805
 2066HOH     H2 6404   3.873   1.950   3.659
 2067HOH      O 6405   3.161   3.853   3.767
 2067HOH     H1 6406   3.147   3.926   3.827
 2067HOH     H2 6407   3.146   3.890   3.680
 2068HOH      O 6408   2.927   1.209   1.407
 2068HOH     H1 6409   2.995   1.189   1.342
 2068HOH     H2 6410   2.930   1.305   1.416
 2069HOH      O 6411   2.227   3.479   1.304
 2069HOH     H1 6412   2.305   3.529   1.325
 2069HOH     H2 6413   2.220   3.413   1.373
 2070HOH      O 6414   3.376   3.008   2.886
 2070HOH     H1 6415   3.361   3.080   2.947
 2070HOH     H2 6416   3.437   3.044   2.821
 2071HOH      O 6417   1.308   2.619   2.524
 2071HOH     H1 6418   1.314   2.537   2.475
 2071HOH     H2 6419   1.292   2.591   2.614
 2072HOH      O 6420   2.768   2.068   2.779
 2072HOH     H1 6421   2.751   2.000   2.844
 2072HOH     H2 6422   2.766   2.150   2.829
 2073HOH      O 6423   2.417   3.623   0.218
 2073HOH     H1 6424   2.351   3.562   0.251
 2073HOH     H2 6425   2.498   3.598   0.262
 2074HOH      O 6426   1.238   0.965   1.574
 2074HOH     H1 6427   1.276   0.914   1.645
 2074HOH     H2 6428   1.256   0.913   1.495
 2075HOH      O 6429   2.089   2.902   2.298
 2075HOH     H1 6430   2.006   2.942   2.323
 2075HOH     H2 6431   2.102   2.833   2.364
 2076HOH      O 6432   1.626   2.746   2.115
 2076HOH     H1 6433   1.665   2.707   2.037
 2076HOH     H2 6434   1.585   2.826   2.083
 2077HOH      O 6435   2.841   2.859   1.510
 2077HOH     H1 6436   2.896   2.926   1.470
 2077HOH     H2 6437   2.751   2.890   1.495
 2078HOH      O 6438   2.212   2.318   3.399
 2078HOH     H1 6439   2.138   2.284   3.449
 2078HOH     H2 6440   2.188   2.409   3.380
 2079HOH      O 6441   1.320   2.337   3.228
 2079HOH     H1 6442   1.333   2.294   3.313
 2079HOH     H2 6443   1.320   2.266   3.164
 2080HOH      O 6444   1.588   2.999   1.054
 2080HOH     H1 6445   1.539   3.033   1.130
 2080HOH     H2 6446   1.646   2.933   1.091
 2081HOH      O 6447   0.818   2.837   0.565
 2081HOH     H1 6448   0.805   2.752   0.522
 2081HOH     H2 6449   0.885   2.880   0.511
 2082HOH      O 6450   0.606   3.358   2.998
 2082HOH     H1 6451   0.684   3.358   2.944
 2082HOH     H2 6452   0.575   3.268   2.995
 2083HOH      O 6453   0.300   3.542   1.558
 2083HOH     H1 6454   0.325   3.591   1.479
 2083HOH     H2 6455   0.373   3.481   1.572
 2084HOH      O 6456   1.097   2.394   0.031
 2084HOH     H1 6457   1.122   2.305   0.055
 2084HOH     H2 6458   1.031   2.419   0.095
 2085HOH      O 6459   3.933   3.505   2.441
 2085HOH     H1 6460   3.968   3.594   2.437
 2085HOH     H2 6461   3.948   3.470   2.353
 2086HOH      O 6462   3.782   0.673   1.939
 2086HOH     H1 6463   3.687   0.671   1.949
 2086HOH     H2 6464   3.816   0.673   2.028
 2087HOH      O 6465   1.245   3.263   2.913
 2087HOH     H1 6466   1.277   3.343   2.874
 2087HOH     H2 6467   1.284   3.193   2.861
 2088HOH      O 6468   0.057   3.049   1.800
 2088HOH     H1 6469   0.051   2.956   1.820
 2088HOH     H2 6470   0.140   3.077   1.839
 2089HOH      O 6471   1.017   3.429   1.822
 2089HOH     H1 6472   1.043   3.414   1.731
 2089HOH     H2 6473   1.031   3.523   1.836
 2090HOH      O 6474   2.639   1.752   3.828
 2090HOH     H1 6475   2.561   1.780   3.780
 2090HOH     H2 6476   2.649   1.660   3.806
 2091HOH      O 6477   2.148   3.487   0.489
 2091HOH     H1 6478   2.200   3.462   0.413
 2091HOH     H2 6479   2.168   3.579   0.503
 2092HOH      O 6480   3.626   2.720   2.817
 2092HOH     H1 6481   3.602   2.686   2.731
 2092HOH     H2 6482   3.542   2.734   2.862
 2093HOH      O 6483   0.752   0.252   3.822
 2093HOH     H1 6484   0.809   0.286   3.891
 2093HOH     H2 6485   0.793   0.282   3.741
 2094HOH      O 6486   1.522   3.138   4.016
 2094HOH     H1 6487   1.549   3.077   3.947
 2094HOH     H2 6488   1.427   3.133   4.016
 2095HOH      O 6489   0.229   1.284   4.014
 2095HOH     H1 6490   0.206   1.236   4.093
 2095HOH     H2 6491   0.273   1.220   3.959
 2096HOH      O 6492   2.946   1.060   3.566
 2096HOH     H1 6493   2.906   1.141   3.534
 2096HOH     H2 6494   3.039   1.081   3.575
 2097HOH      O 6495   3.681   2.525   1.063
 2097HOH     H1 6496   3.673   2.439   1.104
 2097HOH     H2 6497   3.770   2.526   1.027
 2098HOH      O 6498   0.069   3.991   1.357
 2098HOH     H1 6499   0.000   3.946   1.308
 2098HOH     H2 6500   0.067   4.081   1.325
 2099HOH      O 6501   2.018   3.256   0.338
 2099HOH     H1 6502   2.008   3.271   0.244
 2099HOH     H2 6503   1.968   3.327   0.379
 2100HOH      O 6504   3.352   2.107   0.597
 2100HOH     H1 6505   3.277   2.056   0.628
 2100HOH     H2 6506   3.419   2.041   0.577
 2101HOH      O 6507   2.139   1.713   1.270
 2101HOH     H1 6508   2.151   1.714   1.175
 2101HOH     H2 6509   2.065   1.770   1.286
 2102HOH      O 6510   1.853   2.180   2.878
 2102HOH     H1 6511   1.932   2.226   2.909
 2102HOH     H2 6512   1.886   2.111   2.821
 2103HOH      O 6513   2.455   3.603   1.386
 2103HOH     H1 6514   2.549   3.603   1.370
 2103HOH     H2 6515   2.445   3.564   1.473
 2104HOH      O 6516   0.201   0.172   0.124
 2104HOH     H1 6517   0.259   0.164   0.200
 2104HOH     H2 6518   0.246   0.125   0.054
 2105HOH      O 6519   3.724   0.231   0.466
 2105HOH     H1 6520   3.798   0.227   0.406
 2105HOH     H2 6521   3.669   0.301   0.431
 2106HOH      O 6522   0.782   2.582   0.478
 2106HOH     H1 6523   0.746   2.518   0.540
 2106HOH     H2 6524   0.740   2.561   0.395
 2107HOH      O 6525   2.930   3.784   3.541
 2107HOH     H1 6526   3.014   3.780   3.496
 2107HOH     H2 6527   2.873   3.724   3.492
 2108HOH      O 6528   1.619   3.275   2.758
 2108HOH     H1 6529   1.582   3.224   2.686
 2108HOH     H2 6530   1.626   3.364   2.723
 2109HOH      O 6531   3.835   3.005   3.707
 2109HOH     H1 6532   3.764   2.967   3.759
 2109HOH     H2 6533   3.915   2.982   3.755
   4.04076   4.04076   4.04076   0.00000   0.00000   0.00000   0.00000   0.00000   0.00000
