Generated with MDTraj, t= 26534.0
 6533
    1MOL     C1    1  -0.235   3.253   2.062
    1MOL     C2    2  -0.118   3.202   2.016
    1MOL     C3    3  -0.002   3.270   2.050
    1MOL     C4    4  -0.002   3.364   2.153
    1MOL     C5    5  -0.125   3.399   2.214
    1MOL     C6    6  -0.239   3.341   2.167
    1MOL     C7    7   0.125   3.439   2.191
    1MOL     C8    8   0.203   3.357   2.301
    1MOL     N1    9   0.342   3.421   2.323
    1MOL     C9   10   0.337   3.567   2.361
    1MOL    C10   11   0.439   3.408   2.205
    1MOL    C11   12   0.408   3.343   2.434
    1MOL     H1   13   0.311   3.627   2.274
    1MOL     H2   14   0.431   3.593   2.410
    1MOL     H3   15   0.252   3.584   2.427
    1MOL     H4   16   0.452   3.303   2.180
    1MOL     H5   17   0.537   3.447   2.233
    1MOL     H6   18   0.393   3.463   2.123
    1MOL     H7   19   0.515   3.362   2.429
    1MOL     H8   20   0.389   3.236   2.423
    1MOL     H9   21   0.359   3.380   2.524
    1MOL    H10   22  -0.329   3.209   2.031
    1MOL    H11   23  -0.117   3.129   1.936
    1MOL    H12   24   0.091   3.259   1.996
    1MOL    H13   25  -0.137   3.476   2.290
    1MOL    H14   26  -0.334   3.375   2.206
    1MOL    H15   27   0.182   3.453   2.099
    1MOL    H16   28   0.093   3.537   2.226
    1MOL    H17   29   0.150   3.360   2.396
    1MOL    H18   30   0.213   3.251   2.280
    2OCB     C1   31   2.637   2.814   2.992
    2OCB     C2   32   2.660   3.073   2.878
    2OCB     C3   33   2.542   2.863   2.910
    2OCB     C4   34   2.744   2.901   3.022
    2OCB     C5   35   2.757   3.026   2.962
    2OCB     C6   36   2.549   2.994   2.852
    2OCB     O1   37   2.680   3.200   2.828
    2OCB     C7   38   2.438   3.052   2.765
    2OCB     C8   39   2.720   3.211   2.690
    2OCB     O2   40   2.602   3.230   2.605
    2OCB     C9   41   2.549   3.125   2.542
    2OCB    C10   42   2.465   3.033   2.612
    2OCB    C11   43   2.433   2.911   2.544
    2OCB    C12   44   2.589   3.098   2.411
    2OCB    C13   45   2.468   2.886   2.412
    2OCB    C14   46   2.552   2.977   2.350
    2OCB     O3   47   2.622   2.945   2.237
    2OCB    C15   48   2.430   2.754   2.338
    2OCB    C16   49   2.536   2.653   2.374
    2OCB    C17   50   2.649   2.637   2.290
    2OCB    C18   51   2.735   2.859   2.245
    2OCB     O4   52   2.689   2.731   2.199
    2OCB     O5   53   2.848   2.854   3.094
    2OCB    C19   54   2.622   2.677   3.049
    2OCB    C20   55   2.690   2.575   2.962
    2OCB     O6   56   2.902   2.633   3.051
    2OCB    C21   57   2.831   2.552   2.965
    2OCB    C22   58   2.731   2.527   2.313
    2OCB    C23   59   2.722   2.451   2.425
    2OCB    C24   60   2.897   2.474   2.864
    2OCB    C25   61   2.823   2.418   2.763
    2OCB     O7   62   2.822   2.359   2.446
    2OCB     O8   63   2.898   2.344   2.670
    2OCB    C26   64   2.924   2.404   2.540
    2OCB    C27   65   2.623   2.520   2.856
    2OCB    C28   66   2.681   2.440   2.754
    2OCB    C29   67   2.523   2.568   2.486
    2OCB    C30   68   2.606   2.379   2.636
    2OCB    C31   69   2.614   2.465   2.513
    2OCB    C32   70   2.941   2.772   3.018
    2OCB    C33   71   2.282   2.710   2.351
    2OCB    C34   72   2.179   2.811   2.294
    2OCB    C35   73   2.187   2.827   2.140
    2OCB     O9   74   2.128   2.922   2.086
    2OCB    C36   75   2.294   3.000   2.809
    2OCB    C37   76   2.172   3.067   2.740
    2OCB    C38   77   2.043   3.041   2.808
    2OCB    O10   78   2.017   3.089   2.915
    2OCB    C39   79   2.483   2.629   3.100
    2OCB    C40   80   2.415   2.732   3.191
    2OCB    C41   81   2.306   2.662   3.273
    2OCB    O11   82   2.320   2.643   3.392
    2OCB    C42   83   2.466   2.336   2.685
    2OCB    C43   84   2.369   2.287   2.576
    2OCB    C44   85   2.429   2.164   2.506
    2OCB    O12   86   2.456   2.068   2.574
    2OCB    C45   87   2.815   3.322   2.676
    2OCB    C46   88   3.011   3.523   2.640
    2OCB    C47   89   2.830   3.392   2.552
    2OCB    C48   90   2.910   3.351   2.779
    2OCB    C49   91   3.007   3.450   2.760
    2OCB    C50   92   2.921   3.496   2.538
    2OCB    C51   93   3.089   2.804   3.046
    2OCB    C52   94   3.364   2.836   3.035
    2OCB    C53   95   3.178   2.692   3.062
    2OCB    C54   96   3.146   2.928   3.035
    2OCB    C55   97   3.282   2.946   3.029
    2OCB    C56   98   3.317   2.708   3.056
    2OCB    C57   99   3.070   2.370   2.507
    2OCB    C58  100   3.336   2.303   2.434
    2OCB    C59  101   3.106   2.354   2.372
    2OCB    C60  102   3.170   2.360   2.612
    2OCB    C61  103   3.303   2.327   2.571
    2OCB    C62  104   3.238   2.330   2.336
    2OCB    C63  105   2.864   2.903   2.169
    2OCB    C64  106   3.103   3.000   2.064
    2OCB    C65  107   2.970   2.816   2.148
    2OCB    C66  108   2.884   3.042   2.141
    2OCB    C67  109   3.005   3.087   2.097
    2OCB    C68  110   3.089   2.865   2.087
    2OCB    O13  111   3.337   3.072   3.011
    2OCB    O14  112   3.409   2.312   2.666
    2OCB    O15  113   3.279   2.331   2.208
    2OCB    O16  114   3.105   3.479   2.850
    2OCB    O17  115   2.933   3.564   2.424
    2OCB    O18  116   3.197   2.783   2.048
    2OCB    O19  117   3.027   3.223   2.074
    2OCB    C69  118   3.401   2.333   2.803
    2OCB    C70  119   3.431   2.366   3.075
    2OCB    C71  120   3.383   2.462   2.858
    2OCB    C72  121   3.423   2.229   2.889
    2OCB    C73  122   3.435   2.239   3.028
    2OCB    C74  123   3.395   2.478   3.000
    2OCB    O20  124   3.401   2.601   3.067
    2OCB    C75  125   3.152   3.389   2.945
    2OCB    C76  126   3.214   3.219   3.155
    2OCB    C77  127   3.116   3.423   3.071
    2OCB    C78  128   3.223   3.271   2.917
    2OCB    C79  129   3.262   3.189   3.027
    2OCB    C80  130   3.142   3.334   3.182
    2OCB    C81  131   3.223   2.421   2.123
    2OCB    C82  132   3.103   2.599   1.930
    2OCB    C83  133   3.143   2.374   2.018
    2OCB    C84  134   3.246   2.563   2.128
    2OCB    C85  135   3.182   2.645   2.038
    2OCB    C86  136   3.086   2.463   1.917
    2OCB    C87  137   3.012   2.408   1.795
    2OCB    O21  138   2.977   2.481   1.708
    2OCB    C88  139   2.734   3.604   1.986
    2OCB    O22  140   2.710   3.720   2.017
    2OCB    C89  141   3.102   3.372   3.324
    2OCB    O23  142   3.089   3.492   3.347
    2OCB    O24  143   2.226   2.741   2.065
    2OCB    O25  144   2.437   2.163   2.386
    2OCB    O26  145   2.219   2.593   3.215
    2OCB    C90  146   3.468   2.124   3.130
    2OCB    O27  147   3.516   2.018   3.095
    2OCB    O28  148   2.709   3.567   1.876
    2OCB    O29  149   3.007   2.287   1.785
    2OCB    O30  150   3.444   2.134   3.250
    2OCB    O31  151   3.086   3.290   3.409
    2OCB    O32  152   1.950   2.985   2.757
    2OCB    C91  153   2.932   3.504   2.296
    2OCB    C92  154   2.872   3.401   2.047
    2OCB    C93  155   3.001   3.387   2.253
    2OCB    C94  156   2.839   3.568   2.216
    2OCB    C95  157   2.816   3.526   2.082
    2OCB    C96  158   2.962   3.336   2.131
    2OCB    C97  159   3.105   3.315   2.338
    2OCB    C98  160   3.279   3.232   2.777
    2OCB    C99  161   3.365   2.581   2.772
    2OCB      C  162   3.330   2.618   2.244
    2OCB     H1  163   2.457   2.797   2.898
    2OCB     H2  164   2.840   3.093   2.984
    2OCB     H3  165   2.425   3.159   2.782
    2OCB     H4  166   2.783   3.126   2.661
    2OCB     H5  167   2.381   2.834   2.601
    2OCB     H6  168   2.646   3.171   2.355
    2OCB     H7  169   2.452   2.774   2.233
    2OCB     H8  170   2.765   2.829   2.346
    2OCB     H9  171   2.688   2.676   3.136
    2OCB    H10  172   2.824   2.512   2.259
    2OCB    H11  173   3.005   2.462   2.854
    2OCB    H12  174   2.921   2.514   2.545
    2OCB    H13  175   2.518   2.549   2.849
    2OCB    H14  176   2.439   2.581   2.553
    2OCB    H15  177   2.642   2.278   2.613
    2OCB    H16  178   2.926   2.785   2.910
    2OCB    H17  179   2.264   2.622   2.288
    2OCB    H18  180   2.267   2.679   2.455
    2OCB    H19  181   2.079   2.789   2.333
    2OCB    H20  182   2.215   2.900   2.345
    2OCB    H21  183   2.284   3.016   2.916
    2OCB    H22  184   2.273   2.893   2.799
    2OCB    H23  185   2.182   3.175   2.730
    2OCB    H24  186   2.167   3.046   2.633
    2OCB    H25  187   2.415   2.597   3.021
    2OCB    H26  188   2.495   2.540   3.163
    2OCB    H27  189   2.494   2.765   3.258
    2OCB    H28  190   2.379   2.816   3.131
    2OCB    H29  191   2.485   2.254   2.755
    2OCB    H30  192   2.408   2.419   2.727
    2OCB    H31  193   2.270   2.270   2.620
    2OCB    H32  194   2.353   2.367   2.504
    2OCB    H33  195   3.096   3.590   2.631
    2OCB    H34  196   2.772   3.356   2.467
    2OCB    H35  197   2.909   3.294   2.872
    2OCB    H36  198   3.472   2.843   3.040
    2OCB    H37  199   3.138   2.592   3.077
    2OCB    H38  200   3.085   3.017   3.024
    2OCB    H39  201   3.437   2.280   2.403
    2OCB    H40  202   3.031   2.359   2.294
    2OCB    H41  203   3.141   2.376   2.715
    2OCB    H42  204   3.191   3.036   2.011
    2OCB    H43  205   2.961   2.710   2.167
    2OCB    H44  206   2.810   3.121   2.147
    2OCB    H45  207   3.449   2.375   3.182
    2OCB    H46  208   3.437   2.130   2.847
    2OCB    H47  209   3.247   3.159   3.239
    2OCB    H48  210   3.048   3.507   3.084
    2OCB    H49  211   3.046   2.669   1.871
    2OCB    H50  212   3.131   2.267   2.004
    2OCB    H51  213   2.844   3.344   1.959
    2OCB    H52  214   2.797   3.666   2.237
    2OCB    H53  215   3.064   3.217   2.364
    2OCB    H54  216   3.201   3.301   2.289
    2OCB    H55  217   3.112   3.366   2.434
    2OCB    H56  218   3.280   3.312   2.703
    2OCB    H57  219   3.386   3.211   2.780
    2OCB    H58  220   3.228   3.146   2.732
    2OCB    H59  221   3.406   2.673   2.816
    2OCB    H60  222   3.407   2.565   2.673
    2OCB    H61  223   3.259   2.604   2.760
    2OCB    H62  224   3.270   2.612   2.335
    2OCB    H63  225   3.426   2.566   2.252
    2OCB    H64  226   3.355   2.724   2.231
    3Na+    Na+  227   2.525   2.680   1.806
    4Na+    Na+  228   1.923   1.600   3.053
    5Na+    Na+  229   3.502   1.910   3.288
    6Na+    Na+  230   3.416   3.556   3.994
    7Na+    Na+  231   1.326   2.771   3.619
    8Na+    Na+  232   3.786   1.081   2.811
    9Na+    Na+  233   1.125   3.397   3.818
   10HOH      O  234   3.938   2.908   0.580
   10HOH     H1  235   4.000   2.915   0.653
   10HOH     H2  236   3.973   2.837   0.526
   11HOH      O  237   0.039   3.702   1.318
   11HOH     H1  238  -0.005   3.777   1.356
   11HOH     H2  239   0.105   3.739   1.259
   12HOH      O  240   3.977   1.085   3.254
   12HOH     H1  241   3.956   1.178   3.253
   12HOH     H2  242   3.925   1.049   3.326
   13HOH      O  243   3.899   1.268   3.919
   13HOH     H1  244   3.883   1.303   3.832
   13HOH     H2  245   3.830   1.203   3.932
   14HOH      O  246   3.824   3.857   2.143
   14HOH     H1  247   3.881   3.786   2.111
   14HOH     H2  248   3.835   3.926   2.078
   15HOH      O  249   3.621   2.563   0.913
   15HOH     H1  250   3.616   2.582   0.820
   15HOH     H2  251   3.704   2.601   0.941
   16HOH      O  252   2.271   1.954   3.513
   16HOH     H1  253   2.243   1.944   3.422
   16HOH     H2  254   2.270   2.048   3.528
   17HOH      O  255   0.954   1.340   2.462
   17HOH     H1  256   1.032   1.336   2.407
   17HOH     H2  257   0.884   1.366   2.403
   18HOH      O  258   2.516   2.351   2.189
   18HOH     H1  259   2.548   2.429   2.235
   18HOH     H2  260   2.494   2.289   2.259
   19HOH      O  261   0.049   1.059   1.275
   19HOH     H1  262   0.108   1.056   1.350
   19HOH     H2  263  -0.035   1.027   1.308
   20HOH      O  264   0.459   0.771   1.550
   20HOH     H1  265   0.471   0.722   1.631
   20HOH     H2  266   0.439   0.705   1.484
   21HOH      O  267   0.805   0.539   0.199
   21HOH     H1  268   0.864   0.614   0.211
   21HOH     H2  269   0.853   0.480   0.141
   22HOH      O  270   0.452   2.483   0.894
   22HOH     H1  271   0.364   2.521   0.894
   22HOH     H2  272   0.465   2.452   0.805
   23HOH      O  273   1.643   0.803   3.936
   23HOH     H1  274   1.693   0.878   3.903
   23HOH     H2  275   1.658   0.805   4.031
   24HOH      O  276   2.987   1.751   2.540
   24HOH     H1  277   2.971   1.750   2.634
   24HOH     H2  278   2.900   1.765   2.502
   25HOH      O  279   0.066   0.738   0.778
   25HOH     H1  280  -0.020   0.772   0.802
   25HOH     H2  281   0.121   0.816   0.767
   26HOH      O  282   2.263   2.766   0.322
   26HOH     H1  283   2.272   2.861   0.336
   26HOH     H2  284   2.252   2.756   0.228
   27HOH      O  285   1.184   2.411   1.373
   27HOH     H1  286   1.181   2.317   1.352
   27HOH     H2  287   1.270   2.424   1.411
   28HOH      O  288   2.038   0.601   1.255
   28HOH     H1  289   2.108   0.544   1.286
   28HOH     H2  290   1.958   0.553   1.276
   29HOH      O  291   1.170   0.237   2.210
   29HOH     H1  292   1.103   0.176   2.242
   29HOH     H2  293   1.121   0.308   2.169
   30HOH      O  294   3.012   1.125   2.826
   30HOH     H1  295   2.919   1.139   2.810
   30HOH     H2  296   3.017   1.095   2.917
   31HOH      O  297   0.633   3.387   2.975
   31HOH     H1  298   0.647   3.295   2.953
   31HOH     H2  299   0.540   3.394   2.994
   32HOH      O  300   0.095   3.629   3.737
   32HOH     H1  301   0.056   3.712   3.764
   32HOH     H2  302   0.081   3.571   3.812
   33HOH      O  303   2.571   0.314   3.475
   33HOH     H1  304   2.655   0.341   3.436
   33HOH     H2  305   2.596   0.255   3.546
   34HOH      O  306   3.177   1.356   3.936
   34HOH     H1  307   3.142   1.345   3.848
   34HOH     H2  308   3.227   1.438   3.932
   35HOH      O  309   2.019   2.560   1.859
   35HOH     H1  310   2.082   2.531   1.924
   35HOH     H2  311   1.977   2.636   1.899
   36HOH      O  312   3.737   2.300   2.353
   36HOH     H1  313   3.831   2.313   2.359
   36HOH     H2  314   3.727   2.218   2.305
   37HOH      O  315   3.064   1.910   0.624
   37HOH     H1  316   3.121   1.983   0.649
   37HOH     H2  317   3.029   1.935   0.538
   38HOH      O  318   1.885   1.589   1.201
   38HOH     H1  319   1.814   1.531   1.173
   38HOH     H2  320   1.850   1.677   1.188
   39HOH      O  321   3.132   3.931   2.611
   39HOH     H1  322   3.188   4.002   2.643
   39HOH     H2  323   3.163   3.853   2.657
   40HOH      O  324   3.471   0.054   2.445
   40HOH     H1  325   3.553   0.103   2.443
   40HOH     H2  326   3.490  -0.025   2.494
   41HOH      O  327   4.028   1.671   1.332
   41HOH     H1  328   4.016   1.584   1.295
   41HOH     H2  329   4.054   1.655   1.423
   42HOH      O  330   3.185   3.914   2.317
   42HOH     H1  331   3.167   3.907   2.411
   42HOH     H2  332   3.213   4.005   2.305
   43HOH      O  333   2.135   1.885   2.156
   43HOH     H1  334   2.202   1.816   2.151
   43HOH     H2  335   2.177   1.957   2.202
   44HOH      O  336   2.296   2.812   1.824
   44HOH     H1  337   2.324   2.903   1.840
   44HOH     H2  338   2.265   2.781   1.908
   45HOH      O  339   0.244   0.140   3.981
   45HOH     H1  340   0.274   0.086   4.055
   45HOH     H2  341   0.274   0.092   3.903
   46HOH      O  342   3.348   3.499   0.766
   46HOH     H1  343   3.431   3.503   0.814
   46HOH     H2  344   3.326   3.406   0.763
   47HOH      O  345   3.174   3.473   1.968
   47HOH     H1  346   3.132   3.390   1.989
   47HOH     H2  347   3.195   3.466   1.875
   48HOH      O  348   0.138   1.558  -0.002
   48HOH     H1  349   0.114   1.572   0.089
   48HOH     H2  350   0.208   1.621  -0.018
   49HOH      O  351   2.235   3.377   1.103
   49HOH     H1  352   2.218   3.283   1.099
   49HOH     H2  353   2.279   3.390   1.188
   50HOH      O  354   2.444   0.824   2.652
   50HOH     H1  355   2.435   0.912   2.615
   50HOH     H2  356   2.354   0.793   2.661
   51HOH      O  357   0.713   3.073   1.756
   51HOH     H1  358   0.690   2.980   1.761
   51HOH     H2  359   0.631   3.118   1.738
   52HOH      O  360   2.256   4.007   1.140
   52HOH     H1  361   2.223   4.043   1.057
   52HOH     H2  362   2.337   3.962   1.115
   53HOH      O  363   2.326   1.346   3.604
   53HOH     H1  364   2.373   1.322   3.524
   53HOH     H2  365   2.300   1.437   3.590
   54HOH      O  366   3.460   3.393   0.350
   54HOH     H1  367   3.537   3.363   0.397
   54HOH     H2  368   3.390   3.332   0.375
   55HOH      O  369   0.926   1.947   0.431
   55HOH     H1  370   0.943   1.856   0.454
   55HOH     H2  371   0.911   1.946   0.336
   56HOH      O  372   2.160   0.443   0.681
   56HOH     H1  373   2.095   0.404   0.623
   56HOH     H2  374   2.129   0.533   0.694
   57HOH      O  375   1.721   3.404   0.744
   57HOH     H1  376   1.733   3.309   0.757
   57HOH     H2  377   1.738   3.418   0.651
   58HOH      O  378   0.221   2.953   2.913
   58HOH     H1  379   0.306   2.971   2.953
   58HOH     H2  380   0.237   2.960   2.819
   59HOH      O  381   1.427   3.791   0.626
   59HOH     H1  382   1.372   3.867   0.605
   59HOH     H2  383   1.511   3.811   0.584
   60HOH      O  384   0.359   1.602   3.451
   60HOH     H1  385   0.419   1.603   3.525
   60HOH     H2  386   0.383   1.678   3.399
   61HOH      O  387   0.946   2.426   3.847
   61HOH     H1  388   0.861   2.421   3.803
   61HOH     H2  389   0.954   2.342   3.892
   62HOH      O  390   1.399   2.251   1.902
   62HOH     H1  391   1.480   2.208   1.931
   62HOH     H2  392   1.330   2.209   1.954
   63HOH      O  393   2.186   2.484   2.065
   63HOH     H1  394   2.205   2.454   2.154
   63HOH     H2  395   2.203   2.579   2.068
   64HOH      O  396   0.817   2.667   2.517
   64HOH     H1  397   0.905   2.640   2.542
   64HOH     H2  398   0.829   2.710   2.433
   65HOH      O  399   3.488   0.296   3.169
   65HOH     H1  400   3.453   0.245   3.242
   65HOH     H2  401   3.448   0.257   3.091
   66HOH      O  402   0.549   0.960   0.486
   66HOH     H1  403   0.572   1.020   0.558
   66HOH     H2  404   0.504   1.016   0.423
   67HOH      O  405   2.799   1.362   2.043
   67HOH     H1  406   2.739   1.397   1.977
   67HOH     H2  407   2.829   1.440   2.091
   68HOH      O  408   3.107   0.455   3.611
   68HOH     H1  409   3.160   0.518   3.659
   68HOH     H2  410   3.166   0.382   3.594
   69HOH      O  411   3.999   1.676   3.193
   69HOH     H1  412   4.083   1.635   3.170
   69HOH     H2  413   3.933   1.622   3.149
   70HOH      O  414   1.090   2.729   0.570
   70HOH     H1  415   1.098   2.727   0.474
   70HOH     H2  416   1.028   2.800   0.587
   71HOH      O  417   1.948   3.511   3.002
   71HOH     H1  418   2.009   3.446   3.038
   71HOH     H2  419   1.999   3.558   2.936
   72HOH      O  420   3.396   3.711   0.592
   72HOH     H1  421   3.390   3.637   0.652
   72HOH     H2  422   3.410   3.787   0.649
   73HOH      O  423   0.909   1.208   2.701
   73HOH     H1  424   0.887   1.270   2.770
   73HOH     H2  425   0.949   1.261   2.632
   74HOH      O  426   3.531   0.168   0.294
   74HOH     H1  427   3.462   0.219   0.252
   74HOH     H2  428   3.485   0.097   0.339
   75HOH      O  429   2.470   1.093   3.644
   75HOH     H1  430   2.390   1.143   3.626
   75HOH     H2  431   2.457   1.010   3.598
   76HOH      O  432   0.954   1.729   2.445
   76HOH     H1  433   1.022   1.708   2.381
   76HOH     H2  434   0.917   1.812   2.415
   77HOH      O  435   3.881   2.479   1.105
   77HOH     H1  436   3.806   2.492   1.163
   77HOH     H2  437   3.916   2.566   1.090
   78HOH      O  438   2.409   1.077   0.591
   78HOH     H1  439   2.435   0.993   0.628
   78HOH     H2  440   2.402   1.060   0.497
   79HOH      O  441   1.351   2.115   2.792
   79HOH     H1  442   1.322   2.024   2.780
   79HOH     H2  443   1.351   2.152   2.703
   80HOH      O  444   0.269   0.058   2.826
   80HOH     H1  445   0.243   0.126   2.764
   80HOH     H2  446   0.365   0.062   2.828
   81HOH      O  447   2.514   0.579   3.337
   81HOH     H1  448   2.453   0.521   3.383
   81HOH     H2  449   2.592   0.582   3.393
   82HOH      O  450   2.300   0.614   1.909
   82HOH     H1  451   2.261   0.593   1.825
   82HOH     H2  452   2.242   0.680   1.946
   83HOH      O  453   4.029   3.686   2.026
   83HOH     H1  454   4.103   3.686   1.965
   83HOH     H2  455   3.974   3.614   1.996
   84HOH      O  456   2.284   3.724   3.332
   84HOH     H1  457   2.358   3.682   3.376
   84HOH     H2  458   2.290   3.816   3.357
   85HOH      O  459   1.991   3.541   1.313
   85HOH     H1  460   1.998   3.540   1.217
   85HOH     H2  461   1.904   3.506   1.331
   86HOH      O  462   2.306   2.207   3.650
   86HOH     H1  463   2.279   2.260   3.575
   86HOH     H2  464   2.265   2.249   3.726
   87HOH      O  465   1.861   1.723   3.830
   87HOH     H1  466   1.825   1.802   3.871
   87HOH     H2  467   1.844   1.653   3.892
   88HOH      O  468   3.403   0.944   1.640
   88HOH     H1  469   3.455   0.964   1.562
   88HOH     H2  470   3.461   0.891   1.695
   89HOH      O  471   2.085   1.416   1.258
   89HOH     H1  472   2.053   1.347   1.199
   89HOH     H2  473   2.078   1.496   1.205
   90HOH      O  474   2.608   0.131   3.669
   90HOH     H1  475   2.680   0.091   3.718
   90HOH     H2  476   2.568   0.059   3.621
   91HOH      O  477   3.452   3.067   1.968
   91HOH     H1  478   3.486   3.125   1.900
   91HOH     H2  479   3.489   3.101   2.050
   92HOH      O  480   0.391   1.312   3.802
   92HOH     H1  481   0.413   1.285   3.713
   92HOH     H2  482   0.295   1.308   3.806
   93HOH      O  483   1.204   2.132   1.346
   93HOH     H1  484   1.171   2.089   1.425
   93HOH     H2  485   1.299   2.128   1.355
   94HOH      O  486   3.134   1.149   2.267
   94HOH     H1  487   3.192   1.090   2.218
   94HOH     H2  488   3.166   1.144   2.357
   95HOH      O  489   0.524   1.230   0.598
   95HOH     H1  490   0.609   1.270   0.619
   95HOH     H2  491   0.484   1.212   0.683
   96HOH      O  492   1.164   1.021   1.678
   96HOH     H1  493   1.176   1.108   1.716
   96HOH     H2  494   1.159   0.963   1.754
   97HOH      O  495   1.323   3.649   0.385
   97HOH     H1  496   1.349   3.686   0.470
   97HOH     H2  497   1.267   3.574   0.408
   98HOH      O  498   0.465   2.430   0.605
   98HOH     H1  499   0.409   2.473   0.541
   98HOH     H2  500   0.434   2.339   0.607
   99HOH      O  501   3.238   3.736   1.336
   99HOH     H1  502   3.172   3.668   1.331
   99HOH     H2  503   3.192   3.811   1.375
  100HOH      O  504   3.941   3.026   0.059
  100HOH     H1  505   3.850   3.019   0.087
  100HOH     H2  506   3.974   2.936   0.062
  101HOH      O  507   1.850   1.974   0.774
  101HOH     H1  508   1.831   1.914   0.702
  101HOH     H2  509   1.906   2.042   0.736
  102HOH      O  510   2.214   1.018   2.419
  102HOH     H1  511   2.119   1.034   2.425
  102HOH     H2  512   2.221   0.923   2.410
  103HOH      O  513   1.339   2.100   3.962
  103HOH     H1  514   1.388   2.036   3.911
  103HOH     H2  515   1.346   2.181   3.911
  104HOH      O  516   2.881   0.664   3.200
  104HOH     H1  517   2.925   0.599   3.255
  104HOH     H2  518   2.802   0.618   3.169
  105HOH      O  519   0.526   0.676   0.638
  105HOH     H1  520   0.611   0.668   0.682
  105HOH     H2  521   0.520   0.768   0.616
  106HOH      O  522   3.388   1.815   0.945
  106HOH     H1  523   3.348   1.728   0.940
  106HOH     H2  524   3.467   1.803   0.996
  107HOH      O  525   3.794   1.304   0.668
  107HOH     H1  526   3.864   1.309   0.603
  107HOH     H2  527   3.714   1.306   0.616
  108HOH      O  528   1.123   2.993   1.520
  108HOH     H1  529   1.157   3.062   1.577
  108HOH     H2  530   1.028   3.007   1.519
  109HOH      O  531   3.682   2.619   3.130
  109HOH     H1  532   3.592   2.607   3.100
  109HOH     H2  533   3.730   2.648   3.052
  110HOH      O  534   1.982   0.566   0.896
  110HOH     H1  535   1.991   0.635   0.962
  110HOH     H2  536   1.984   0.613   0.813
  111HOH      O  537   3.431   1.120   2.123
  111HOH     H1  538   3.374   1.124   2.046
  111HOH     H2  539   3.512   1.164   2.095
  112HOH      O  540   2.983   1.927   0.100
  112HOH     H1  541   2.901   1.956   0.062
  112HOH     H2  542   3.040   1.910   0.024
  113HOH      O  543   1.301   2.425   3.329
  113HOH     H1  544   1.241   2.352   3.348
  113HOH     H2  545   1.366   2.421   3.399
  114HOH      O  546   3.840   1.454   1.475
  114HOH     H1  547   3.857   1.519   1.544
  114HOH     H2  548   3.920   1.401   1.472
  115HOH      O  549   2.177   3.881   3.651
  115HOH     H1  550   2.197   3.877   3.745
  115HOH     H2  551   2.103   3.821   3.639
  116HOH      O  552   2.488   3.292   1.718
  116HOH     H1  553   2.466   3.251   1.634
  116HOH     H2  554   2.430   3.368   1.724
  117HOH      O  555   3.210   3.153   0.858
  117HOH     H1  556   3.190   3.060   0.849
  117HOH     H2  557   3.305   3.158   0.851
  118HOH      O  558   1.232   0.171   3.241
  118HOH     H1  559   1.178   0.211   3.172
  118HOH     H2  560   1.313   0.147   3.196
  119HOH      O  561   3.765   1.862   1.674
  119HOH     H1  562   3.677   1.897   1.661
  119HOH     H2  563   3.806   1.867   1.587
  120HOH      O  564   1.128   2.663   3.142
  120HOH     H1  565   1.124   2.568   3.143
  120HOH     H2  566   1.221   2.683   3.136
  121HOH      O  567   1.191   2.739   1.716
  121HOH     H1  568   1.224   2.816   1.670
  121HOH     H2  569   1.268   2.700   1.758
  122HOH      O  570   0.730   3.893   1.927
  122HOH     H1  571   0.762   3.806   1.951
  122HOH     H2  572   0.662   3.912   1.993
  123HOH      O  573   3.509   3.141   1.353
  123HOH     H1  574   3.449   3.215   1.350
  123HOH     H2  575   3.508   3.113   1.445
  124HOH      O  576   3.423   0.812   2.892
  124HOH     H1  577   3.388   0.732   2.853
  124HOH     H2  578   3.363   0.881   2.863
  125HOH      O  579   3.738   2.297   3.917
  125HOH     H1  580   3.716   2.219   3.968
  125HOH     H2  581   3.736   2.368   3.981
  126HOH      O  582   3.725   2.995   1.705
  126HOH     H1  583   3.773   2.913   1.696
  126HOH     H2  584   3.641   2.969   1.742
  127HOH      O  585   3.585   3.975   3.751
  127HOH     H1  586   3.499   3.957   3.714
  127HOH     H2  587   3.571   4.052   3.806
  128HOH      O  588   2.391   3.270   1.470
  128HOH     H1  589   2.339   3.192   1.490
  128HOH     H2  590   2.327   3.341   1.471
  129HOH      O  591   0.038   1.779   0.473
  129HOH     H1  592   0.126   1.771   0.512
  129HOH     H2  593  -0.021   1.761   0.546
  130HOH      O  594   2.698   2.952   3.998
  130HOH     H1  595   2.793   2.964   3.990
  130HOH     H2  596   2.676   2.891   3.927
  131HOH      O  597   2.974   2.777   3.336
  131HOH     H1  598   2.987   2.749   3.245
  131HOH     H2  599   2.973   2.873   3.332
  132HOH      O  600   1.732   3.561   3.633
  132HOH     H1  601   1.706   3.641   3.588
  132HOH     H2  602   1.788   3.515   3.569
  133HOH      O  603   2.628   3.324   0.293
  133HOH     H1  604   2.606   3.268   0.219
  133HOH     H2  605   2.574   3.290   0.365
  134HOH      O  606   1.743   1.213   1.037
  134HOH     H1  607   1.764   1.248   0.950
  134HOH     H2  608   1.691   1.134   1.018
  135HOH      O  609   0.149   2.673   0.635
  135HOH     H1  610   0.080   2.607   0.641
  135HOH     H2  611   0.139   2.725   0.715
  136HOH      O  612   2.205   1.189   1.604
  136HOH     H1  613   2.178   1.237   1.682
  136HOH     H2  614   2.234   1.257   1.543
  137HOH      O  615   1.798   0.072   2.168
  137HOH     H1  616   1.816  -0.019   2.190
  137HOH     H2  617   1.882   0.106   2.137
  138HOH      O  618   0.606   2.387   2.780
  138HOH     H1  619   0.612   2.384   2.875
  138HOH     H2  620   0.667   2.456   2.754
  139HOH      O  621   2.000   2.265   3.675
  139HOH     H1  622   2.007   2.268   3.579
  139HOH     H2  623   1.922   2.212   3.691
  140HOH      O  624   1.876   1.377   3.802
  140HOH     H1  625   1.885   1.282   3.795
  140HOH     H2  626   1.955   1.412   3.761
  141HOH      O  627   2.257   3.428   2.512
  141HOH     H1  628   2.283   3.427   2.604
  141HOH     H2  629   2.163   3.447   2.514
  142HOH      O  630   3.867   3.582   3.250
  142HOH     H1  631   3.917   3.574   3.331
  142HOH     H2  632   3.822   3.666   3.257
  143HOH      O  633   2.279   2.298   1.829
  143HOH     H1  634   2.253   2.367   1.891
  143HOH     H2  635   2.357   2.259   1.868
  144HOH      O  636   1.675   3.938   1.340
  144HOH     H1  637   1.697   3.859   1.389
  144HOH     H2  638   1.625   3.992   1.401
  145HOH      O  639   1.287   0.393   3.584
  145HOH     H1  640   1.327   0.392   3.496
  145HOH     H2  641   1.291   0.484   3.611
  146HOH      O  642   2.796   4.046   2.870
  146HOH     H1  643   2.812   3.976   2.933
  146HOH     H2  644   2.811   4.006   2.784
  147HOH      O  645   3.372   0.043   1.193
  147HOH     H1  646   3.385  -0.035   1.140
  147HOH     H2  647   3.281   0.069   1.176
  148HOH      O  648   2.686   1.100   0.160
  148HOH     H1  649   2.654   1.140   0.079
  148HOH     H2  650   2.690   1.173   0.222
  149HOH      O  651   1.043   0.273   1.090
  149HOH     H1  652   1.033   0.351   1.036
  149HOH     H2  653   1.091   0.211   1.035
  150HOH      O  654   2.985   3.013   0.387
  150HOH     H1  655   2.943   3.099   0.389
  150HOH     H2  656   3.064   3.024   0.438
  151HOH      O  657   3.013   2.526   1.151
  151HOH     H1  658   3.005   2.503   1.243
  151HOH     H2  659   2.935   2.579   1.133
  152HOH      O  660   2.246   0.024   1.426
  152HOH     H1  661   2.238  -0.017   1.339
  152HOH     H2  662   2.158   0.057   1.445
  153HOH      O  663   1.349   2.737   2.648
  153HOH     H1  664   1.273   2.782   2.685
  153HOH     H2  665   1.422   2.761   2.704
  154HOH      O  666   2.792   3.503   0.187
  154HOH     H1  667   2.719   3.445   0.209
  154HOH     H2  668   2.770   3.586   0.229
  155HOH      O  669   0.287   3.968   0.098
  155HOH     H1  670   0.340   3.894   0.071
  155HOH     H2  671   0.319   3.988   0.187
  156HOH      O  672  -0.017   2.557   2.300
  156HOH     H1  673   0.013   2.634   2.251
  156HOH     H2  674   0.047   2.489   2.280
  157HOH      O  675   2.441   2.366   0.224
  157HOH     H1  676   2.496   2.290   0.242
  157HOH     H2  677   2.452   2.383   0.130
  158HOH      O  678   1.755   3.002   1.766
  158HOH     H1  679   1.848   2.983   1.774
  158HOH     H2  680   1.746   3.045   1.681
  159HOH      O  681   2.222   2.813   3.751
  159HOH     H1  682   2.228   2.775   3.664
  159HOH     H2  683   2.140   2.864   3.749
  160HOH      O  684   2.644   0.937   1.111
  160HOH     H1  685   2.702   0.923   1.036
  160HOH     H2  686   2.703   0.941   1.186
  161HOH      O  687   1.970   1.506   3.332
  161HOH     H1  688   2.017   1.569   3.387
  161HOH     H2  689   2.027   1.429   3.330
  162HOH      O  690   0.529   0.546   0.181
  162HOH     H1  691   0.497   0.487   0.113
  162HOH     H2  692   0.624   0.542   0.175
  163HOH      O  693   1.926   1.223   2.142
  163HOH     H1  694   1.912   1.129   2.132
  163HOH     H2  695   1.957   1.233   2.232
  164HOH      O  696   2.109   3.142   3.885
  164HOH     H1  697   2.058   3.062   3.902
  164HOH     H2  698   2.046   3.201   3.843
  165HOH      O  699   2.132   4.018   1.987
  165HOH     H1  700   2.196   3.955   2.019
  165HOH     H2  701   2.184   4.081   1.937
  166HOH      O  702   1.329   0.512   0.130
  166HOH     H1  703   1.376   0.533   0.049
  166HOH     H2  704   1.299   0.597   0.163
  167HOH      O  705   2.067   0.312   1.375
  167HOH     H1  706   2.052   0.231   1.424
  167HOH     H2  707   1.980   0.340   1.348
  168HOH      O  708   3.701   3.810   3.254
  168HOH     H1  709   3.620   3.759   3.261
  168HOH     H2  710   3.722   3.810   3.161
  169HOH      O  711   0.549   1.432   3.269
  169HOH     H1  712   0.472   1.414   3.321
  169HOH     H2  713   0.521   1.421   3.178
  170HOH      O  714   0.077   3.914   2.843
  170HOH     H1  715   0.103   3.846   2.780
  170HOH     H2  716   0.144   3.982   2.832
  171HOH      O  717   2.205   1.258   0.515
  171HOH     H1  718   2.275   1.207   0.556
  171HOH     H2  719   2.125   1.230   0.561
  172HOH      O  720   2.887   1.551   0.975
  172HOH     H1  721   2.835   1.482   0.934
  172HOH     H2  722   2.889   1.622   0.911
  173HOH      O  723   0.170   3.684   0.520
  173HOH     H1  724   0.203   3.611   0.573
  173HOH     H2  725   0.154   3.646   0.434
  174HOH      O  726   3.802   3.501   0.467
  174HOH     H1  727   3.763   3.421   0.502
  174HOH     H2  728   3.889   3.475   0.438
  175HOH      O  729   3.038   2.403   3.270
  175HOH     H1  730   3.093   2.339   3.316
  175HOH     H2  731   3.082   2.487   3.286
  176HOH      O  732   3.563   1.907   1.445
  176HOH     H1  733   3.514   1.874   1.370
  176HOH     H2  734   3.654   1.905   1.417
  177HOH      O  735   0.762   0.246   2.874
  177HOH     H1  736   0.798   0.267   2.788
  177HOH     H2  737   0.835   0.204   2.921
  178HOH      O  738   2.250   2.176   0.128
  178HOH     H1  739   2.306   2.211   0.198
  178HOH     H2  740   2.164   2.213   0.146
  179HOH      O  741   3.885   1.779   0.756
  179HOH     H1  742   3.927   1.698   0.787
  179HOH     H2  743   3.881   1.834   0.834
  180HOH      O  744   0.367   2.935   0.772
  180HOH     H1  745   0.446   2.888   0.744
  180HOH     H2  746   0.400   3.000   0.835
  181HOH      O  747   3.229   3.875   3.471
  181HOH     H1  748   3.255   3.803   3.413
  181HOH     H2  749   3.166   3.836   3.531
  182HOH      O  750   1.400   0.996   2.589
  182HOH     H1  751   1.393   0.901   2.577
  182HOH     H2  752   1.435   1.005   2.678
  183HOH      O  753   3.324   1.697   0.399
  183HOH     H1  754   3.306   1.718   0.491
  183HOH     H2  755   3.304   1.777   0.351
  184HOH      O  756   1.989   3.248   0.460
  184HOH     H1  757   2.028   3.333   0.442
  184HOH     H2  758   2.027   3.222   0.545
  185HOH      O  759   1.708   2.139   0.548
  185HOH     H1  760   1.683   2.194   0.474
  185HOH     H2  761   1.791   2.176   0.578
  186HOH      O  762   0.743   2.382   3.658
  186HOH     H1  763   0.718   2.461   3.610
  186HOH     H2  764   0.689   2.312   3.620
  187HOH      O  765   2.559   2.200   1.976
  187HOH     H1  766   2.508   2.122   1.996
  187HOH     H2  767   2.537   2.261   2.047
  188HOH      O  768   1.659   0.801   0.346
  188HOH     H1  769   1.718   0.852   0.290
  188HOH     H2  770   1.585   0.861   0.363
  189HOH      O  771   0.056   0.743   3.556
  189HOH     H1  772   0.116   0.785   3.618
  189HOH     H2  773   0.020   0.668   3.604
  190HOH      O  774   2.629   3.974   0.156
  190HOH     H1  775   2.718   3.938   0.162
  190HOH     H2  776   2.640   4.068   0.170
  191HOH      O  777   0.837   2.695   1.363
  191HOH     H1  778   0.838   2.643   1.283
  191HOH     H2  779   0.929   2.708   1.385
  192HOH      O  780   1.404   2.308   1.007
  192HOH     H1  781   1.485   2.294   0.959
  192HOH     H2  782   1.339   2.326   0.940
  193HOH      O  783   3.184   1.720   4.006
  193HOH     H1  784   3.252   1.787   4.016
  193HOH     H2  785   3.218   1.645   4.054
  194HOH      O  786   1.329   0.004   0.569
  194HOH     H1  787   1.377   0.061   0.628
  194HOH     H2  788   1.341   0.044   0.483
  195HOH      O  789   0.452   2.140   1.873
  195HOH     H1  790   0.389   2.192   1.823
  195HOH     H2  791   0.414   2.135   1.961
  196HOH      O  792   3.885   2.477   1.941
  196HOH     H1  793   3.838   2.526   2.008
  196HOH     H2  794   3.841   2.391   1.939
  197HOH      O  795   0.485   1.908   2.729
  197HOH     H1  796   0.416   1.966   2.698
  197HOH     H2  797   0.513   1.860   2.651
  198HOH      O  798   2.016   3.557   1.053
  198HOH     H1  799   2.081   3.620   1.022
  198HOH     H2  800   2.066   3.476   1.067
  199HOH      O  801   1.366   3.998   3.491
  199HOH     H1  802   1.320   4.039   3.564
  199HOH     H2  803   1.459   4.019   3.507
  200HOH      O  804   3.191   1.522   3.312
  200HOH     H1  805   3.243   1.509   3.391
  200HOH     H2  806   3.209   1.444   3.258
  201HOH      O  807   1.175   0.355   2.482
  201HOH     H1  808   1.179   0.300   2.404
  201HOH     H2  809   1.259   0.342   2.526
  202HOH      O  810   0.411   0.647   1.297
  202HOH     H1  811   0.393   0.702   1.221
  202HOH     H2  812   0.324   0.627   1.333
  203HOH      O  813   3.987   2.145   2.717
  203HOH     H1  814   3.897   2.158   2.747
  203HOH     H2  815   3.987   2.056   2.681
  204HOH      O  816   1.631   0.680   0.869
  204HOH     H1  817   1.640   0.673   0.774
  204HOH     H2  818   1.580   0.604   0.895
  205HOH      O  819   2.672   0.840   3.806
  205HOH     H1  820   2.670   0.744   3.804
  205HOH     H2  821   2.702   0.862   3.894
  206HOH      O  822   2.596   1.608   3.261
  206HOH     H1  823   2.533   1.672   3.294
  206HOH     H2  824   2.660   1.598   3.332
  207HOH      O  825   0.109   0.281   1.371
  207HOH     H1  826   0.107   0.350   1.437
  207HOH     H2  827   0.017   0.260   1.356
  208HOH      O  828   3.956   2.579   0.867
  208HOH     H1  829   3.932   2.503   0.815
  208HOH     H2  830   3.903   2.650   0.831
  209HOH      O  831   0.693   2.948   0.725
  209HOH     H1  832   0.679   2.878   0.789
  209HOH     H2  833   0.730   3.020   0.775
  210HOH      O  834   1.357   3.271   0.607
  210HOH     H1  835   1.396   3.351   0.644
  210HOH     H2  836   1.330   3.297   0.519
  211HOH      O  837   1.603   3.944   3.053
  211HOH     H1  838   1.528   3.923   3.108
  211HOH     H2  839   1.649   4.014   3.099
  212HOH      O  840   1.797   3.606   3.964
  212HOH     H1  841   1.724   3.660   3.992
  212HOH     H2  842   1.757   3.523   3.936
  213HOH      O  843   3.690   2.175   0.638
  213HOH     H1  844   3.713   2.109   0.572
  213HOH     H2  845   3.662   2.123   0.713
  214HOH      O  846   1.506   2.312   3.829
  214HOH     H1  847   1.567   2.386   3.820
  214HOH     H2  848   1.421   2.349   3.808
  215HOH      O  849   2.640   0.580   3.755
  215HOH     H1  850   2.660   0.538   3.839
  215HOH     H2  851   2.555   0.544   3.730
  216HOH      O  852   0.570   1.030   1.993
  216HOH     H1  853   0.576   1.046   2.087
  216HOH     H2  854   0.554   0.935   1.986
  217HOH      O  855   1.258   2.049   1.087
  217HOH     H1  856   1.343   2.092   1.076
  217HOH     H2  857   1.229   2.075   1.174
  218HOH      O  858   0.167   3.118   0.256
  218HOH     H1  859   0.163   3.030   0.221
  218HOH     H2  860   0.260   3.133   0.272
  219HOH      O  861   0.507   1.969   3.834
  219HOH     H1  862   0.507   2.042   3.771
  219HOH     H2  863   0.417   1.936   3.831
  220HOH      O  864   2.082   2.143   3.152
  220HOH     H1  865   2.142   2.167   3.082
  220HOH     H2  866   2.008   2.101   3.106
  221HOH      O  867   0.371   2.744   2.699
  221HOH     H1  868   0.327   2.700   2.772
  221HOH     H2  869   0.461   2.710   2.701
  222HOH      O  870   0.051   2.403   3.679
  222HOH     H1  871   0.107   2.458   3.624
  222HOH     H2  872   0.004   2.347   3.617
  223HOH      O  873   0.995   1.878   1.000
  223HOH     H1  874   1.012   1.963   1.040
  223HOH     H2  875   0.915   1.848   1.042
  224HOH      O  876   2.992   2.952   0.016
  224HOH     H1  877   2.999   2.903   0.098
  224HOH     H2  878   3.041   2.898  -0.047
  225HOH      O  879   3.596   0.365   3.780
  225HOH     H1  880   3.535   0.392   3.711
  225HOH     H2  881   3.682   0.367   3.737
  226HOH      O  882   3.547   0.583   2.024
  226HOH     H1  883   3.453   0.580   2.003
  226HOH     H2  884   3.570   0.675   2.015
  227HOH      O  885   3.617   1.746   3.146
  227HOH     H1  886   3.595   1.713   3.058
  227HOH     H2  887   3.668   1.676   3.185
  228HOH      O  888   1.046   0.270   2.721
  228HOH     H1  889   1.079   0.325   2.649
  228HOH     H2  890   1.053   0.326   2.799
  229HOH      O  891   3.671   3.218   3.667
  229HOH     H1  892   3.740   3.278   3.639
  229HOH     H2  893   3.601   3.231   3.604
  230HOH      O  894   1.302   0.802   0.067
  230HOH     H1  895   1.294   0.889   0.027
  230HOH     H2  896   1.303   0.742  -0.008
  231HOH      O  897   3.223   2.218   3.368
  231HOH     H1  898   3.199   2.127   3.387
  231HOH     H2  899   3.298   2.210   3.309
  232HOH      O  900   1.295   3.412   1.595
  232HOH     H1  901   1.203   3.411   1.571
  232HOH     H2  902   1.295   3.422   1.690
  233HOH      O  903   1.657   0.792   1.525
  233HOH     H1  904   1.676   0.699   1.538
  233HOH     H2  905   1.640   0.825   1.613
  234HOH      O  906   0.332   1.575   2.399
  234HOH     H1  907   0.397   1.633   2.438
  234HOH     H2  908   0.379   1.494   2.381
  235HOH      O  909   3.023   0.942   0.184
  235HOH     H1  910   3.051   0.963   0.273
  235HOH     H2  911   3.044   1.021   0.134
  236HOH      O  912   2.966   3.782   0.524
  236HOH     H1  913   2.976   3.728   0.603
  236HOH     H2  914   3.031   3.852   0.535
  237HOH      O  915   1.098   2.281   1.699
  237HOH     H1  916   1.069   2.371   1.683
  237HOH     H2  917   1.113   2.277   1.793
  238HOH      O  918   1.076   3.067   2.680
  238HOH     H1  919   1.104   3.057   2.589
  238HOH     H2  920   0.984   3.042   2.680
  239HOH      O  921   0.013   2.766   0.054
  239HOH     H1  922   0.018   2.679   0.015
  239HOH     H2  923   0.100   2.781   0.091
  240HOH      O  924   1.996   3.869   1.044
  240HOH     H1  925   2.024   3.949   1.000
  240HOH     H2  926   1.994   3.892   1.137
  241HOH      O  927   3.632   2.955   2.188
  241HOH     H1  928   3.691   2.953   2.263
  241HOH     H2  929   3.575   3.030   2.204
  242HOH      O  930   0.453   3.989   1.840
  242HOH     H1  931   0.483   3.970   1.929
  242HOH     H2  932   0.518   4.050   1.805
  243HOH      O  933   0.610   2.164   3.532
  243HOH     H1  934   0.641   2.080   3.500
  243HOH     H2  935   0.526   2.177   3.488
  244HOH      O  936   0.472   3.455   0.411
  244HOH     H1  937   0.539   3.399   0.450
  244HOH     H2  938   0.422   3.488   0.485
  245HOH      O  939   1.244   2.479   0.840
  245HOH     H1  940   1.249   2.446   0.750
  245HOH     H2  941   1.236   2.574   0.830
  246HOH      O  942   3.073   0.237   3.020
  246HOH     H1  943   3.134   0.163   3.028
  246HOH     H2  944   3.095   0.277   2.936
  247HOH      O  945   2.760   1.548   2.246
  247HOH     H1  946   2.703   1.599   2.188
  247HOH     H2  947   2.845   1.590   2.238
  248HOH      O  948   0.290   3.870   1.671
  248HOH     H1  949   0.268   3.939   1.608
  248HOH     H2  950   0.360   3.908   1.724
  249HOH      O  951   1.792   1.052   3.338
  249HOH     H1  952   1.807   1.037   3.432
  249HOH     H2  953   1.796   1.147   3.327
  250HOH      O  954   1.105   1.365   1.854
  250HOH     H1  955   1.122   1.446   1.903
  250HOH     H2  956   1.177   1.360   1.791
  251HOH      O  957   3.700   1.487   2.501
  251HOH     H1  958   3.668   1.440   2.578
  251HOH     H2  959   3.621   1.522   2.460
  252HOH      O  960   0.084   2.210   3.399
  252HOH     H1  961   0.040   2.285   3.359
  252HOH     H2  962   0.012   2.153   3.427
  253HOH      O  963   1.788   1.496   0.016
  253HOH     H1  964   1.863   1.498   0.075
  253HOH     H2  965   1.823   1.463  -0.067
  254HOH      O  966   1.762   2.332   2.560
  254HOH     H1  967   1.713   2.350   2.640
  254HOH     H2  968   1.825   2.264   2.586
  255HOH      O  969   1.987   3.322   2.169
  255HOH     H1  970   1.931   3.245   2.169
  255HOH     H2  971   2.070   3.293   2.130
  256HOH      O  972   0.054   1.599   0.260
  256HOH     H1  973   0.001   1.670   0.223
  256HOH     H2  974   0.059   1.620   0.353
  257HOH      O  975   3.748   2.639   0.368
  257HOH     H1  976   3.778   2.665   0.280
  257HOH     H2  977   3.654   2.654   0.367
  258HOH      O  978   2.012   2.214   2.512
  258HOH     H1  979   2.045   2.256   2.591
  258HOH     H2  980   2.049   2.126   2.515
  259HOH      O  981   2.799   0.393   0.943
  259HOH     H1  982   2.744   0.464   0.911
  259HOH     H2  983   2.756   0.364   1.024
  260HOH      O  984   3.907   0.320   3.695
  260HOH     H1  985   3.877   0.243   3.647
  260HOH     H2  986   3.971   0.286   3.758
  261HOH      O  987   3.499   0.628   2.390
  261HOH     H1  988   3.431   0.671   2.441
  261HOH     H2  989   3.455   0.604   2.308
  262HOH      O  990   3.505   0.624   1.702
  262HOH     H1  991   3.508   0.637   1.607
  262HOH     H2  992   3.584   0.574   1.722
  263HOH      O  993   1.689   2.350   2.300
  263HOH     H1  994   1.734   2.340   2.384
  263HOH     H2  995   1.754   2.393   2.244
  264HOH      O  996   3.370   3.636   0.336
  264HOH     H1  997   3.400   3.547   0.351
  264HOH     H2  998   3.392   3.682   0.417
  265HOH      O  999   1.669   1.783   0.046
  265HOH     H1 1000   1.718   1.701   0.047
  265HOH     H2 1001   1.614   1.779   0.124
  266HOH      O 1002   1.364   0.054   0.304
  266HOH     H1 1003   1.339   0.010   0.223
  266HOH     H2 1004   1.293   0.116   0.321
  267HOH      O 1005   2.093   1.552   3.835
  267HOH     H1 1006   2.172   1.570   3.785
  267HOH     H2 1007   2.040   1.631   3.826
  268HOH      O 1008   0.910   3.969   1.159
  268HOH     H1 1009   0.984   3.927   1.203
  268HOH     H2 1010   0.851   3.995   1.230
  269HOH      O 1011   3.633   1.453   3.279
  269HOH     H1 1012   3.553   1.493   3.312
  269HOH     H2 1013   3.617   1.359   3.286
  270HOH      O 1014   1.634   0.520   1.583
  270HOH     H1 1015   1.541   0.541   1.596
  270HOH     H2 1016   1.633   0.444   1.525
  271HOH      O 1017   1.001   1.510   3.372
  271HOH     H1 1018   0.918   1.517   3.324
  271HOH     H2 1019   0.975   1.493   3.463
  272HOH      O 1020   1.308   4.019   4.063
  272HOH     H1 1021   1.317   4.105   4.023
  272HOH     H2 1022   1.237   3.977   4.014
  273HOH      O 1023   3.496   3.171   2.226
  273HOH     H1 1024   3.528   3.185   2.316
  273HOH     H2 1025   3.454   3.253   2.202
  274HOH      O 1026   0.997   1.199   1.380
  274HOH     H1 1027   1.034   1.247   1.455
  274HOH     H2 1028   1.063   1.132   1.361
  275HOH      O 1029   3.559   1.841   3.503
  275HOH     H1 1030   3.502   1.834   3.580
  275HOH     H2 1031   3.639   1.795   3.528
  276HOH      O 1032   0.058   0.305   2.107
  276HOH     H1 1033   0.076   0.250   2.031
  276HOH     H2 1034   0.003   0.251   2.163
  277HOH      O 1035   3.643   2.938   0.736
  277HOH     H1 1036   3.705   2.911   0.803
  277HOH     H2 1037   3.689   2.922   0.653
  278HOH      O 1038   2.533   0.025   1.977
  278HOH     H1 1039   2.485   0.088   1.925
  278HOH     H2 1040   2.508   0.044   2.068
  279HOH      O 1041   1.166   1.261   2.117
  279HOH     H1 1042   1.139   1.258   2.025
  279HOH     H2 1043   1.142   1.350   2.146
  280HOH      O 1044   1.944   4.068   1.416
  280HOH     H1 1045   1.936   3.977   1.388
  280HOH     H2 1046   1.928   4.066   1.510
  281HOH      O 1047   0.558   3.918   2.106
  281HOH     H1 1048   0.512   3.973   2.169
  281HOH     H2 1049   0.630   3.880   2.156
  282HOH      O 1050   0.527   1.323   2.177
  282HOH     H1 1051   0.557   1.250   2.232
  282HOH     H2 1052   0.433   1.307   2.167
  283HOH      O 1053   3.831   2.757   1.658
  283HOH     H1 1054   3.912   2.724   1.698
  283HOH     H2 1055   3.779   2.679   1.640
  284HOH      O 1056   3.803   1.572   0.189
  284HOH     H1 1057   3.797   1.667   0.198
  284HOH     H2 1058   3.870   1.559   0.121
  285HOH      O 1059   2.471   0.146   1.290
  285HOH     H1 1060   2.422   0.143   1.372
  285HOH     H2 1061   2.419   0.094   1.229
  286HOH      O 1062   3.374   2.931   0.157
  286HOH     H1 1063   3.317   2.865   0.117
  286HOH     H2 1064   3.411   2.979   0.083
  287HOH      O 1065   0.504   2.214   3.235
  287HOH     H1 1066   0.487   2.285   3.173
  287HOH     H2 1067   0.441   2.228   3.306
  288HOH      O 1068  -0.037   2.090   2.424
  288HOH     H1 1069   0.019   2.020   2.390
  288HOH     H2 1070   0.023   2.162   2.441
  289HOH      O 1071   0.022   0.292   3.938
  289HOH     H1 1072   0.107   0.251   3.956
  289HOH     H2 1073  -0.039   0.248   3.998
  290HOH      O 1074   3.106   2.323   0.231
  290HOH     H1 1075   3.110   2.277   0.147
  290HOH     H2 1076   3.136   2.411   0.212
  291HOH      O 1077   0.129   1.342   3.863
  291HOH     H1 1078   0.050   1.306   3.905
  291HOH     H2 1079   0.166   1.400   3.929
  292HOH      O 1080   1.711   0.260   0.383
  292HOH     H1 1081   1.723   0.288   0.474
  292HOH     H2 1082   1.740   0.169   0.381
  293HOH      O 1083   1.855   0.562   1.750
  293HOH     H1 1084   1.799   0.513   1.691
  293HOH     H2 1085   1.900   0.626   1.694
  294HOH      O 1086   3.874   1.108   0.266
  294HOH     H1 1087   3.841   1.190   0.304
  294HOH     H2 1088   3.967   1.107   0.289
  295HOH      O 1089   2.022   0.716   0.657
  295HOH     H1 1090   2.114   0.737   0.668
  295HOH     H2 1091   2.005   0.728   0.563
  296HOH      O 1092   0.778   1.573   3.199
  296HOH     H1 1093   0.765   1.631   3.124
  296HOH     H2 1094   0.692   1.533   3.214
  297HOH      O 1095   2.041   1.503   0.109
  297HOH     H1 1096   2.098   1.500   0.033
  297HOH     H2 1097   2.063   1.425   0.159
  298HOH      O 1098   3.485   1.930   1.701
  298HOH     H1 1099   3.395   1.962   1.704
  298HOH     H2 1100   3.508   1.931   1.608
  299HOH      O 1101   0.553   3.834   3.318
  299HOH     H1 1102   0.637   3.790   3.331
  299HOH     H2 1103   0.490   3.781   3.368
  300HOH      O 1104   3.003   0.166   2.753
  300HOH     H1 1105   2.988   0.112   2.676
  300HOH     H2 1106   2.957   0.120   2.824
  301HOH      O 1107   1.981   1.141   3.071
  301HOH     H1 1108   1.933   1.062   3.047
  301HOH     H2 1109   2.072   1.121   3.050
  302HOH      O 1110   3.232   0.221   3.510
  302HOH     H1 1111   3.191   0.240   3.426
  302HOH     H2 1112   3.324   0.206   3.488
  303HOH      O 1113   0.921   3.727   0.054
  303HOH     H1 1114   0.982   3.727   0.128
  303HOH     H2 1115   0.921   3.636   0.023
  304HOH      O 1116   1.237   2.523   0.061
  304HOH     H1 1117   1.199   2.603   0.098
  304HOH     H2 1118   1.178   2.453   0.089
  305HOH      O 1119   0.528   2.006   0.170
  305HOH     H1 1120   0.446   2.052   0.155
  305HOH     H2 1121   0.501   1.921   0.204
  306HOH      O 1122   1.058   3.245   1.728
  306HOH     H1 1123   1.063   3.313   1.795
  306HOH     H2 1124   0.996   3.182   1.762
  307HOH      O 1125   2.119   0.229   3.327
  307HOH     H1 1126   2.093   0.261   3.241
  307HOH     H2 1127   2.052   0.264   3.386
  308HOH      O 1128   1.986   3.441   2.474
  308HOH     H1 1129   1.941   3.403   2.398
  308HOH     H2 1130   1.957   3.386   2.548
  309HOH      O 1131   0.914   1.039   3.988
  309HOH     H1 1132   0.952   1.023   3.902
  309HOH     H2 1133   0.847   1.105   3.973
  310HOH      O 1134   3.103   1.425   1.100
  310HOH     H1 1135   3.078   1.339   1.133
  310HOH     H2 1136   3.022   1.462   1.065
  311HOH      O 1137   2.462   3.587   1.029
  311HOH     H1 1138   2.479   3.498   1.001
  311HOH     H2 1139   2.368   3.600   1.013
  312HOH      O 1140   3.691   3.968   1.728
  312HOH     H1 1141   3.691   4.003   1.817
  312HOH     H2 1142   3.599   3.947   1.710
  313HOH      O 1143   2.710   1.495   3.543
  313HOH     H1 1144   2.783   1.518   3.486
  313HOH     H2 1145   2.730   1.539   3.626
  314HOH      O 1146   0.289   0.466   1.036
  314HOH     H1 1147   0.370   0.462   1.086
  314HOH     H2 1148   0.313   0.509   0.954
  315HOH      O 1149   0.840   2.969   2.797
  315HOH     H1 1150   0.822   2.874   2.797
  315HOH     H2 1151   0.765   3.007   2.843
  316HOH      O 1152   0.449   2.365   1.517
  316HOH     H1 1153   0.534   2.409   1.518
  316HOH     H2 1154   0.464   2.284   1.469
  317HOH      O 1155   1.673   0.072   0.036
  317HOH     H1 1156   1.608   0.142   0.028
  317HOH     H2 1157   1.724   0.077  -0.045
  318HOH      O 1158   1.472  -0.006   2.671
  318HOH     H1 1159   1.459   0.062   2.604
  318HOH     H2 1160   1.556   0.016   2.712
  319HOH      O 1161   1.499   3.312   2.998
  319HOH     H1 1162   1.583   3.267   3.010
  319HOH     H2 1163   1.522   3.405   2.995
  320HOH      O 1164   4.021   2.139   3.860
  320HOH     H1 1165   4.014   2.055   3.815
  320HOH     H2 1166   3.965   2.198   3.810
  321HOH      O 1167   3.495   3.144   0.792
  321HOH     H1 1168   3.506   3.131   0.886
  321HOH     H2 1169   3.528   3.064   0.752
  322HOH      O 1170   1.433   0.222   1.070
  322HOH     H1 1171   1.414   0.245   1.161
  322HOH     H2 1172   1.473   0.136   1.075
  323HOH      O 1173   3.389   3.019   3.588
  323HOH     H1 1174   3.360   2.929   3.572
  323HOH     H2 1175   3.425   3.048   3.504
  324HOH      O 1176   2.974   3.828   2.940
  324HOH     H1 1177   2.955   3.781   3.022
  324HOH     H2 1178   2.918   3.785   2.875
  325HOH      O 1179   0.442   2.993   3.130
  325HOH     H1 1180   0.360   3.006   3.178
  325HOH     H2 1181   0.510   3.026   3.189
  326HOH      O 1182   3.470   2.944   1.573
  326HOH     H1 1183   3.430   2.912   1.654
  326HOH     H2 1184   3.402   2.932   1.506
  327HOH      O 1185   3.240   2.547   0.133
  327HOH     H1 1186   3.152   2.583   0.125
  327HOH     H2 1187   3.278   2.593   0.208
  328HOH      O 1188   1.988   0.745   1.610
  328HOH     H1 1189   1.999   0.779   1.521
  328HOH     H2 1190   1.983   0.823   1.665
  329HOH      O 1191   2.828   2.887   1.173
  329HOH     H1 1192   2.835   2.792   1.163
  329HOH     H2 1193   2.742   2.900   1.214
  330HOH      O 1194   3.283   3.410   0.079
  330HOH     H1 1195   3.291   3.358   0.159
  330HOH     H2 1196   3.215   3.365   0.029
  331HOH      O 1197   0.230   2.510   1.468
  331HOH     H1 1198   0.159   2.470   1.518
  331HOH     H2 1199   0.310   2.470   1.502
  332HOH      O 1200   1.064   3.921   3.923
  332HOH     H1 1201   1.009   3.901   3.998
  332HOH     H2 1202   1.006   3.908   3.847
  333HOH      O 1203   3.608   3.256   0.545
  333HOH     H1 1204   3.592   3.226   0.634
  333HOH     H2 1205   3.672   3.194   0.510
  334HOH      O 1206   3.515   3.709   2.063
  334HOH     H1 1207   3.548   3.791   2.100
  334HOH     H2 1208   3.422   3.726   2.047
  335HOH      O 1209   2.219   0.815   2.076
  335HOH     H1 1210   2.267   0.792   2.155
  335HOH     H2 1211   2.139   0.858   2.107
  336HOH      O 1212   3.391   3.711   2.452
  336HOH     H1 1213   3.351   3.723   2.366
  336HOH     H2 1214   3.450   3.637   2.441
  337HOH      O 1215   1.879   0.972   3.896
  337HOH     H1 1216   1.880   1.051   3.950
  337HOH     H2 1217   1.943   0.914   3.937
  338HOH      O 1218   0.287   2.580   4.010
  338HOH     H1 1219   0.195   2.559   3.994
  338HOH     H2 1220   0.303   2.553   4.101
  339HOH      O 1221   1.170   0.397   0.708
  339HOH     H1 1222   1.120   0.438   0.778
  339HOH     H2 1223   1.252   0.447   0.705
  340HOH      O 1224   2.358   0.303   0.554
  340HOH     H1 1225   2.299   0.354   0.609
  340HOH     H2 1226   2.393   0.366   0.491
  341HOH      O 1227   2.215   3.094   1.098
  341HOH     H1 1228   2.161   3.042   1.157
  341HOH     H2 1229   2.293   3.042   1.084
  342HOH      O 1230   2.770   0.884  -0.006
  342HOH     H1 1231   2.773   0.808   0.053
  342HOH     H2 1232   2.781   0.959   0.052
  343HOH      O 1233   0.387   0.386   3.546
  343HOH     H1 1234   0.412   0.446   3.616
  343HOH     H2 1235   0.358   0.443   3.475
  344HOH      O 1236   2.889   0.037   1.308
  344HOH     H1 1237   2.831   0.030   1.384
  344HOH     H2 1238   2.876  -0.045   1.261
  345HOH      O 1239   0.874   0.127   3.661
  345HOH     H1 1240   0.946   0.122   3.598
  345HOH     H2 1241   0.902   0.194   3.723
  346HOH      O 1242   2.837   1.566   1.625
  346HOH     H1 1243   2.851   1.486   1.573
  346HOH     H2 1244   2.918   1.575   1.676
  347HOH      O 1245   3.638   3.543   2.815
  347HOH     H1 1246   3.584   3.546   2.893
  347HOH     H2 1247   3.647   3.635   2.789
  348HOH      O 1248   0.598   0.233   0.291
  348HOH     H1 1249   0.576   0.268   0.378
  348HOH     H2 1250   0.532   0.271   0.233
  349HOH      O 1251   3.069   1.182   0.067
  349HOH     H1 1252   2.987   1.189   0.018
  349HOH     H2 1253   3.128   1.244   0.024
  350HOH      O 1254   1.313   0.792   3.092
  350HOH     H1 1255   1.262   0.820   3.016
  350HOH     H2 1256   1.316   0.696   3.085
  351HOH      O 1257   3.181   0.877   3.584
  351HOH     H1 1258   3.146   0.870   3.495
  351HOH     H2 1259   3.114   0.836   3.639
  352HOH      O 1260   3.554   0.560   3.243
  352HOH     H1 1261   3.533   0.468   3.228
  352HOH     H2 1262   3.474   0.608   3.219
  353HOH      O 1263   1.679   2.539   0.315
  353HOH     H1 1264   1.609   2.519   0.252
  353HOH     H2 1265   1.675   2.634   0.325
  354HOH      O 1266   0.559   2.436   1.776
  354HOH     H1 1267   0.642   2.481   1.761
  354HOH     H2 1268   0.511   2.446   1.694
  355HOH      O 1269   2.706   3.386   3.580
  355HOH     H1 1270   2.797   3.414   3.580
  355HOH     H2 1271   2.660   3.450   3.634
  356HOH      O 1272   2.427   0.540   2.958
  356HOH     H1 1273   2.338   0.538   2.924
  356HOH     H2 1274   2.483   0.528   2.881
  357HOH      O 1275   0.033   1.206   1.006
  357HOH     H1 1276   0.067   1.176   0.921
  357HOH     H2 1277   0.044   1.131   1.064
  358HOH      O 1278   2.295   2.586   3.903
  358HOH     H1 1279   2.287   2.678   3.876
  358HOH     H2 1280   2.248   2.538   3.834
  359HOH      O 1281  -0.009   3.585   3.486
  359HOH     H1 1282   0.046   3.647   3.438
  359HOH     H2 1283   0.019   3.595   3.577
  360HOH      O 1284   0.077   3.948   3.773
  360HOH     H1 1285   0.090   3.898   3.854
  360HOH     H2 1286   0.022   4.022   3.800
  361HOH      O 1287   3.252   0.058   0.156
  361HOH     H1 1288   3.228   0.004   0.080
  361HOH     H2 1289   3.266   0.145   0.120
  362HOH      O 1290   1.051   0.668   3.877
  362HOH     H1 1291   1.021   0.747   3.833
  362HOH     H2 1292   0.971   0.621   3.899
  363HOH      O 1293   2.738   0.576   1.245
  363HOH     H1 1294   2.801   0.551   1.312
  363HOH     H2 1295   2.790   0.624   1.180
  364HOH      O 1296   3.090   3.641   0.798
  364HOH     H1 1297   3.180   3.610   0.790
  364HOH     H2 1298   3.040   3.565   0.827
  365HOH      O 1299   0.786   2.042   0.916
  365HOH     H1 1300   0.761   2.111   0.855
  365HOH     H2 1301   0.844   2.085   0.979
  366HOH      O 1302   0.380   2.375   2.623
  366HOH     H1 1303   0.302   2.375   2.678
  366HOH     H2 1304   0.453   2.389   2.683
  367HOH      O 1305   0.669   0.030   1.416
  367HOH     H1 1306   0.605  -0.039   1.398
  367HOH     H2 1307   0.624   0.111   1.394
  368HOH      O 1308   1.720   3.320   2.405
  368HOH     H1 1309   1.705   3.227   2.388
  368HOH     H2 1310   1.662   3.340   2.479
  369HOH      O 1311   2.825   2.706   1.458
  369HOH     H1 1312   2.844   2.707   1.552
  369HOH     H2 1313   2.906   2.673   1.418
  370HOH      O 1314   2.781   0.961   1.345
  370HOH     H1 1315   2.872   0.930   1.338
  370HOH     H2 1316   2.752   0.931   1.431
  371HOH      O 1317   0.576   3.139   3.349
  371HOH     H1 1318   0.513   3.157   3.419
  371HOH     H2 1319   0.576   3.219   3.297
  372HOH      O 1320   1.339   1.980   0.770
  372HOH     H1 1321   1.399   1.926   0.820
  372HOH     H2 1322   1.374   2.069   0.779
  373HOH      O 1323   1.570   1.320   0.710
  373HOH     H1 1324   1.615   1.357   0.634
  373HOH     H2 1325   1.635   1.322   0.780
  374HOH      O 1326   0.328   0.243   2.193
  374HOH     H1 1327   0.237   0.264   2.172
  374HOH     H2 1328   0.349   0.302   2.265
  375HOH      O 1329   2.796   0.914   2.358
  375HOH     H1 1330   2.824   0.971   2.286
  375HOH     H2 1331   2.816   0.963   2.437
  376HOH      O 1332   0.923   3.423   0.453
  376HOH     H1 1333   0.975   3.501   0.472
  376HOH     H2 1334   0.904   3.385   0.538
  377HOH      O 1335   0.603   1.774   1.533
  377HOH     H1 1336   0.694   1.796   1.550
  377HOH     H2 1337   0.585   1.699   1.589
  378HOH      O 1338   3.131   2.591   3.459
  378HOH     H1 1339   3.062   2.535   3.496
  378HOH     H2 1340   3.085   2.669   3.428
  379HOH      O 1341   3.684   3.783   0.489
  379HOH     H1 1342   3.663   3.691   0.472
  379HOH     H2 1343   3.719   3.783   0.578
  380HOH      O 1344   1.948   2.969   3.637
  380HOH     H1 1345   1.881   3.037   3.643
  380HOH     H2 1346   1.993   2.986   3.555
  381HOH      O 1347   2.433   1.147   1.162
  381HOH     H1 1348   2.488   1.074   1.134
  381HOH     H2 1349   2.384   1.172   1.084
  382HOH      O 1350   0.068   2.469   0.251
  382HOH     H1 1351   0.162   2.485   0.249
  382HOH     H2 1352   0.048   2.428   0.167
  383HOH      O 1353   1.474   2.843   1.581
  383HOH     H1 1354   1.540   2.809   1.521
  383HOH     H2 1355   1.522   2.900   1.641
  384HOH      O 1356   0.972   4.004   1.813
  384HOH     H1 1357   0.893   3.951   1.825
  384HOH     H2 1358   0.972   4.027   1.720
  385HOH      O 1359   3.459   3.844   2.670
  385HOH     H1 1360   3.419   3.791   2.740
  385HOH     H2 1361   3.439   3.795   2.590
  386HOH      O 1362   0.234   0.801   1.846
  386HOH     H1 1363   0.260   0.887   1.812
  386HOH     H2 1364   0.312   0.746   1.833
  387HOH      O 1365   3.720   2.633   3.868
  387HOH     H1 1366   3.723   2.679   3.784
  387HOH     H2 1367   3.628   2.637   3.895
  388HOH      O 1368   3.650   3.796   1.017
  388HOH     H1 1369   3.646   3.748   0.934
  388HOH     H2 1370   3.744   3.804   1.035
  389HOH      O 1371   2.757   0.982   2.053
  389HOH     H1 1372   2.706   1.023   1.983
  389HOH     H2 1373   2.768   1.052   2.118
  390HOH      O 1374   0.660   2.729   0.889
  390HOH     H1 1375   0.712   2.668   0.836
  390HOH     H2 1376   0.580   2.680   0.908
  391HOH      O 1377   3.250   2.208   4.050
  391HOH     H1 1378   3.290   2.281   4.003
  391HOH     H2 1379   3.269   2.132   3.995
  392HOH      O 1380   3.258   3.000   0.555
  392HOH     H1 1381   3.310   2.921   0.567
  392HOH     H2 1382   3.269   3.049   0.637
  393HOH      O 1383   1.258   1.156   3.110
  393HOH     H1 1384   1.353   1.144   3.113
  393HOH     H2 1385   1.238   1.165   3.016
  394HOH      O 1386   0.739   3.190   0.133
  394HOH     H1 1387   0.653   3.187   0.091
  394HOH     H2 1388   0.743   3.275   0.175
  395HOH      O 1389   3.258   2.329   1.358
  395HOH     H1 1390   3.234   2.268   1.428
  395HOH     H2 1391   3.296   2.274   1.290
  396HOH      O 1392   2.817   2.454   3.518
  396HOH     H1 1393   2.812   2.453   3.423
  396HOH     H2 1394   2.753   2.388   3.546
  397HOH      O 1395   1.436   0.598   1.135
  397HOH     H1 1396   1.367   0.543   1.172
  397HOH     H2 1397   1.466   0.551   1.058
  398HOH      O 1398   0.546   1.901   1.057
  398HOH     H1 1399   0.629   1.948   1.046
  398HOH     H2 1400   0.538   1.888   1.151
  399HOH      O 1401   2.100   0.821   3.974
  399HOH     H1 1402   2.134   0.744   3.928
  399HOH     H2 1403   2.147   0.894   3.934
  400HOH      O 1404   0.084   2.826   2.182
  400HOH     H1 1405   0.058   2.907   2.227
  400HOH     H2 1406   0.007   2.801   2.131
  401HOH      O 1407   1.547   2.707   3.997
  401HOH     H1 1408   1.607   2.650   3.950
  401HOH     H2 1409   1.543   2.787   3.945
  402HOH      O 1410   0.705   2.805   1.625
  402HOH     H1 1411   0.612   2.789   1.604
  402HOH     H2 1412   0.750   2.795   1.541
  403HOH      O 1413   2.323   1.325   1.392
  403HOH     H1 1414   2.250   1.364   1.344
  403HOH     H2 1415   2.397   1.330   1.332
  404HOH      O 1416   3.709   1.015   1.754
  404HOH     H1 1417   3.754   0.945   1.706
  404HOH     H2 1418   3.727   1.094   1.703
  405HOH      O 1419   0.328   3.127   1.163
  405HOH     H1 1420   0.394   3.112   1.095
  405HOH     H2 1421   0.247   3.141   1.114
  406HOH      O 1422   3.050   2.011   3.648
  406HOH     H1 1423   3.065   1.944   3.715
  406HOH     H2 1424   2.969   2.054   3.676
  407HOH      O 1425   0.220   2.586   3.521
  407HOH     H1 1426   0.283   2.644   3.564
  407HOH     H2 1427   0.146   2.643   3.499
  408HOH      O 1428   2.660   1.752   1.456
  408HOH     H1 1429   2.677   1.664   1.490
  408HOH     H2 1430   2.636   1.804   1.533
  409HOH      O 1431   3.717   2.046   2.216
  409HOH     H1 1432   3.643   2.045   2.156
  409HOH     H2 1433   3.690   1.991   2.290
  410HOH      O 1434   2.814   2.098   3.813
  410HOH     H1 1435   2.799   2.080   3.905
  410HOH     H2 1436   2.739   2.152   3.786
  411HOH      O 1437   0.437   0.587   3.733
  411HOH     H1 1438   0.362   0.574   3.791
  411HOH     H2 1439   0.503   0.526   3.764
  412HOH      O 1440   0.160   1.842   2.308
  412HOH     H1 1441   0.210   1.761   2.318
  412HOH     H2 1442   0.154   1.855   2.213
  413HOH      O 1443   0.999   2.684   3.922
  413HOH     H1 1444   0.965   2.599   3.948
  413HOH     H2 1445   1.033   2.722   4.003
  414HOH      O 1446   1.637   2.091   2.451
  414HOH     H1 1447   1.669   2.067   2.538
  414HOH     H2 1448   1.696   2.160   2.421
  415HOH      O 1449   3.632   2.771   2.396
  415HOH     H1 1450   3.614   2.699   2.456
  415HOH     H2 1451   3.672   2.729   2.320
  416HOH      O 1452   3.321   1.298   0.873
  416HOH     H1 1453   3.377   1.317   0.948
  416HOH     H2 1454   3.269   1.378   0.862
  417HOH      O 1455   2.062   0.045   2.856
  417HOH     H1 1456   2.059   0.019   2.764
  417HOH     H2 1457   1.981   0.010   2.893
  418HOH      O 1458   1.160   2.841   2.799
  418HOH     H1 1459   1.142   2.925   2.757
  418HOH     H2 1460   1.122   2.848   2.887
  419HOH      O 1461   0.351   3.659   3.394
  419HOH     H1 1462   0.271   3.689   3.351
  419HOH     H2 1463   0.363   3.569   3.362
  420HOH      O 1464   3.660   2.455   3.504
  420HOH     H1 1465   3.581   2.477   3.455
  420HOH     H2 1466   3.628   2.405   3.579
  421HOH      O 1467   3.108   0.498   3.345
  421HOH     H1 1468   3.086   0.476   3.436
  421HOH     H2 1469   3.122   0.413   3.303
  422HOH      O 1470   1.153   0.634   1.917
  422HOH     H1 1471   1.120   0.604   1.832
  422HOH     H2 1472   1.245   0.653   1.901
  423HOH      O 1473   1.857   0.907   0.187
  423HOH     H1 1474   1.944   0.946   0.182
  423HOH     H2 1475   1.798   0.975   0.156
  424HOH      O 1476   3.803   3.200   1.517
  424HOH     H1 1477   3.773   3.129   1.574
  424HOH     H2 1478   3.765   3.180   1.432
  425HOH      O 1479   0.156   0.490   2.613
  425HOH     H1 1480   0.223   0.483   2.681
  425HOH     H2 1481   0.073   0.495   2.661
  426HOH      O 1482   1.275   2.808   0.353
  426HOH     H1 1483   1.287   2.897   0.387
  426HOH     H2 1484   1.353   2.792   0.299
  427HOH      O 1485   0.068   1.641   1.588
  427HOH     H1 1486   0.093   1.593   1.667
  427HOH     H2 1487   0.113   1.726   1.596
  428HOH      O 1488   2.541   0.313   3.131
  428HOH     H1 1489   2.547   0.397   3.085
  428HOH     H2 1490   2.632   0.289   3.149
  429HOH      O 1491   1.967   1.164   0.088
  429HOH     H1 1492   2.047   1.188   0.134
  429HOH     H2 1493   1.897   1.205   0.138
  430HOH      O 1494   1.476   3.040   0.020
  430HOH     H1 1495   1.537   2.979  -0.021
  430HOH     H2 1496   1.483   3.023   0.114
  431HOH      O 1497   0.641   1.539   1.679
  431HOH     H1 1498   0.651   1.458   1.729
  431HOH     H2 1499   0.720   1.544   1.625
  432HOH      O 1500   1.003   3.374   1.968
  432HOH     H1 1501   1.053   3.380   2.050
  432HOH     H2 1502   0.953   3.293   1.978
  433HOH      O 1503   0.517   3.722   1.003
  433HOH     H1 1504   0.473   3.805   0.986
  433HOH     H2 1505   0.461   3.677   1.066
  434HOH      O 1506   0.376   2.172   0.358
  434HOH     H1 1507   0.419   2.160   0.443
  434HOH     H2 1508   0.446   2.203   0.301
  435HOH      O 1509   1.926   0.670   3.446
  435HOH     H1 1510   1.937   0.602   3.513
  435HOH     H2 1511   1.986   0.740   3.472
  436HOH      O 1512   1.912   3.037   2.185
  436HOH     H1 1513   1.993   3.001   2.150
  436HOH     H2 1514   1.864   2.961   2.218
  437HOH      O 1515   3.315   1.176   1.886
  437HOH     H1 1516   3.294   1.268   1.873
  437HOH     H2 1517   3.318   1.140   1.797
  438HOH      O 1518   2.737   1.838   3.730
  438HOH     H1 1519   2.819   1.791   3.742
  438HOH     H2 1520   2.751   1.923   3.772
  439HOH      O 1521   1.335   3.627   0.075
  439HOH     H1 1522   1.269   3.689   0.108
  439HOH     H2 1523   1.418   3.674   0.082
  440HOH      O 1524   0.007   3.279   0.046
  440HOH     H1 1525  -0.022   3.188   0.047
  440HOH     H2 1526   0.041   3.295   0.134
  441HOH      O 1527   0.061   3.347   2.942
  441HOH     H1 1528   0.065   3.342   2.847
  441HOH     H2 1529   0.026   3.435   2.960
  442HOH      O 1530   2.309   1.995   2.770
  442HOH     H1 1531   2.356   2.039   2.699
  442HOH     H2 1532   2.346   1.907   2.772
  443HOH      O 1533   1.852   1.955   3.361
  443HOH     H1 1534   1.814   1.913   3.439
  443HOH     H2 1535   1.856   2.048   3.385
  444HOH      O 1536   1.525   2.616   1.175
  444HOH     H1 1537   1.593   2.676   1.144
  444HOH     H2 1538   1.571   2.555   1.232
  445HOH      O 1539   2.934   3.708   3.212
  445HOH     H1 1540   2.844   3.724   3.240
  445HOH     H2 1541   2.965   3.639   3.270
  446HOH      O 1542   2.443   1.358   0.769
  446HOH     H1 1543   2.364   1.316   0.801
  446HOH     H2 1544   2.422   1.452   0.769
  447HOH      O 1545   2.721   2.556   1.737
  447HOH     H1 1546   2.812   2.557   1.707
  447HOH     H2 1547   2.692   2.466   1.723
  448HOH      O 1548   1.326   1.227   3.461
  448HOH     H1 1549   1.237   1.207   3.433
  448HOH     H2 1550   1.359   1.144   3.495
  449HOH      O 1551   2.701   1.780   3.468
  449HOH     H1 1552   2.612   1.776   3.435
  449HOH     H2 1553   2.693   1.820   3.554
  450HOH      O 1554   3.211   3.915   0.429
  450HOH     H1 1555   3.185   3.843   0.373
  450HOH     H2 1556   3.306   3.922   0.417
  451HOH      O 1557   3.251   1.241   0.247
  451HOH     H1 1558   3.285   1.317   0.201
  451HOH     H2 1559   3.172   1.217   0.199
  452HOH      O 1560   0.387   2.311   1.103
  452HOH     H1 1561   0.393   2.348   1.014
  452HOH     H2 1562   0.374   2.387   1.159
  453HOH      O 1563   3.131   1.443   1.426
  453HOH     H1 1564   3.131   1.357   1.468
  453HOH     H2 1565   3.040   1.458   1.401
  454HOH      O 1566   2.705   0.470   2.871
  454HOH     H1 1567   2.754   0.431   2.944
  454HOH     H2 1568   2.672   0.395   2.822
  455HOH      O 1569   1.398   3.941   2.002
  455HOH     H1 1570   1.449   3.864   1.977
  455HOH     H2 1571   1.462   4.011   2.011
  456HOH      O 1572   0.952   0.288   0.585
  456HOH     H1 1573   1.036   0.318   0.620
  456HOH     H2 1574   0.887   0.333   0.639
  457HOH      O 1575   2.772   1.708   0.284
  457HOH     H1 1576   2.776   1.621   0.244
  457HOH     H2 1577   2.719   1.760   0.223
  458HOH      O 1578   1.284   1.285   1.081
  458HOH     H1 1579   1.296   1.361   1.138
  458HOH     H2 1580   1.305   1.209   1.135
  459HOH      O 1581   1.882   1.014   3.612
  459HOH     H1 1582   1.861   1.004   3.705
  459HOH     H2 1583   1.976   1.033   3.611
  460HOH      O 1584   2.149   0.812   3.554
  460HOH     H1 1585   2.235   0.851   3.567
  460HOH     H2 1586   2.120   0.844   3.469
  461HOH      O 1587   0.818   2.719   2.897
  461HOH     H1 1588   0.744   2.678   2.942
  461HOH     H2 1589   0.887   2.653   2.899
  462HOH      O 1590   1.525   0.943   2.352
  462HOH     H1 1591   1.488   0.973   2.435
  462HOH     H2 1592   1.463   0.972   2.285
  463HOH      O 1593   1.346   2.940   1.339
  463HOH     H1 1594   1.329   3.034   1.344
  463HOH     H2 1595   1.389   2.919   1.421
  464HOH      O 1596   2.580   1.302   3.388
  464HOH     H1 1597   2.612   1.386   3.421
  464HOH     H2 1598   2.629   1.236   3.437
  465HOH      O 1599   1.110   2.226   3.137
  465HOH     H1 1600   1.057   2.225   3.057
  465HOH     H2 1601   1.198   2.248   3.107
  466HOH      O 1602   3.400   0.996   3.327
  466HOH     H1 1603   3.458   0.970   3.398
  466HOH     H2 1604   3.384   0.915   3.278
  467HOH      O 1605   3.729   2.007   0.400
  467HOH     H1 1606   3.769   2.067   0.338
  467HOH     H2 1607   3.676   1.949   0.346
  468HOH      O 1608   0.540   3.468   3.999
  468HOH     H1 1609   0.492   3.426   4.070
  468HOH     H2 1610   0.597   3.532   4.043
  469HOH      O 1611   3.975   3.537   0.892
  469HOH     H1 1612   4.049   3.581   0.850
  469HOH     H2 1613   3.947   3.598   0.960
  470HOH      O 1614   3.348   0.738   1.898
  470HOH     H1 1615   3.425   0.794   1.890
  470HOH     H2 1616   3.361   0.670   1.832
  471HOH      O 1617   2.446   2.127   1.587
  471HOH     H1 1618   2.352   2.144   1.582
  471HOH     H2 1619   2.481   2.198   1.642
  472HOH      O 1620   3.422   3.435   2.159
  472HOH     H1 1621   3.387   3.426   2.070
  472HOH     H2 1622   3.433   3.530   2.170
  473HOH      O 1623   2.006   2.622   0.302
  473HOH     H1 1624   1.954   2.581   0.371
  473HOH     H2 1625   2.087   2.650   0.346
  474HOH      O 1626   3.454  -0.011   3.070
  474HOH     H1 1627   3.532  -0.016   3.014
  474HOH     H2 1628   3.477   0.052   3.138
  475HOH      O 1629   2.725   0.956   0.586
  475HOH     H1 1630   2.692   0.929   0.500
  475HOH     H2 1631   2.811   0.993   0.568
  476HOH      O 1632   2.171   1.595   2.204
  476HOH     H1 1633   2.120   1.538   2.147
  476HOH     H2 1634   2.106   1.647   2.251
  477HOH      O 1635   2.928   1.824   2.833
  477HOH     H1 1636   2.954   1.911   2.803
  477HOH     H2 1637   2.963   1.817   2.922
  478HOH      O 1638   1.524   1.683   0.615
  478HOH     H1 1639   1.503   1.775   0.600
  478HOH     H2 1640   1.477   1.635   0.547
  479HOH      O 1641   3.177   1.212   1.566
  479HOH     H1 1642   3.250   1.178   1.514
  479HOH     H2 1643   3.134   1.134   1.601
  480HOH      O 1644   2.932   1.927   0.359
  480HOH     H1 1645   2.962   1.924   0.269
  480HOH     H2 1646   2.885   1.844   0.371
  481HOH      O 1647   3.775   3.603   1.957
  481HOH     H1 1648   3.721   3.643   2.024
  481HOH     H2 1649   3.720   3.603   1.878
  482HOH      O 1650   2.494   1.289   2.198
  482HOH     H1 1651   2.570   1.270   2.142
  482HOH     H2 1652   2.418   1.277   2.140
  483HOH      O 1653   2.286   3.280   0.299
  483HOH     H1 1654   2.303   3.268   0.205
  483HOH     H2 1655   2.201   3.323   0.302
  484HOH      O 1656   2.074   2.749   3.033
  484HOH     H1 1657   2.119   2.824   3.073
  484HOH     H2 1658   2.103   2.674   3.085
  485HOH      O 1659   0.304   3.545   1.112
  485HOH     H1 1660   0.284   3.478   1.047
  485HOH     H2 1661   0.307   3.497   1.195
  486HOH      O 1662   0.629   2.414   3.054
  486HOH     H1 1663   0.697   2.381   3.113
  486HOH     H2 1664   0.591   2.489   3.101
  487HOH      O 1665   1.507   3.677   1.955
  487HOH     H1 1666   1.471   3.613   2.017
  487HOH     H2 1667   1.564   3.626   1.898
  488HOH      O 1668   1.151   1.428   0.543
  488HOH     H1 1669   1.078   1.481   0.576
  488HOH     H2 1670   1.164   1.361   0.611
  489HOH      O 1671   0.726   3.335   3.798
  489HOH     H1 1672   0.641   3.336   3.842
  489HOH     H2 1673   0.709   3.374   3.713
  490HOH      O 1674   2.304   1.767   1.950
  490HOH     H1 1675   2.293   1.681   1.989
  490HOH     H2 1676   2.316   1.750   1.857
  491HOH      O 1677   2.728   0.000   0.702
  491HOH     H1 1678   2.634   0.017   0.697
  491HOH     H2 1679   2.748   0.004   0.796
  492HOH      O 1680   0.132   3.724   1.002
  492HOH     H1 1681   0.171   3.784   0.937
  492HOH     H2 1682   0.207   3.674   1.035
  493HOH      O 1683   0.888   0.486   3.492
  493HOH     H1 1684   0.902   0.436   3.412
  493HOH     H2 1685   0.811   0.447   3.532
  494HOH      O 1686   1.444   2.005   3.428
  494HOH     H1 1687   1.351   2.015   3.450
  494HOH     H2 1688   1.463   1.913   3.445
  495HOH      O 1689   1.759   0.082   2.677
  495HOH     H1 1690   1.729   0.131   2.601
  495HOH     H2 1691   1.851   0.062   2.659
  496HOH      O 1692   3.255   4.041   0.641
  496HOH     H1 1693   3.221   3.988   0.570
  496HOH     H2 1694   3.284   3.978   0.707
  497HOH      O 1695   0.420   3.401   3.302
  497HOH     H1 1696   0.374   3.349   3.367
  497HOH     H2 1697   0.356   3.417   3.233
  498HOH      O 1698   2.894   0.576   2.268
  498HOH     H1 1699   2.873   0.569   2.361
  498HOH     H2 1700   2.812   0.555   2.223
  499HOH      O 1701   4.044   3.304   1.598
  499HOH     H1 1702   4.029   3.360   1.674
  499HOH     H2 1703   3.957   3.275   1.572
  500HOH      O 1704   3.264   3.870   0.839
  500HOH     H1 1705   3.343   3.879   0.891
  500HOH     H2 1706   3.221   3.792   0.875
  501HOH      O 1707   3.373   2.560   1.244
  501HOH     H1 1708   3.315   2.559   1.167
  501HOH     H2 1709   3.348   2.482   1.294
  502HOH      O 1710   3.017   0.259   2.370
  502HOH     H1 1711   2.922   0.267   2.373
  502HOH     H2 1712   3.032   0.182   2.314
  503HOH      O 1713   1.155   3.542   3.227
  503HOH     H1 1714   1.141   3.623   3.179
  503HOH     H2 1715   1.132   3.563   3.317
  504HOH      O 1716   3.026   3.273   1.597
  504HOH     H1 1717   3.004   3.225   1.518
  504HOH     H2 1718   2.942   3.310   1.626
  505HOH      O 1719   0.384   0.938   2.351
  505HOH     H1 1720   0.311   0.999   2.339
  505HOH     H2 1721   0.392   0.928   2.445
  506HOH      O 1722   2.531   2.830   0.829
  506HOH     H1 1723   2.573   2.823   0.743
  506HOH     H2 1724   2.551   2.747   0.872
  507HOH      O 1725   2.941   3.507   3.579
  507HOH     H1 1726   2.997   3.504   3.502
  507HOH     H2 1727   2.995   3.472   3.650
  508HOH      O 1728   3.972   2.781   2.901
  508HOH     H1 1729   4.043   2.841   2.877
  508HOH     H2 1730   3.984   2.765   2.995
  509HOH      O 1731   4.069   1.340   2.179
  509HOH     H1 1732   4.015   1.388   2.116
  509HOH     H2 1733   4.036   1.367   2.264
  510HOH      O 1734   2.451  -0.014   1.597
  510HOH     H1 1735   2.368  -0.036   1.555
  510HOH     H2 1736   2.432   0.063   1.650
  511HOH      O 1737   1.816   1.600   0.676
  511HOH     H1 1738   1.758   1.660   0.724
  511HOH     H2 1739   1.817   1.635   0.587
  512HOH      O 1740   0.737   2.115   1.700
  512HOH     H1 1741   0.768   2.187   1.646
  512HOH     H2 1742   0.646   2.102   1.672
  513HOH      O 1743   0.398   2.577   1.233
  513HOH     H1 1744   0.354   2.645   1.181
  513HOH     H2 1745   0.336   2.557   1.303
  514HOH      O 1746   1.677   1.346   2.126
  514HOH     H1 1747   1.766   1.312   2.137
  514HOH     H2 1748   1.639   1.341   2.213
  515HOH      O 1749   1.269   2.721   1.153
  515HOH     H1 1750   1.289   2.800   1.203
  515HOH     H2 1751   1.348   2.668   1.161
  516HOH      O 1752   3.014   3.336   0.231
  516HOH     H1 1753   3.024   3.299   0.143
  516HOH     H2 1754   2.926   3.375   0.230
  517HOH      O 1755   3.269   1.978   3.852
  517HOH     H1 1756   3.316   2.044   3.800
  517HOH     H2 1757   3.337   1.928   3.896
  518HOH      O 1758   2.983   1.220   0.792
  518HOH     H1 1759   2.902   1.265   0.814
  518HOH     H2 1760   3.052   1.286   0.806
  519HOH      O 1761   1.761   3.827   2.634
  519HOH     H1 1762   1.739   3.734   2.645
  519HOH     H2 1763   1.822   3.828   2.560
  520HOH      O 1764   3.103   0.830   1.867
  520HOH     H1 1765   3.058   0.786   1.938
  520HOH     H2 1766   3.193   0.796   1.870
  521HOH      O 1767   2.011   3.828   1.648
  521HOH     H1 1768   2.023   3.798   1.558
  521HOH     H2 1769   2.099   3.823   1.687
  522HOH      O 1770   3.142   2.915   2.427
  522HOH     H1 1771   3.225   2.963   2.433
  522HOH     H2 1772   3.140   2.883   2.337
  523HOH      O 1773   3.185   1.048   0.430
  523HOH     H1 1774   3.236   1.118   0.389
  523HOH     H2 1775   3.237   1.020   0.505
  524HOH      O 1776   2.169   0.358   0.955
  524HOH     H1 1777   2.134   0.396   0.874
  524HOH     H2 1778   2.144   0.421   1.022
  525HOH      O 1779   1.697   1.721   2.304
  525HOH     H1 1780   1.753   1.643   2.297
  525HOH     H2 1781   1.736   1.783   2.243
  526HOH      O 1782   3.711   0.170   2.309
  526HOH     H1 1783   3.678   0.109   2.242
  526HOH     H2 1784   3.701   0.256   2.268
  527HOH      O 1785   0.599   2.580   3.519
  527HOH     H1 1786   0.628   2.655   3.466
  527HOH     H2 1787   0.541   2.619   3.584
  528HOH      O 1788   1.280   1.527   2.852
  528HOH     H1 1789   1.232   1.610   2.849
  528HOH     H2 1790   1.229   1.469   2.796
  529HOH      O 1791   2.441   0.085   4.018
  529HOH     H1 1792   2.533   0.087   4.046
  529HOH     H2 1793   2.436   0.151   3.950
  530HOH      O 1794   3.659   1.232   1.964
  530HOH     H1 1795   3.636   1.155   1.912
  530HOH     H2 1796   3.751   1.218   1.988
  531HOH      O 1797   0.103   3.826   2.236
  531HOH     H1 1798   0.045   3.782   2.174
  531HOH     H2 1799   0.190   3.819   2.196
  532HOH      O 1800   1.517   3.192   3.811
  532HOH     H1 1801   1.478   3.151   3.888
  532HOH     H2 1802   1.478   3.280   3.808
  533HOH      O 1803   1.734   2.790   1.463
  533HOH     H1 1804   1.717   2.715   1.405
  533HOH     H2 1805   1.729   2.866   1.406
  534HOH      O 1806   2.039   2.475   1.112
  534HOH     H1 1807   1.995   2.467   1.027
  534HOH     H2 1808   2.063   2.567   1.117
  535HOH      O 1809   0.171   1.399   2.812
  535HOH     H1 1810   0.159   1.304   2.823
  535HOH     H2 1811   0.265   1.409   2.795
  536HOH      O 1812   2.398   0.767   1.526
  536HOH     H1 1813   2.375   0.811   1.444
  536HOH     H2 1814   2.357   0.820   1.594
  537HOH      O 1815   1.645   1.774   1.676
  537HOH     H1 1816   1.696   1.728   1.610
  537HOH     H2 1817   1.663   1.866   1.660
  538HOH      O 1818   2.005   1.195   1.126
  538HOH     H1 1819   1.910   1.192   1.137
  538HOH     H2 1820   2.029   1.105   1.104
  539HOH      O 1821   1.103   0.799   1.494
  539HOH     H1 1822   1.108   0.884   1.538
  539HOH     H2 1823   1.026   0.806   1.437
  540HOH      O 1824   0.485   0.792   2.132
  540HOH     H1 1825   0.413   0.731   2.118
  540HOH     H2 1826   0.462   0.839   2.212
  541HOH      O 1827   1.105   2.403   1.066
  541HOH     H1 1828   1.172   2.411   1.134
  541HOH     H2 1829   1.149   2.431   0.986
  542HOH      O 1830   3.961   1.336   2.490
  542HOH     H1 1831   4.038   1.388   2.514
  542HOH     H2 1832   3.895   1.401   2.465
  543HOH      O 1833   0.929   3.605   1.861
  543HOH     H1 1834   0.984   3.669   1.907
  543HOH     H2 1835   0.950   3.522   1.903
  544HOH      O 1836   0.783   2.436   2.168
  544HOH     H1 1837   0.708   2.388   2.130
  544HOH     H2 1838   0.781   2.413   2.261
  545HOH      O 1839   3.900   0.477   2.374
  545HOH     H1 1840   3.856   0.427   2.306
  545HOH     H2 1841   3.938   0.411   2.432
  546HOH      O 1842   0.995   2.267   2.851
  546HOH     H1 1843   1.041   2.277   2.768
  546HOH     H2 1844   0.926   2.204   2.834
  547HOH      O 1845   3.540   0.272   1.517
  547HOH     H1 1846   3.603   0.200   1.528
  547HOH     H2 1847   3.458   0.228   1.493
  548HOH      O 1848   4.047   2.545   2.597
  548HOH     H1 1849   4.032   2.538   2.502
  548HOH     H2 1850   3.962   2.528   2.636
  549HOH      O 1851   2.875   2.730   0.824
  549HOH     H1 1852   2.797   2.677   0.808
  549HOH     H2 1853   2.900   2.762   0.737
  550HOH      O 1854   3.865   3.641   0.184
  550HOH     H1 1855   3.830   3.702   0.119
  550HOH     H2 1856   3.804   3.647   0.258
  551HOH      O 1857   2.153   1.049   2.758
  551HOH     H1 1858   2.195   1.042   2.672
  551HOH     H2 1859   2.187   1.130   2.795
  552HOH      O 1860   3.024   3.463   3.850
  552HOH     H1 1861   2.934   3.491   3.861
  552HOH     H2 1862   3.029   3.378   3.894
  553HOH      O 1863   1.011   1.927   1.967
  553HOH     H1 1864   0.986   1.896   2.054
  553HOH     H2 1865   1.099   1.964   1.979
  554HOH      O 1866   1.533   0.112   2.063
  554HOH     H1 1867   1.558   0.162   1.985
  554HOH     H2 1868   1.608   0.120   2.122
  555HOH      O 1869   1.132   0.753   0.419
  555HOH     H1 1870   1.087   0.680   0.462
  555HOH     H2 1871   1.091   0.758   0.332
  556HOH      O 1872   2.507   2.729   3.556
  556HOH     H1 1873   2.512   2.821   3.531
  556HOH     H2 1874   2.443   2.691   3.496
  557HOH      O 1875   1.381   2.482   2.621
  557HOH     H1 1876   1.343   2.465   2.707
  557HOH     H2 1877   1.392   2.577   2.619
  558HOH      O 1878   2.561   2.918   1.288
  558HOH     H1 1879   2.545   3.008   1.317
  558HOH     H2 1880   2.483   2.894   1.239
  559HOH      O 1881   2.755   1.314   2.858
  559HOH     H1 1882   2.700   1.344   2.785
  559HOH     H2 1883   2.700   1.252   2.905
  560HOH      O 1884   0.925   0.707   2.966
  560HOH     H1 1885   0.912   0.639   3.032
  560HOH     H2 1886   0.918   0.789   3.015
  561HOH      O 1887   2.019   0.641   3.105
  561HOH     H1 1888   2.044   0.683   3.187
  561HOH     H2 1889   2.039   0.707   3.038
  562HOH      O 1890   1.930   3.343   1.535
  562HOH     H1 1891   1.870   3.378   1.469
  562HOH     H2 1892   1.954   3.419   1.589
  563HOH      O 1893   0.806   0.866   1.792
  563HOH     H1 1894   0.718   0.901   1.802
  563HOH     H2 1895   0.863   0.942   1.807
  564HOH      O 1896   0.573   0.610   3.249
  564HOH     H1 1897   0.573   0.540   3.183
  564HOH     H2 1898   0.488   0.601   3.292
  565HOH      O 1899   0.624   1.119   1.145
  565HOH     H1 1900   0.642   1.187   1.209
  565HOH     H2 1901   0.528   1.114   1.142
  566HOH      O 1902   1.202   3.050   0.567
  566HOH     H1 1903   1.120   3.077   0.609
  566HOH     H2 1904   1.260   3.125   0.578
  567HOH      O 1905   2.269   2.054   0.960
  567HOH     H1 1906   2.214   1.977   0.973
  567HOH     H2 1907   2.277   2.092   1.048
  568HOH      O 1908   3.033   2.797   0.235
  568HOH     H1 1909   3.066   2.743   0.307
  568HOH     H2 1910   3.020   2.884   0.274
  569HOH      O 1911   2.231   3.479   1.462
  569HOH     H1 1912   2.138   3.497   1.444
  569HOH     H2 1913   2.278   3.534   1.400
  570HOH      O 1914   2.978   2.168   2.966
  570HOH     H1 1915   2.912   2.226   3.003
  570HOH     H2 1916   2.986   2.196   2.875
  571HOH      O 1917   1.459   1.965   2.230
  571HOH     H1 1918   1.532   1.985   2.288
  571HOH     H2 1919   1.400   2.040   2.238
  572HOH      O 1920   1.109   3.799   3.153
  572HOH     H1 1921   1.121   3.868   3.088
  572HOH     H2 1922   1.036   3.830   3.207
  573HOH      O 1923   2.611   2.982   3.429
  573HOH     H1 1924   2.603   3.001   3.522
  573HOH     H2 1925   2.672   3.049   3.396
  574HOH      O 1926   2.814   2.755   3.585
  574HOH     H1 1927   2.784   2.667   3.563
  574HOH     H2 1928   2.844   2.791   3.501
  575HOH      O 1929   0.807   2.128   1.976
  575HOH     H1 1930   0.743   2.140   1.905
  575HOH     H2 1931   0.869   2.064   1.942
  576HOH      O 1932   0.871   3.868   3.717
  576HOH     H1 1933   0.785   3.838   3.747
  576HOH     H2 1934   0.862   3.872   3.622
  577HOH      O 1935   1.477   2.500   0.139
  577HOH     H1 1936   1.389   2.473   0.113
  577HOH     H2 1937   1.500   2.571   0.079
  578HOH      O 1938   2.543   0.752   3.135
  578HOH     H1 1939   2.511   0.687   3.072
  578HOH     H2 1940   2.535   0.708   3.220
  579HOH      O 1941   2.147   3.296   3.024
  579HOH     H1 1942   2.218   3.320   2.965
  579HOH     H2 1943   2.116   3.211   2.992
  580HOH      O 1944   0.951   2.501   2.970
  580HOH     H1 1945   0.933   2.488   3.063
  580HOH     H2 1946   0.966   2.412   2.936
  581HOH      O 1947   1.717   1.141   1.870
  581HOH     H1 1948   1.788   1.205   1.870
  581HOH     H2 1949   1.642   1.189   1.905
  582HOH      O 1950   1.110   3.067   2.204
  582HOH     H1 1951   1.105   3.000   2.135
  582HOH     H2 1952   1.041   3.044   2.265
  583HOH      O 1953   2.018   1.783   2.405
  583HOH     H1 1954   1.960   1.856   2.382
  583HOH     H2 1955   2.104   1.824   2.414
  584HOH      O 1956   1.524   2.560   0.665
  584HOH     H1 1957   1.469   2.508   0.606
  584HOH     H2 1958   1.529   2.646   0.623
  585HOH      O 1959   2.642   3.552   2.966
  585HOH     H1 1960   2.711   3.572   2.903
  585HOH     H2 1961   2.605   3.638   2.989
  586HOH      O 1962   1.766   3.434   0.475
  586HOH     H1 1963   1.808   3.503   0.424
  586HOH     H2 1964   1.803   3.353   0.439
  587HOH      O 1965   2.721   4.018   1.532
  587HOH     H1 1966   2.642   4.053   1.572
  587HOH     H2 1967   2.774   3.987   1.606
  588HOH      O 1968   3.137   2.804   1.184
  588HOH     H1 1969   3.080   2.727   1.187
  588HOH     H2 1970   3.182   2.805   1.268
  589HOH      O 1971   3.331   1.962   2.226
  589HOH     H1 1972   3.246   1.936   2.260
  589HOH     H2 1973   3.389   1.957   2.302
  590HOH      O 1974   4.007   3.274   0.692
  590HOH     H1 1975   4.000   3.297   0.599
  590HOH     H2 1976   4.020   3.358   0.736
  591HOH      O 1977   3.406   0.591   0.269
  591HOH     H1 1978   3.370   0.680   0.260
  591HOH     H2 1979   3.497   0.599   0.240
  592HOH      O 1980   0.410   3.773   3.969
  592HOH     H1 1981   0.499   3.752   3.999
  592HOH     H2 1982   0.421   3.799   3.878
  593HOH      O 1983   3.622   0.620   0.477
  593HOH     H1 1984   3.528   0.623   0.461
  593HOH     H2 1985   3.661   0.651   0.395
  594HOH      O 1986   2.709   3.921   1.842
  594HOH     H1 1987   2.719   3.846   1.901
  594HOH     H2 1988   2.638   3.972   1.881
  595HOH      O 1989   3.932   2.058   2.028
  595HOH     H1 1990   3.938   1.992   1.960
  595HOH     H2 1991   3.911   2.009   2.108
  596HOH      O 1992   3.298   0.858   0.212
  596HOH     H1 1993   3.211   0.895   0.202
  596HOH     H2 1994   3.333   0.899   0.292
  597HOH      O 1995   2.594   2.843   1.946
  597HOH     H1 1996   2.595   2.939   1.941
  597HOH     H2 1997   2.623   2.823   2.035
  598HOH      O 1998   0.918   3.007   0.888
  598HOH     H1 1999   0.960   2.988   0.972
  598HOH     H2 2000   0.971   2.960   0.824
  599HOH      O 2001   1.537   3.092   2.761
  599HOH     H1 2002   1.568   3.003   2.776
  599HOH     H2 2003   1.447   3.092   2.793
  600HOH      O 2004   2.252   1.276   2.429
  600HOH     H1 2005   2.309   1.285   2.352
  600HOH     H2 2006   2.233   1.183   2.434
  601HOH      O 2007   2.770   3.467   0.480
  601HOH     H1 2008   2.723   3.455   0.398
  601HOH     H2 2009   2.712   3.431   0.547
  602HOH      O 2010   3.834   0.961   1.309
  602HOH     H1 2011   3.863   0.930   1.223
  602HOH     H2 2012   3.754   1.010   1.291
  603HOH      O 2013   0.520   0.232   1.999
  603HOH     H1 2014   0.460   0.234   2.073
  603HOH     H2 2015   0.492   0.305   1.944
  604HOH      O 2016   2.269   3.805   1.746
  604HOH     H1 2017   2.284   3.797   1.840
  604HOH     H2 2018   2.338   3.752   1.706
  605HOH      O 2019   2.380   0.887   3.919
  605HOH     H1 2020   2.421   0.839   3.991
  605HOH     H2 2021   2.451   0.899   3.855
  606HOH      O 2022   3.578   0.091   0.583
  606HOH     H1 2023   3.670   0.087   0.609
  606HOH     H2 2024   3.541   0.162   0.636
  607HOH      O 2025   0.181   0.988   2.127
  607HOH     H1 2026   0.167   0.923   2.058
  607HOH     H2 2027   0.216   1.064   2.081
  608HOH      O 2028   0.088   1.855   2.581
  608HOH     H1 2029   0.118   1.864   2.491
  608HOH     H2 2030   0.057   1.765   2.587
  609HOH      O 2031   1.414   1.473   3.354
  609HOH     H1 2032   1.390   1.392   3.399
  609HOH     H2 2033   1.509   1.469   3.348
  610HOH      O 2034   2.832   3.232   0.739
  610HOH     H1 2035   2.857   3.161   0.798
  610HOH     H2 2036   2.904   3.237   0.676
  611HOH      O 2037   0.039   0.871   2.336
  611HOH     H1 2038   0.092   0.914   2.269
  611HOH     H2 2039  -0.010   0.942   2.377
  612HOH      O 2040   1.388   3.785   2.462
  612HOH     H1 2041   1.404   3.869   2.504
  612HOH     H2 2042   1.471   3.761   2.421
  613HOH      O 2043   0.499   0.370   2.648
  613HOH     H1 2044   0.465   0.424   2.577
  613HOH     H2 2045   0.594   0.369   2.634
  614HOH      O 2046   0.766   1.077   3.464
  614HOH     H1 2047   0.701   1.049   3.400
  614HOH     H2 2048   0.841   1.019   3.451
  615HOH      O 2049   1.512   2.409   3.057
  615HOH     H1 2050   1.540   2.417   3.148
  615HOH     H2 2051   1.498   2.315   3.045
  616HOH      O 2052   0.940   4.001   0.217
  616HOH     H1 2053   0.869   4.015   0.155
  616HOH     H2 2054   0.935   4.075   0.277
  617HOH      O 2055   3.104   0.596   1.142
  617HOH     H1 2056   3.089   0.541   1.219
  617HOH     H2 2057   3.196   0.621   1.147
  618HOH      O 2058   0.917   0.032   1.532
  618HOH     H1 2059   0.824   0.047   1.516
  618HOH     H2 2060   0.960   0.106   1.489
  619HOH      O 2061   1.809   2.029   1.693
  619HOH     H1 2062   1.873   1.995   1.755
  619HOH     H2 2063   1.861   2.060   1.619
  620HOH      O 2064   3.505   2.872   3.794
  620HOH     H1 2065   3.471   2.936   3.732
  620HOH     H2 2066   3.560   2.815   3.741
  621HOH      O 2067   0.348   0.749   2.763
  621HOH     H1 2068   0.329   0.661   2.795
  621HOH     H2 2069   0.356   0.739   2.668
  622HOH      O 2070   1.858   3.858   0.080
  622HOH     H1 2071   1.869   3.931   0.140
  622HOH     H2 2072   1.945   3.818   0.075
  623HOH      O 2073   1.808   2.805   2.343
  623HOH     H1 2074   1.818   2.859   2.421
  623HOH     H2 2075   1.822   2.716   2.373
  624HOH      O 2076   1.283   1.300   2.676
  624HOH     H1 2077   1.246   1.226   2.723
  624HOH     H2 2078   1.296   1.268   2.586
  625HOH      O 2079   3.505   0.478   4.011
  625HOH     H1 2080   3.532   0.567   4.032
  625HOH     H2 2081   3.568   0.449   3.944
  626HOH      O 2082   1.660   2.094   3.785
  626HOH     H1 2083   1.619   2.011   3.811
  626HOH     H2 2084   1.612   2.161   3.834
  627HOH      O 2085   1.006   1.823   2.949
  627HOH     H1 2086   1.017   1.907   2.993
  627HOH     H2 2087   1.030   1.758   3.015
  628HOH      O 2088   0.329   3.748   2.074
  628HOH     H1 2089   0.288   3.737   1.988
  628HOH     H2 2090   0.414   3.788   2.054
  629HOH      O 2091   2.047   3.503   0.471
  629HOH     H1 2092   2.071   3.564   0.402
  629HOH     H2 2093   2.036   3.558   0.549
  630HOH      O 2094   0.791   0.510   1.825
  630HOH     H1 2095   0.698   0.505   1.846
  630HOH     H2 2096   0.824   0.581   1.879
  631HOH      O 2097   1.618   1.104   0.318
  631HOH     H1 2098   1.648   1.085   0.407
  631HOH     H2 2099   1.523   1.107   0.325
  632HOH      O 2100   1.718   0.861   2.770
  632HOH     H1 2101   1.637   0.911   2.780
  632HOH     H2 2102   1.688   0.773   2.744
  633HOH      O 2103   1.353   3.596   2.657
  633HOH     H1 2104   1.390   3.626   2.740
  633HOH     H2 2105   1.385   3.659   2.592
  634HOH      O 2106   3.353   1.491   3.527
  634HOH     H1 2107   3.327   1.456   3.612
  634HOH     H2 2108   3.448   1.501   3.534
  635HOH      O 2109   3.623   0.463   1.186
  635HOH     H1 2110   3.605   0.372   1.163
  635HOH     H2 2111   3.569   0.514   1.125
  636HOH      O 2112   1.738   0.603   3.090
  636HOH     H1 2113   1.695   0.674   3.138
  636HOH     H2 2114   1.831   0.614   3.108
  637HOH      O 2115   3.294   2.782   3.969
  637HOH     H1 2116   3.219   2.779   3.910
  637HOH     H2 2117   3.369   2.793   3.910
  638HOH      O 2118   0.241   2.106   3.752
  638HOH     H1 2119   0.150   2.096   3.780
  638HOH     H2 2120   0.260   2.199   3.761
  639HOH      O 2121   2.659   3.908   3.829
  639HOH     H1 2122   2.702   3.879   3.910
  639HOH     H2 2123   2.567   3.918   3.854
  640HOH      O 2124   1.654   2.531   0.890
  640HOH     H1 2125   1.599   2.533   0.811
  640HOH     H2 2126   1.593   2.551   0.962
  641HOH      O 2127   0.230   0.220   2.614
  641HOH     H1 2128   0.189   0.306   2.607
  641HOH     H2 2129   0.324   0.238   2.619
  642HOH      O 2130   2.653   0.854   1.558
  642HOH     H1 2131   2.561   0.829   1.543
  642HOH     H2 2132   2.702   0.774   1.539
  643HOH      O 2133   2.965   0.627   0.559
  643HOH     H1 2134   3.031   0.693   0.580
  643HOH     H2 2135   2.901   0.634   0.630
  644HOH      O 2136   3.680   2.102   0.048
  644HOH     H1 2137   3.626   2.148   0.113
  644HOH     H2 2138   3.747   2.057   0.100
  645HOH      O 2139   3.574   3.032   4.018
  645HOH     H1 2140   3.562   2.978   3.940
  645HOH     H2 2141   3.639   3.098   3.991
  646HOH      O 2142   2.246   2.163   2.216
  646HOH     H1 2143   2.180   2.232   2.227
  646HOH     H2 2144   2.319   2.191   2.271
  647HOH      O 2145   1.808   0.185   3.170
  647HOH     H1 2146   1.899   0.204   3.191
  647HOH     H2 2147   1.778   0.262   3.121
  648HOH      O 2148   2.673   1.245   0.708
  648HOH     H1 2149   2.589   1.290   0.721
  648HOH     H2 2150   2.649   1.160   0.672
  649HOH      O 2151   1.620   3.330   1.891
  649HOH     H1 2152   1.663   3.257   1.935
  649HOH     H2 2153   1.563   3.290   1.826
  650HOH      O 2154   2.327   3.021   0.439
  650HOH     H1 2155   2.320   3.110   0.403
  650HOH     H2 2156   2.406   2.985   0.399
  651HOH      O 2157   3.047   0.687  -0.003
  651HOH     H1 2158   3.032   0.759   0.058
  651HOH     H2 2159   3.055   0.610   0.052
  652HOH      O 2160   1.107   2.295   0.130
  652HOH     H1 2161   1.044   2.286   0.059
  652HOH     H2 2162   1.122   2.205   0.160
  653HOH      O 2163   1.988   2.911   0.013
  653HOH     H1 2164   2.055   2.847   0.039
  653HOH     H2 2165   2.002   2.985   0.071
  654HOH      O 2166   0.683   2.478   1.515
  654HOH     H1 2167   0.747   2.407   1.507
  654HOH     H2 2168   0.728   2.555   1.482
  655HOH      O 2169   1.238   3.939   0.999
  655HOH     H1 2170   1.221   3.932   1.093
  655HOH     H2 2171   1.203   4.025   0.974
  656HOH      O 2172   0.715   1.739   0.261
  656HOH     H1 2173   0.621   1.737   0.278
  656HOH     H2 2174   0.728   1.819   0.210
  657HOH      O 2175   3.324   2.400   3.867
  657HOH     H1 2176   3.299   2.342   3.795
  657HOH     H2 2177   3.247   2.456   3.881
  658HOH      O 2178   2.440   3.789   0.028
  658HOH     H1 2179   2.492   3.802   0.107
  658HOH     H2 2180   2.424   3.877  -0.006
  659HOH      O 2181   2.378   1.722   1.224
  659HOH     H1 2182   2.432   1.801   1.225
  659HOH     H2 2183   2.292   1.752   1.255
  660HOH      O 2184   1.307   1.035   2.196
  660HOH     H1 2185   1.273   0.948   2.175
  660HOH     H2 2186   1.248   1.096   2.152
  661HOH      O 2187   0.866   0.533   3.175
  661HOH     H1 2188   0.833   0.586   3.247
  661HOH     H2 2189   0.789   0.513   3.123
  662HOH      O 2190   1.593   2.070   2.005
  662HOH     H1 2191   1.686   2.045   2.006
  662HOH     H2 2192   1.550   2.003   2.058
  663HOH      O 2193   2.159   1.594   3.078
  663HOH     H1 2194   2.220   1.667   3.067
  663HOH     H2 2195   2.209   1.516   3.053
  664HOH      O 2196   1.722   0.502   2.415
  664HOH     H1 2197   1.773   0.494   2.335
  664HOH     H2 2198   1.634   0.527   2.385
  665HOH      O 2199   1.360   3.417   1.872
  665HOH     H1 2200   1.303   3.351   1.912
  665HOH     H2 2201   1.446   3.401   1.911
  666HOH      O 2202   0.494   2.807   0.217
  666HOH     H1 2203   0.560   2.769   0.159
  666HOH     H2 2204   0.512   2.770   0.303
  667HOH      O 2205   1.498   2.138   3.009
  667HOH     H1 2206   1.434   2.113   2.942
  667HOH     H2 2207   1.541   2.056   3.032
  668HOH      O 2208   0.994   3.284   3.658
  668HOH     H1 2209   1.036   3.283   3.572
  668HOH     H2 2210   0.906   3.250   3.643
  669HOH      O 2211   0.273   3.028   1.396
  669HOH     H1 2212   0.231   2.954   1.353
  669HOH     H2 2213   0.317   3.075   1.324
  670HOH      O 2214   1.457   1.949   0.485
  670HOH     H1 2215   1.440   2.015   0.418
  670HOH     H2 2216   1.404   1.975   0.559
  671HOH      O 2217   0.478   1.555   3.691
  671HOH     H1 2218   0.465   1.483   3.753
  671HOH     H2 2219   0.571   1.576   3.698
  672HOH      O 2220   2.830   2.165   0.430
  672HOH     H1 2221   2.802   2.144   0.519
  672HOH     H2 2222   2.877   2.088   0.400
  673HOH      O 2223   0.458   3.082   0.325
  673HOH     H1 2224   0.479   2.989   0.310
  673HOH     H2 2225   0.506   3.104   0.405
  674HOH      O 2226   1.027   3.080   3.801
  674HOH     H1 2227   1.021   3.164   3.755
  674HOH     H2 2228   1.004   3.101   3.891
  675HOH      O 2229   2.250   0.755   0.361
  675HOH     H1 2230   2.307   0.681   0.381
  675HOH     H2 2231   2.177   0.746   0.423
  676HOH      O 2232   2.355   2.876   1.064
  676HOH     H1 2233   2.362   2.849   0.973
  676HOH     H2 2234   2.359   2.794   1.114
  677HOH      O 2235   2.757   0.207   4.039
  677HOH     H1 2236   2.823   0.176   4.101
  677HOH     H2 2237   2.781   0.164   3.956
  678HOH      O 2238   2.780   3.886   3.557
  678HOH     H1 2239   2.718   3.887   3.629
  678HOH     H2 2240   2.737   3.834   3.489
  679HOH      O 2241   0.372   1.891   1.835
  679HOH     H1 2242   0.411   1.978   1.842
  679HOH     H2 2243   0.446   1.831   1.841
  680HOH      O 2244   2.525   3.272   1.002
  680HOH     H1 2245   2.516   3.204   0.935
  680HOH     H2 2246   2.542   3.223   1.083
  681HOH      O 2247   3.177   0.993   2.609
  681HOH     H1 2248   3.128   0.911   2.611
  681HOH     H2 2249   3.111   1.060   2.625
  682HOH      O 2250   3.718   0.034   1.978
  682HOH     H1 2251   3.716   0.115   1.927
  682HOH     H2 2252   3.630   0.027   2.016
  683HOH      O 2253   3.766   2.976   3.613
  683HOH     H1 2254   3.859   2.990   3.594
  683HOH     H2 2255   3.727   3.063   3.605
  684HOH      O 2256   0.967   0.918   3.136
  684HOH     H1 2257   1.043   0.974   3.118
  684HOH     H2 2258   0.967   0.908   3.232
  685HOH      O 2259   1.613   3.264   3.400
  685HOH     H1 2260   1.597   3.351   3.362
  685HOH     H2 2261   1.526   3.226   3.410
  686HOH      O 2262   2.599   1.362   0.309
  686HOH     H1 2263   2.558   1.448   0.311
  686HOH     H2 2264   2.630   1.348   0.398
  687HOH      O 2265   1.747   0.660   0.620
  687HOH     H1 2266   1.840   0.674   0.639
  687HOH     H2 2267   1.734   0.698   0.533
  688HOH      O 2268   2.038   2.000   2.720
  688HOH     H1 2269   2.133   1.991   2.732
  688HOH     H2 2270   2.012   2.066   2.785
  689HOH      O 2271   2.259   2.371   3.408
  689HOH     H1 2272   2.337   2.335   3.365
  689HOH     H2 2273   2.237   2.448   3.357
  690HOH      O 2274   1.366   0.012   2.313
  690HOH     H1 2275   1.318   0.083   2.271
  690HOH     H2 2276   1.371  -0.057   2.247
  691HOH      O 2277   2.401   1.030   0.287
  691HOH     H1 2278   2.331   0.967   0.269
  691HOH     H2 2279   2.475   0.975   0.314
  692HOH      O 2280   3.488   1.321   1.088
  692HOH     H1 2281   3.545   1.358   1.020
  692HOH     H2 2282   3.455   1.398   1.135
  693HOH      O 2283   1.885   2.674   0.870
  693HOH     H1 2284   1.804   2.626   0.885
  693HOH     H2 2285   1.914   2.699   0.958
  694HOH      O 2286   3.476   3.538   3.075
  694HOH     H1 2287   3.502   3.578   3.158
  694HOH     H2 2288   3.476   3.444   3.092
  695HOH      O 2289   3.263   2.215   3.666
  695HOH     H1 2290   3.181   2.167   3.679
  695HOH     H2 2291   3.277   2.212   3.571
  696HOH      O 2292   1.955   2.108   1.478
  696HOH     H1 2293   1.928   2.198   1.461
  696HOH     H2 2294   1.942   2.063   1.395
  697HOH      O 2295   2.760   3.469   3.960
  697HOH     H1 2296   2.784   3.495   4.049
  697HOH     H2 2297   2.788   3.378   3.953
  698HOH      O 2298   2.790   3.699   2.777
  698HOH     H1 2299   2.727   3.738   2.717
  698HOH     H2 2300   2.852   3.652   2.720
  699HOH      O 2301   0.752   1.773   0.853
  699HOH     H1 2302   0.666   1.758   0.892
  699HOH     H2 2303   0.783   1.854   0.895
  700HOH      O 2304   2.276   1.499   2.603
  700HOH     H1 2305   2.298   1.577   2.552
  700HOH     H2 2306   2.266   1.430   2.537
  701HOH      O 2307   0.902   0.169   3.092
  701HOH     H1 2308   0.971   0.106   3.073
  701HOH     H2 2309   0.851   0.127   3.162
  702HOH      O 2310   1.408   0.630   1.974
  702HOH     H1 2311   1.484   0.655   2.028
  702HOH     H2 2312   1.389   0.540   2.000
  703HOH      O 2313   1.481   0.210   2.515
  703HOH     H1 2314   1.451   0.153   2.445
  703HOH     H2 2315   1.574   0.226   2.496
  704HOH      O 2316   2.985   4.019   1.854
  704HOH     H1 2317   3.051   3.960   1.892
  704HOH     H2 2318   2.902   3.987   1.889
  705HOH      O 2319   2.360   3.457   2.010
  705HOH     H1 2320   2.354   3.379   2.066
  705HOH     H2 2321   2.368   3.422   1.921
  706HOH      O 2322   3.210   0.138   1.941
  706HOH     H1 2323   3.124   0.105   1.914
  706HOH     H2 2324   3.271   0.097   1.879
  707HOH      O 2325   0.638   1.599   2.046
  707HOH     H1 2326   0.547   1.605   2.075
  707HOH     H2 2327   0.635   1.545   1.967
  708HOH      O 2328   1.089   2.774   1.382
  708HOH     H1 2329   1.130   2.844   1.434
  708HOH     H2 2330   1.161   2.739   1.330
  709HOH      O 2331   2.809   0.222   2.096
  709HOH     H1 2332   2.852   0.139   2.117
  709HOH     H2 2333   2.790   0.261   2.182
  710HOH      O 2334   2.554   1.464   0.016
  710HOH     H1 2335   2.509   1.511   0.086
  710HOH     H2 2336   2.512   1.378   0.015
  711HOH      O 2337   3.675   0.938   2.650
  711HOH     H1 2338   3.594   0.954   2.601
  711HOH     H2 2339   3.721   0.871   2.598
  712HOH      O 2340   0.919   1.316   0.265
  712HOH     H1 2341   0.945   1.227   0.241
  712HOH     H2 2342   0.843   1.334   0.210
  713HOH      O 2343   3.798   2.433   2.714
  713HOH     H1 2344   3.784   2.339   2.710
  713HOH     H2 2345   3.809   2.452   2.807
  714HOH      O 2346   3.658   2.609   0.657
  714HOH     H1 2347   3.615   2.524   0.649
  714HOH     H2 2348   3.725   2.608   0.588
  715HOH      O 2349   3.771   0.361   3.179
  715HOH     H1 2350   3.753   0.313   3.260
  715HOH     H2 2351   3.689   0.355   3.129
  716HOH      O 2352   3.881   0.939   3.020
  716HOH     H1 2353   3.938   0.924   3.095
  716HOH     H2 2354   3.793   0.914   3.051
  717HOH      O 2355   0.379   1.733   0.919
  717HOH     H1 2356   0.305   1.737   0.978
  717HOH     H2 2357   0.437   1.804   0.947
  718HOH      O 2358   0.819   2.616   1.806
  718HOH     H1 2359   0.881   2.605   1.733
  718HOH     H2 2360   0.760   2.685   1.776
  719HOH      O 2361   3.721   0.278   3.430
  719HOH     H1 2362   3.697   0.357   3.478
  719HOH     H2 2363   3.765   0.223   3.495
  720HOH      O 2364   1.806   0.964   0.783
  720HOH     H1 2365   1.742   0.983   0.851
  720HOH     H2 2366   1.827   0.871   0.794
  721HOH      O 2367   0.373   1.516   0.264
  721HOH     H1 2368   0.363   1.511   0.360
  721HOH     H2 2369   0.287   1.493   0.230
  722HOH      O 2370   1.887   2.397   2.121
  722HOH     H1 2371   1.955   2.346   2.077
  722HOH     H2 2372   1.857   2.459   2.054
  723HOH      O 2373   1.626   1.430   3.614
  723HOH     H1 2374   1.672   1.427   3.530
  723HOH     H2 2375   1.672   1.366   3.669
  724HOH      O 2376   1.558   2.087   1.611
  724HOH     H1 2377   1.637   2.070   1.663
  724HOH     H2 2378   1.486   2.085   1.674
  725HOH      O 2379   1.598   3.161   1.197
  725HOH     H1 2380   1.506   3.174   1.219
  725HOH     H2 2381   1.624   3.242   1.154
  726HOH      O 2382   0.832   2.873   3.796
  726HOH     H1 2383   0.884   2.953   3.785
  726HOH     H2 2384   0.891   2.811   3.837
  727HOH      O 2385   0.200   1.724   1.124
  727HOH     H1 2386   0.244   1.762   1.201
  727HOH     H2 2387   0.109   1.715   1.151
  728HOH      O 2388   0.329   0.544   3.314
  728HOH     H1 2389   0.272   0.507   3.247
  728HOH     H2 2390   0.310   0.637   3.313
  729HOH      O 2391   1.850   1.347   1.419
  729HOH     H1 2392   1.862   1.254   1.436
  729HOH     H2 2393   1.915   1.368   1.352
  730HOH      O 2394   1.946   1.199   0.622
  730HOH     H1 2395   1.902   1.262   0.678
  730HOH     H2 2396   1.935   1.115   0.667
  731HOH      O 2397   2.733   2.684   0.335
  731HOH     H1 2398   2.802   2.624   0.363
  731HOH     H2 2399   2.724   2.668   0.241
  732HOH      O 2400   3.088   2.169   1.009
  732HOH     H1 2401   3.056   2.185   0.920
  732HOH     H2 2402   3.182   2.156   0.998
  733HOH      O 2403   1.684   1.093   0.062
  733HOH     H1 2404   1.638   1.161   0.013
  733HOH     H2 2405   1.658   1.108   0.153
  734HOH      O 2406   3.707   1.051   3.921
  734HOH     H1 2407   3.754   0.999   3.856
  734HOH     H2 2408   3.614   1.038   3.900
  735HOH      O 2409   0.348   2.517   0.203
  735HOH     H1 2410   0.419   2.468   0.245
  735HOH     H2 2411   0.336   2.594   0.259
  736HOH      O 2412   2.088   2.330   0.388
  736HOH     H1 2413   2.017   2.368   0.439
  736HOH     H2 2414   2.060   2.339   0.297
  737HOH      O 2415   1.664   0.384   0.654
  737HOH     H1 2416   1.711   0.468   0.654
  737HOH     H2 2417   1.577   0.405   0.688
  738HOH      O 2418   3.586   3.497   0.117
  738HOH     H1 2419   3.675   3.468   0.138
  738HOH     H2 2420   3.534   3.472   0.194
  739HOH      O 2421   3.787   0.247   0.959
  739HOH     H1 2422   3.743   0.194   0.892
  739HOH     H2 2423   3.739   0.229   1.039
  740HOH      O 2424   0.082   3.868  -0.024
  740HOH     H1 2425   0.170   3.883   0.011
  740HOH     H2 2426   0.023   3.906   0.041
  741HOH      O 2427   1.175   1.819   0.551
  741HOH     H1 2428   1.181   1.744   0.611
  741HOH     H2 2429   1.158   1.894   0.609
  742HOH      O 2430   1.666   2.153   3.229
  742HOH     H1 2431   1.578   2.138   3.194
  742HOH     H2 2432   1.671   2.096   3.305
  743HOH      O 2433   2.955   2.047   3.211
  743HOH     H1 2434   2.895   1.972   3.207
  743HOH     H2 2435   2.934   2.099   3.133
  744HOH      O 2436   0.267   1.774   0.670
  744HOH     H1 2437   0.309   1.752   0.753
  744HOH     H2 2438   0.323   1.842   0.631
  745HOH      O 2439   0.902   0.878   1.325
  745HOH     H1 2440   0.873   0.958   1.369
  745HOH     H2 2441   0.841   0.867   1.252
  746HOH      O 2442   1.612   2.381   2.777
  746HOH     H1 2443   1.626   2.397   2.870
  746HOH     H2 2444   1.528   2.336   2.772
  747HOH      O 2445   2.081   2.449   0.723
  747HOH     H1 2446   2.098   2.474   0.632
  747HOH     H2 2447   2.168   2.447   0.763
  748HOH      O 2448   3.964   0.540   2.052
  748HOH     H1 2449   3.990   0.595   2.125
  748HOH     H2 2450   4.001   0.454   2.072
  749HOH      O 2451   0.627   0.960   3.793
  749HOH     H1 2452   0.640   1.055   3.789
  749HOH     H2 2453   0.606   0.935   3.703
  750HOH      O 2454   3.694   0.465   1.842
  750HOH     H1 2455   3.783   0.480   1.873
  750HOH     H2 2456   3.639   0.475   1.920
  751HOH      O 2457   2.879   4.028   2.538
  751HOH     H1 2458   2.957   3.974   2.551
  751HOH     H2 2459   2.881   4.052   2.446
  752HOH      O 2460   1.573   0.512   0.359
  752HOH     H1 2461   1.604   0.601   0.341
  752HOH     H2 2462   1.638   0.455   0.319
  753HOH      O 2463   2.249   3.442   1.733
  753HOH     H1 2464   2.229   3.460   1.641
  753HOH     H2 2465   2.176   3.388   1.763
  754HOH      O 2466   3.831   0.852   3.756
  754HOH     H1 2467   3.908   0.902   3.784
  754HOH     H2 2468   3.861   0.762   3.748
  755HOH      O 2469   3.148   1.847   2.011
  755HOH     H1 2470   3.205   1.770   2.002
  755HOH     H2 2471   3.205   1.914   2.048
  756HOH      O 2472   2.529   2.259   3.055
  756HOH     H1 2473   2.566   2.176   3.025
  756HOH     H2 2474   2.604   2.316   3.066
  757HOH      O 2475   1.342   2.247   2.512
  757HOH     H1 2476   1.359   2.327   2.562
  757HOH     H2 2477   1.404   2.250   2.439
  758HOH      O 2478   0.909   0.173   2.024
  758HOH     H1 2479   0.891   0.109   1.955
  758HOH     H2 2480   0.965   0.238   1.982
  759HOH      O 2481   1.131   3.539   0.777
  759HOH     H1 2482   1.168   3.593   0.847
  759HOH     H2 2483   1.129   3.451   0.814
  760HOH      O 2484   1.782   3.510   2.220
  760HOH     H1 2485   1.745   3.443   2.278
  760HOH     H2 2486   1.866   3.473   2.192
  761HOH      O 2487   0.675   1.687   2.970
  761HOH     H1 2488   0.605   1.752   2.980
  761HOH     H2 2489   0.718   1.712   2.889
  762HOH      O 2490   0.499   0.254   1.174
  762HOH     H1 2491   0.590   0.246   1.201
  762HOH     H2 2492   0.450   0.205   1.240
  763HOH      O 2493   2.247   3.205   2.072
  763HOH     H1 2494   2.216   3.115   2.086
  763HOH     H2 2495   2.285   3.231   2.156
  764HOH      O 2496   1.202   2.129   2.119
  764HOH     H1 2497   1.131   2.191   2.104
  764HOH     H2 2498   1.277   2.183   2.144
  765HOH      O 2499   1.204   0.020   1.504
  765HOH     H1 2500   1.251   0.051   1.582
  765HOH     H2 2501   1.119  -0.009   1.538
  766HOH      O 2502   1.495   3.013   0.666
  766HOH     H1 2503   1.453   3.092   0.633
  766HOH     H2 2504   1.445   2.991   0.745
  767HOH      O 2505   3.801   1.507   3.091
  767HOH     H1 2506   3.871   1.443   3.107
  767HOH     H2 2507   3.732   1.482   3.152
  768HOH      O 2508   0.929   2.139   2.511
  768HOH     H1 2509   0.989   2.210   2.533
  768HOH     H2 2510   0.890   2.114   2.594
  769HOH      O 2511   2.502   3.789   3.085
  769HOH     H1 2512   2.471   3.878   3.102
  769HOH     H2 2513   2.422   3.738   3.074
  770HOH      O 2514   3.512   1.744   2.765
  770HOH     H1 2515   3.460   1.740   2.685
  770HOH     H2 2516   3.452   1.782   2.830
  771HOH      O 2517   0.187   0.449   3.108
  771HOH     H1 2518   0.199   0.358   3.134
  771HOH     H2 2519   0.093   0.464   3.114
  772HOH      O 2520   2.868   0.722   1.026
  772HOH     H1 2521   2.962   0.704   1.024
  772HOH     H2 2522   2.852   0.778   0.950
  773HOH      O 2523   1.331   0.233   3.839
  773HOH     H1 2524   1.260   0.292   3.863
  773HOH     H2 2525   1.401   0.290   3.808
  774HOH      O 2526   0.327   0.435   1.898
  774HOH     H1 2527   0.318   0.470   1.987
  774HOH     H2 2528   0.240   0.442   1.861
  775HOH      O 2529   1.781   3.235   0.052
  775HOH     H1 2530   1.705   3.288   0.028
  775HOH     H2 2531   1.768   3.152   0.006
  776HOH      O 2532   1.600   2.792   0.532
  776HOH     H1 2533   1.556   2.864   0.577
  776HOH     H2 2534   1.676   2.833   0.490
  777HOH      O 2535   0.550   3.294   1.909
  777HOH     H1 2536   0.526   3.323   1.821
  777HOH     H2 2537   0.612   3.359   1.941
  778HOH      O 2538   1.300   3.207   1.318
  778HOH     H1 2539   1.222   3.240   1.271
  778HOH     H2 2540   1.301   3.256   1.400
  779HOH      O 2541   0.764   3.715   0.433
  779HOH     H1 2542   0.814   3.687   0.509
  779HOH     H2 2543   0.759   3.811   0.442
  780HOH      O 2544   3.998   1.920   1.808
  780HOH     H1 2545   3.924   1.883   1.759
  780HOH     H2 2546   4.073   1.910   1.750
  781HOH      O 2547   2.180   0.720   2.624
  781HOH     H1 2548   2.106   0.712   2.564
  781HOH     H2 2549   2.198   0.630   2.652
  782HOH      O 2550   2.527   3.568   2.545
  782HOH     H1 2551   2.519   3.560   2.450
  782HOH     H2 2552   2.598   3.630   2.558
  783HOH      O 2553   3.963   0.969   2.690
  783HOH     H1 2554   3.949   0.997   2.600
  783HOH     H2 2555   4.004   0.883   2.683
  784HOH      O 2556   3.270   0.118   2.202
  784HOH     H1 2557   3.296   0.210   2.205
  784HOH     H2 2558   3.266   0.097   2.109
  785HOH      O 2559   2.413   2.462   0.717
  785HOH     H1 2560   2.360   2.384   0.729
  785HOH     H2 2561   2.467   2.443   0.640
  786HOH      O 2562   0.301   0.588   2.123
  786HOH     H1 2563   0.323   0.531   2.197
  786HOH     H2 2564   0.213   0.619   2.142
  787HOH      O 2565   0.658   3.548   2.389
  787HOH     H1 2566   0.720   3.485   2.352
  787HOH     H2 2567   0.703   3.583   2.466
  788HOH      O 2568   2.981   2.060   2.713
  788HOH     H1 2569   2.887   2.067   2.700
  788HOH     H2 2570   3.019   2.072   2.626
  789HOH      O 2571   0.156   0.661   1.413
  789HOH     H1 2572   0.122   0.698   1.331
  789HOH     H2 2573   0.078   0.640   1.464
  790HOH      O 2574   1.587   2.812   2.149
  790HOH     H1 2575   1.559   2.902   2.165
  790HOH     H2 2576   1.654   2.795   2.215
  791HOH      O 2577   2.288   1.534   0.476
  791HOH     H1 2578   2.282   1.439   0.471
  791HOH     H2 2579   2.301   1.553   0.569
  792HOH      O 2580   3.661   0.901   0.704
  792HOH     H1 2581   3.613   0.826   0.669
  792HOH     H2 2582   3.673   0.958   0.628
  793HOH      O 2583   0.777   0.716   1.565
  793HOH     H1 2584   0.818   0.750   1.644
  793HOH     H2 2585   0.744   0.793   1.519
  794HOH      O 2586   0.717   3.379   1.411
  794HOH     H1 2587   0.701   3.468   1.380
  794HOH     H2 2588   0.694   3.322   1.337
  795HOH      O 2589   2.587   3.814   2.639
  795HOH     H1 2590   2.507   3.849   2.678
  795HOH     H2 2591   2.578   3.832   2.545
  796HOH      O 2592   3.852   1.039   3.531
  796HOH     H1 2593   3.826   0.985   3.605
  796HOH     H2 2594   3.921   1.095   3.566
  797HOH      O 2595   2.752   0.603   1.861
  797HOH     H1 2596   2.813   0.621   1.932
  797HOH     H2 2597   2.669   0.640   1.891
  798HOH      O 2598   2.023   0.282   2.727
  798HOH     H1 2599   2.052   0.198   2.761
  798HOH     H2 2600   2.044   0.279   2.634
  799HOH      O 2601   1.851   3.598   0.231
  799HOH     H1 2602   1.877   3.660   0.299
  799HOH     H2 2603   1.817   3.652   0.160
  800HOH      O 2604   1.353   0.916   3.632
  800HOH     H1 2605   1.324   0.904   3.542
  800HOH     H2 2606   1.436   0.868   3.637
  801HOH      O 2607   1.010   1.610   1.270
  801HOH     H1 2608   1.008   1.547   1.198
  801HOH     H2 2609   1.102   1.632   1.281
  802HOH      O 2610   2.926   2.978   1.408
  802HOH     H1 2611   2.862   3.042   1.379
  802HOH     H2 2612   2.905   2.898   1.359
  803HOH      O 2613   2.010   1.841   0.983
  803HOH     H1 2614   2.054   1.776   0.929
  803HOH     H2 2615   1.929   1.862   0.936
  804HOH      O 2616   2.621   2.803   0.575
  804HOH     H1 2617   2.591   2.869   0.513
  804HOH     H2 2618   2.614   2.720   0.528
  805HOH      O 2619   0.421   3.153   2.689
  805HOH     H1 2620   0.336   3.118   2.660
  805HOH     H2 2621   0.478   3.141   2.613
  806HOH      O 2622   2.019   2.173   1.998
  806HOH     H1 2623   2.067   2.204   1.922
  806HOH     H2 2624   1.964   2.102   1.965
  807HOH      O 2625   2.064   1.439   0.957
  807HOH     H1 2626   2.068   1.354   1.001
  807HOH     H2 2627   2.146   1.483   0.982
  808HOH      O 2628   0.107   2.087   0.323
  808HOH     H1 2629   0.191   2.126   0.345
  808HOH     H2 2630   0.128   1.997   0.299
  809HOH      O 2631   3.865   2.392   0.678
  809HOH     H1 2632   3.794   2.339   0.641
  809HOH     H2 2633   3.942   2.368   0.626
  810HOH      O 2634   0.281   2.638   1.801
  810HOH     H1 2635   0.304   2.686   1.880
  810HOH     H2 2636   0.185   2.636   1.801
  811HOH      O 2637   1.084   0.663   1.191
  811HOH     H1 2638   0.996   0.701   1.183
  811HOH     H2 2639   1.142   0.740   1.198
  812HOH      O 2640   3.772   1.732   3.594
  812HOH     H1 2641   3.797   1.743   3.686
  812HOH     H2 2642   3.841   1.677   3.557
  813HOH      O 2643   0.929   1.829   1.664
  813HOH     H1 2644   0.906   1.843   1.755
  813HOH     H2 2645   0.972   1.911   1.637
  814HOH      O 2646   0.369   4.041   3.306
  814HOH     H1 2647   0.432   3.972   3.326
  814HOH     H2 2648   0.338   4.020   3.217
  815HOH      O 2649   3.644   3.834   2.343
  815HOH     H1 2650   3.717   3.829   2.280
  815HOH     H2 2651   3.632   3.744   2.372
  816HOH      O 2652   3.754   3.932   1.273
  816HOH     H1 2653   3.846   3.931   1.244
  816HOH     H2 2654   3.718   3.850   1.239
  817HOH      O 2655   1.471   2.987   3.631
  817HOH     H1 2656   1.473   3.039   3.711
  817HOH     H2 2657   1.454   3.051   3.561
  818HOH      O 2658   3.581   3.192   2.476
  818HOH     H1 2659   3.615   3.263   2.530
  818HOH     H2 2660   3.641   3.119   2.491
  819HOH      O 2661   1.245   1.798   2.111
  819HOH     H1 2662   1.311   1.863   2.135
  819HOH     H2 2663   1.220   1.758   2.194
  820HOH      O 2664   2.990   1.740   3.783
  820HOH     H1 2665   2.960   1.650   3.789
  820HOH     H2 2666   3.076   1.739   3.825
  821HOH      O 2667   0.258   3.205   0.672
  821HOH     H1 2668   0.165   3.191   0.652
  821HOH     H2 2669   0.295   3.117   0.677
  822HOH      O 2670   3.487   3.215   1.695
  822HOH     H1 2671   3.544   3.274   1.645
  822HOH     H2 2672   3.518   3.127   1.672
  823HOH      O 2673   2.143   0.925   0.186
  823HOH     H1 2674   2.180   0.847   0.227
  823HOH     H2 2675   2.117   0.896   0.099
  824HOH      O 2676   2.835   1.205   3.931
  824HOH     H1 2677   2.763   1.150   3.960
  824HOH     H2 2678   2.836   1.196   3.836
  825HOH      O 2679   2.650   1.218   3.106
  825HOH     H1 2680   2.649   1.302   3.153
  825HOH     H2 2681   2.724   1.171   3.143
  826HOH      O 2682   2.460   0.770   0.099
  826HOH     H1 2683   2.538   0.740   0.146
  826HOH     H2 2684   2.402   0.694   0.096
  827HOH      O 2685   0.566   2.128   1.390
  827HOH     H1 2686   0.575   2.143   1.296
  827HOH     H2 2687   0.652   2.095   1.416
  828HOH      O 2688   2.381   2.681   1.251
  828HOH     H1 2689   2.296   2.663   1.292
  828HOH     H2 2690   2.445   2.652   1.315
  829HOH      O 2691   0.803   3.700   3.201
  829HOH     H1 2692   0.859   3.676   3.275
  829HOH     H2 2693   0.826   3.638   3.132
  830HOH      O 2694   3.082   1.917   2.341
  830HOH     H1 2695   3.047   1.875   2.419
  830HOH     H2 2696   3.012   1.975   2.312
  831HOH      O 2697   2.536   1.838   0.644
  831HOH     H1 2698   2.480   1.900   0.596
  831HOH     H2 2699   2.617   1.886   0.659
  832HOH      O 2700   0.486   2.935   1.845
  832HOH     H1 2701   0.449   2.982   1.770
  832HOH     H2 2702   0.413   2.884   1.880
  833HOH      O 2703   2.519   0.809   0.689
  833HOH     H1 2704   2.600   0.851   0.662
  833HOH     H2 2705   2.523   0.722   0.650
  834HOH      O 2706   2.085   2.403   2.307
  834HOH     H1 2707   2.045   2.361   2.383
  834HOH     H2 2708   2.012   2.432   2.253
  835HOH      O 2709   1.361   1.917   1.781
  835HOH     H1 2710   1.447   1.895   1.817
  835HOH     H2 2711   1.318   1.832   1.768
  836HOH      O 2712   2.125   0.274   3.048
  836HOH     H1 2713   2.064   0.213   3.006
  836HOH     H2 2714   2.211   0.242   3.023
  837HOH      O 2715   0.358   1.496   1.391
  837HOH     H1 2716   0.394   1.582   1.411
  837HOH     H2 2717   0.348   1.495   1.296
  838HOH      O 2718   1.296   1.342   0.139
  838HOH     H1 2719   1.308   1.266   0.195
  838HOH     H2 2720   1.242   1.402   0.190
  839HOH      O 2721   2.839   3.848   1.195
  839HOH     H1 2722   2.841   3.865   1.101
  839HOH     H2 2723   2.792   3.765   1.203
  840HOH      O 2724   0.340   0.769   0.259
  840HOH     H1 2725   0.412   0.762   0.196
  840HOH     H2 2726   0.331   0.681   0.295
  841HOH      O 2727   3.833   3.746   1.599
  841HOH     H1 2728   3.781   3.813   1.644
  841HOH     H2 2729   3.910   3.793   1.568
  842HOH      O 2730   0.059   2.771   3.149
  842HOH     H1 2731  -0.019   2.778   3.204
  842HOH     H2 2732   0.124   2.827   3.191
  843HOH      O 2733   2.590   3.731   0.651
  843HOH     H1 2734   2.678   3.736   0.687
  843HOH     H2 2735   2.601   3.749   0.557
  844HOH      O 2736   1.724   0.210   2.418
  844HOH     H1 2737   1.762   0.298   2.412
  844HOH     H2 2738   1.757   0.164   2.341
  845HOH      O 2739   0.549   2.595   2.103
  845HOH     H1 2740   0.562   2.528   2.036
  845HOH     H2 2741   0.568   2.550   2.186
  846HOH      O 2742   1.516   3.085   2.160
  846HOH     H1 2743   1.553   3.092   2.248
  846HOH     H2 2744   1.589   3.107   2.102
  847HOH      O 2745   1.722   2.535   1.371
  847HOH     H1 2746   1.687   2.497   1.451
  847HOH     H2 2747   1.781   2.468   1.336
  848HOH      O 2748   3.487   1.730   1.193
  848HOH     H1 2749   3.431   1.653   1.183
  848HOH     H2 2750   3.562   1.700   1.243
  849HOH      O 2751   2.324   3.643   0.675
  849HOH     H1 2752   2.405   3.693   0.682
  849HOH     H2 2753   2.348   3.565   0.625
  850HOH      O 2754   3.781   0.052   0.356
  850HOH     H1 2755   3.703   0.102   0.328
  850HOH     H2 2756   3.748  -0.008   0.423
  851HOH      O 2757   3.532   3.986   0.079
  851HOH     H1 2758   3.490   4.025   0.156
  851HOH     H2 2759   3.555   4.060   0.024
  852HOH      O 2760   0.701   3.289   2.673
  852HOH     H1 2761   0.640   3.338   2.729
  852HOH     H2 2762   0.649   3.217   2.638
  853HOH      O 2763   0.702   2.295   2.412
  853HOH     H1 2764   0.656   2.237   2.473
  853HOH     H2 2765   0.792   2.298   2.447
  854HOH      O 2766   2.574   2.950   0.327
  854HOH     H1 2767   2.573   3.009   0.252
  854HOH     H2 2768   2.647   2.890   0.310
  855HOH      O 2769   0.959   3.338   2.728
  855HOH     H1 2770   0.979   3.255   2.771
  855HOH     H2 2771   0.872   3.326   2.691
  856HOH      O 2772   2.714   2.412   1.275
  856HOH     H1 2773   2.749   2.393   1.188
  856HOH     H2 2774   2.694   2.326   1.313
  857HOH      O 2775   0.166   2.478   0.909
  857HOH     H1 2776   0.136   2.411   0.971
  857HOH     H2 2777   0.085   2.522   0.882
  858HOH      O 2778   0.205   4.009   2.504
  858HOH     H1 2779   0.222   4.094   2.544
  858HOH     H2 2780   0.109   4.004   2.499
  859HOH      O 2781   1.907   2.577   2.461
  859HOH     H1 2782   1.856   2.521   2.521
  859HOH     H2 2783   1.980   2.608   2.513
  860HOH      O 2784   1.054   1.489   2.199
  860HOH     H1 2785   1.111   1.532   2.263
  860HOH     H2 2786   1.001   1.560   2.162
  861HOH      O 2787   0.091   2.833   3.761
  861HOH     H1 2788   0.051   2.809   3.677
  861HOH     H2 2789   0.067   2.762   3.820
  862HOH      O 2790   0.376   2.187   2.376
  862HOH     H1 2791   0.357   2.207   2.467
  862HOH     H2 2792   0.457   2.136   2.379
  863HOH      O 2793   2.415   3.724   1.977
  863HOH     H1 2794   2.510   3.727   1.990
  863HOH     H2 2795   2.390   3.636   2.006
  864HOH      O 2796   2.874   1.770   0.780
  864HOH     H1 2797   2.931   1.805   0.712
  864HOH     H2 2798   2.806   1.723   0.733
  865HOH      O 2799   2.700   2.022   2.689
  865HOH     H1 2800   2.726   1.977   2.608
  865HOH     H2 2801   2.611   2.052   2.673
  866HOH      O 2802   2.788   2.627   1.077
  866HOH     H1 2803   2.703   2.584   1.086
  866HOH     H2 2804   2.805   2.630   0.983
  867HOH      O 2805   2.548   3.884   2.380
  867HOH     H1 2806   2.621   3.910   2.324
  867HOH     H2 2807   2.510   3.808   2.338
  868HOH      O 2808   3.351   0.870   2.245
  868HOH     H1 2809   3.358   0.777   2.225
  868HOH     H2 2810   3.403   0.913   2.177
  869HOH      O 2811   1.882   2.834   3.276
  869HOH     H1 2812   1.929   2.906   3.318
  869HOH     H2 2813   1.885   2.855   3.183
  870HOH      O 2814   3.951   1.080   2.457
  870HOH     H1 2815   3.857   1.059   2.455
  870HOH     H2 2816   3.954   1.176   2.455
  871HOH      O 2817   1.531   2.410   3.503
  871HOH     H1 2818   1.616   2.425   3.463
  871HOH     H2 2819   1.542   2.330   3.555
  872HOH      O 2820   1.550   0.305   1.867
  872HOH     H1 2821   1.488   0.349   1.809
  872HOH     H2 2822   1.586   0.234   1.813
  873HOH      O 2823   1.513   3.395   0.394
  873HOH     H1 2824   1.596   3.395   0.442
  873HOH     H2 2825   1.496   3.487   0.374
  874HOH      O 2826   1.792   0.097   0.890
  874HOH     H1 2827   1.834   0.074   0.973
  874HOH     H2 2828   1.752   0.015   0.860
  875HOH      O 2829   2.262   2.215   2.961
  875HOH     H1 2830   2.253   2.133   2.912
  875HOH     H2 2831   2.356   2.225   2.974
  876HOH      O 2832   1.516   2.926   1.891
  876HOH     H1 2833   1.604   2.947   1.859
  876HOH     H2 2834   1.530   2.894   1.980
  877HOH      O 2835   0.651   0.588   1.085
  877HOH     H1 2836   0.687   0.565   1.171
  877HOH     H2 2837   0.599   0.512   1.059
  878HOH      O 2838   0.748   1.638   3.685
  878HOH     H1 2839   0.733   1.671   3.774
  878HOH     H2 2840   0.842   1.620   3.682
  879HOH      O 2841   3.845   2.949   3.156
  879HOH     H1 2842   3.772   3.010   3.153
  879HOH     H2 2843   3.898   2.969   3.079
  880HOH      O 2844   2.454   0.957   0.907
  880HOH     H1 2845   2.497   0.934   0.989
  880HOH     H2 2846   2.505   0.909   0.840
  881HOH      O 2847   1.325   3.103   2.924
  881HOH     H1 2848   1.236   3.136   2.916
  881HOH     H2 2849   1.379   3.181   2.932
  882HOH      O 2850   2.282   0.186   1.922
  882HOH     H1 2851   2.278   0.226   1.835
  882HOH     H2 2852   2.343   0.241   1.971
  883HOH      O 2853   1.381   0.389   2.111
  883HOH     H1 2854   1.325   0.318   2.142
  883HOH     H2 2855   1.439   0.348   2.047
  884HOH      O 2856   1.440   3.144   0.328
  884HOH     H1 2857   1.451   3.238   0.341
  884HOH     H2 2858   1.528   3.112   0.312
  885HOH      O 2859   3.028   1.695   1.794
  885HOH     H1 2860   3.033   1.685   1.889
  885HOH     H2 2861   2.986   1.780   1.780
  886HOH      O 2862   2.013   0.053   3.963
  886HOH     H1 2863   2.079  -0.015   3.945
  886HOH     H2 2864   1.929   0.008   3.951
  887HOH      O 2865   3.665   1.906   2.896
  887HOH     H1 2866   3.613   1.852   2.836
  887HOH     H2 2867   3.606   1.926   2.968
  888HOH      O 2868   1.254   1.291   0.809
  888HOH     H1 2869   1.247   1.290   0.904
  888HOH     H2 2870   1.289   1.378   0.789
  889HOH      O 2871   1.402   2.258   2.228
  889HOH     H1 2872   1.384   2.350   2.247
  889HOH     H2 2873   1.497   2.253   2.218
  890HOH      O 2874   0.415   3.304   0.161
  890HOH     H1 2875   0.393   3.363   0.233
  890HOH     H2 2876   0.420   3.217   0.202
  891HOH      O 2877   2.451   1.514   2.353
  891HOH     H1 2878   2.502   1.441   2.318
  891HOH     H2 2879   2.376   1.522   2.294
  892HOH      O 2880   3.980   0.095   1.738
  892HOH     H1 2881   3.917   0.072   1.806
  892HOH     H2 2882   4.065   0.093   1.782
  893HOH      O 2883   2.120   3.300   3.297
  893HOH     H1 2884   2.200   3.287   3.348
  893HOH     H2 2885   2.147   3.288   3.206
  894HOH      O 2886   2.420   3.448   0.499
  894HOH     H1 2887   2.407   3.391   0.423
  894HOH     H2 2888   2.479   3.398   0.556
  895HOH      O 2889   0.594   2.178   2.627
  895HOH     H1 2890   0.566   2.266   2.648
  895HOH     H2 2891   0.567   2.125   2.702
  896HOH      O 2892   2.232   1.598   3.571
  896HOH     H1 2893   2.314   1.646   3.578
  896HOH     H2 2894   2.176   1.653   3.517
  897HOH      O 2895   2.515   0.972   1.894
  897HOH     H1 2896   2.456   0.926   1.835
  897HOH     H2 2897   2.505   1.064   1.871
  898HOH      O 2898   2.074   0.182   0.235
  898HOH     H1 2899   2.123   0.103   0.212
  898HOH     H2 2900   2.082   0.237   0.157
  899HOH      O 2901   0.366   0.977   2.947
  899HOH     H1 2902   0.353   0.890   2.910
  899HOH     H2 2903   0.376   0.961   3.041
  900HOH      O 2904   1.874   0.599   3.957
  900HOH     H1 2905   1.910   0.678   3.915
  900HOH     H2 2906   1.780   0.616   3.963
  901HOH      O 2907   2.871   1.863   1.945
  901HOH     H1 2908   2.820   1.837   2.021
  901HOH     H2 2909   2.952   1.900   1.982
  902HOH      O 2910   0.686   2.779   3.285
  902HOH     H1 2911   0.782   2.782   3.290
  902HOH     H2 2912   0.658   2.869   3.301
  903HOH      O 2913   1.509   0.169   0.728
  903HOH     H1 2914   1.597   0.203   0.747
  903HOH     H2 2915   1.484   0.121   0.807
  904HOH      O 2916   2.273   2.208   0.711
  904HOH     H1 2917   2.231   2.152   0.646
  904HOH     H2 2918   2.264   2.160   0.793
  905HOH      O 2919   3.514   2.649  -0.008
  905HOH     H1 2920   3.425   2.679  -0.028
  905HOH     H2 2921   3.505   2.603   0.076
  906HOH      O 2922   1.945   3.454   3.468
  906HOH     H1 2923   1.898   3.485   3.391
  906HOH     H2 2924   2.021   3.407   3.432
  907HOH      O 2925   2.063   3.809   1.374
  907HOH     H1 2926   2.147   3.815   1.328
  907HOH     H2 2927   2.029   3.723   1.351
  908HOH      O 2928   0.361   0.309   0.633
  908HOH     H1 2929   0.339   0.354   0.715
  908HOH     H2 2930   0.435   0.359   0.598
  909HOH      O 2931   3.768   3.001   2.482
  909HOH     H1 2932   3.723   2.920   2.505
  909HOH     H2 2933   3.829   3.017   2.553
  910HOH      O 2934   3.886   2.905   1.446
  910HOH     H1 2935   3.864   2.866   1.531
  910HOH     H2 2936   3.933   2.985   1.468
  911HOH      O 2937   0.762   1.945   3.488
  911HOH     H1 2938   0.843   1.918   3.446
  911HOH     H2 2939   0.712   1.864   3.500
  912HOH      O 2940   3.253   3.669   2.197
  912HOH     H1 2941   3.188   3.604   2.171
  912HOH     H2 2942   3.202   3.744   2.227
  913HOH      O 2943   2.679   2.535   0.766
  913HOH     H1 2944   2.597   2.531   0.716
  913HOH     H2 2945   2.671   2.466   0.832
  914HOH      O 2946   3.194   3.999   3.054
  914HOH     H1 2947   3.170   3.920   3.005
  914HOH     H2 2948   3.288   3.993   3.066
  915HOH      O 2949   1.298   3.211   2.052
  915HOH     H1 2950   1.226   3.151   2.072
  915HOH     H2 2951   1.377   3.163   2.077
  916HOH      O 2952   0.806   0.564   3.907
  916HOH     H1 2953   0.815   0.496   3.974
  916HOH     H2 2954   0.776   0.641   3.955
  917HOH      O 2955   2.468   3.656   2.270
  917HOH     H1 2956   2.379   3.621   2.268
  917HOH     H2 2957   2.509   3.623   2.190
  918HOH      O 2958   1.819   2.020   0.101
  918HOH     H1 2959   1.743   1.969   0.075
  918HOH     H2 2960   1.888   1.956   0.115
  919HOH      O 2961   2.163   2.290   3.877
  919HOH     H1 2962   2.090   2.283   3.815
  919HOH     H2 2963   2.122   2.323   3.957
  920HOH      O 2964   2.622   1.539   3.824
  920HOH     H1 2965   2.563   1.612   3.804
  920HOH     H2 2966   2.574   1.486   3.887
  921HOH      O 2967   2.526   1.922   2.321
  921HOH     H1 2968   2.498   2.009   2.349
  921HOH     H2 2969   2.520   1.924   2.225
  922HOH      O 2970   1.766   3.044   1.378
  922HOH     H1 2971   1.824   3.113   1.409
  922HOH     H2 2972   1.693   3.090   1.337
  923HOH      O 2973   1.603   0.747   2.191
  923HOH     H1 2974   1.650   0.807   2.134
  923HOH     H2 2975   1.561   0.803   2.256
  924HOH      O 2976   2.450   1.729   3.686
  924HOH     H1 2977   2.405   1.814   3.696
  924HOH     H2 2978   2.542   1.753   3.672
  925HOH      O 2979   0.723   3.797   2.273
  925HOH     H1 2980   0.707   3.708   2.305
  925HOH     H2 2981   0.818   3.801   2.260
  926HOH      O 2982   1.876   3.985   1.829
  926HOH     H1 2983   1.955   4.026   1.864
  926HOH     H2 2984   1.908   3.923   1.763
  927HOH      O 2985   2.645   0.322   1.154
  927HOH     H1 2986   2.594   0.271   1.216
  927HOH     H2 2987   2.680   0.395   1.205
  928HOH      O 2988   0.565   3.892   0.239
  928HOH     H1 2989   0.591   3.802   0.260
  928HOH     H2 2990   0.503   3.917   0.307
  929HOH      O 2991   3.371   0.360   1.083
  929HOH     H1 2992   3.351   0.273   1.116
  929HOH     H2 2993   3.357   0.418   1.157
  930HOH      O 2994   2.747   2.152   3.399
  930HOH     H1 2995   2.714   2.088   3.462
  930HOH     H2 2996   2.822   2.108   3.358
  931HOH      O 2997   0.027   2.874   1.812
  931HOH     H1 2998   0.027   2.794   1.759
  931HOH     H2 2999   0.048   2.944   1.750
  932HOH      O 3000   0.049   1.819   2.936
  932HOH     H1 3001   0.030   1.782   3.022
  932HOH     H2 3002   0.142   1.841   2.939
  933HOH      O 3003   1.182   2.553   3.673
  933HOH     H1 3004   1.207   2.467   3.709
  933HOH     H2 3005   1.117   2.586   3.735
  934HOH      O 3006   3.924   3.490   1.756
  934HOH     H1 3007   3.874   3.480   1.837
  934HOH     H2 3008   3.883   3.564   1.712
  935HOH      O 3009   1.012   2.312   2.052
  935HOH     H1 3010   0.999   2.407   2.057
  935HOH     H2 3011   0.923   2.276   2.048
  936HOH      O 3012   0.220   3.400   1.702
  936HOH     H1 3013   0.236   3.321   1.754
  936HOH     H2 3014   0.147   3.376   1.645
  937HOH      O 3015   3.591   1.184   3.309
  937HOH     H1 3016   3.629   1.158   3.393
  937HOH     H2 3017   3.516   1.126   3.298
  938HOH      O 3018   2.497   0.502   1.488
  938HOH     H1 3019   2.580   0.520   1.444
  938HOH     H2 3020   2.468   0.586   1.522
  939HOH      O 3021   0.358   1.239   0.850
  939HOH     H1 3022   0.347   1.225   0.944
  939HOH     H2 3023   0.414   1.317   0.845
  940HOH      O 3024   3.679   0.623   3.459
  940HOH     H1 3025   3.755   0.679   3.446
  940HOH     H2 3026   3.655   0.593   3.371
  941HOH      O 3027   0.767   3.589   1.641
  941HOH     H1 3028   0.775   3.674   1.598
  941HOH     H2 3029   0.809   3.601   1.726
  942HOH      O 3030   0.725   1.450   3.470
  942HOH     H1 3031   0.715   1.537   3.510
  942HOH     H2 3032   0.659   1.448   3.401
  943HOH      O 3033   3.315   1.759   3.287
  943HOH     H1 3034   3.277   1.674   3.309
  943HOH     H2 3035   3.262   1.822   3.337
  944HOH      O 3036   3.160   0.588   1.437
  944HOH     H1 3037   3.251   0.558   1.441
  944HOH     H2 3038   3.160   0.670   1.486
  945HOH      O 3039   2.966   3.016   1.703
  945HOH     H1 3040   3.029   3.084   1.725
  945HOH     H2 3041   2.995   2.983   1.618
  946HOH      O 3042   1.728   3.681   1.472
  946HOH     H1 3043   1.802   3.687   1.533
  946HOH     H2 3044   1.738   3.594   1.432
  947HOH      O 3045   3.422   2.945   2.678
  947HOH     H1 3046   3.384   2.975   2.596
  947HOH     H2 3047   3.356   2.887   2.716
  948HOH      O 3048   0.411   2.120   0.907
  948HOH     H1 3049   0.412   2.166   0.990
  948HOH     H2 3050   0.455   2.037   0.924
  949HOH      O 3051   0.081   3.578   0.273
  949HOH     H1 3052   0.089   3.527   0.193
  949HOH     H2 3053   0.003   3.631   0.261
  950HOH      O 3054   2.318   1.894   1.449
  950HOH     H1 3055   2.358   1.975   1.482
  950HOH     H2 3056   2.362   1.824   1.497
  951HOH      O 3057   0.933   1.060   0.640
  951HOH     H1 3058   0.898   1.072   0.729
  951HOH     H2 3059   0.897   1.133   0.590
  952HOH      O 3060   0.814   1.387   2.957
  952HOH     H1 3061   0.844   1.428   3.038
  952HOH     H2 3062   0.787   1.299   2.982
  953HOH      O 3063   2.373   0.936   3.407
  953HOH     H1 3064   2.466   0.925   3.386
  953HOH     H2 3065   2.327   0.895   3.334
  954HOH      O 3066   0.652   2.879   1.253
  954HOH     H1 3067   0.574   2.839   1.291
  954HOH     H2 3068   0.725   2.826   1.287
  955HOH      O 3069   3.469   2.755   1.051
  955HOH     H1 3070   3.460   2.718   1.139
  955HOH     H2 3071   3.524   2.693   1.004
  956HOH      O 3072   0.299   1.438   1.143
  956HOH     H1 3073   0.204   1.445   1.159
  956HOH     H2 3074   0.319   1.513   1.088
  957HOH      O 3075   3.256   1.391   0.471
  957HOH     H1 3076   3.249   1.326   0.401
  957HOH     H2 3077   3.215   1.469   0.434
  958HOH      O 3078   0.236   3.559   4.003
  958HOH     H1 3079   0.258   3.652   4.000
  958HOH     H2 3080   0.321   3.515   3.999
  959HOH      O 3081   0.807   0.384   2.622
  959HOH     H1 3082   0.893   0.342   2.621
  959HOH     H2 3083   0.792   0.410   2.531
  960HOH      O 3084   3.206   1.648   1.586
  960HOH     H1 3085   3.163   1.589   1.525
  960HOH     H2 3086   3.155   1.641   1.667
  961HOH      O 3087   1.955   0.495   3.693
  961HOH     H1 3088   1.906   0.516   3.773
  961HOH     H2 3089   2.038   0.542   3.702
  962HOH      O 3090   1.000   3.956   3.381
  962HOH     H1 3091   0.926   4.000   3.339
  962HOH     H2 3092   1.050   4.027   3.421
  963HOH      O 3093   1.500   2.833   2.849
  963HOH     H1 3094   1.566   2.768   2.873
  963HOH     H2 3095   1.429   2.820   2.912
  964HOH      O 3096   0.840   2.820   0.398
  964HOH     H1 3097   0.832   2.818   0.302
  964HOH     H2 3098   0.844   2.913   0.420
  965HOH      O 3099   1.397   0.480   0.568
  965HOH     H1 3100   1.467   0.506   0.508
  965HOH     H2 3101   1.366   0.397   0.533
  966HOH      O 3102   3.361   0.034   1.515
  966HOH     H1 3103   3.394   0.004   1.431
  966HOH     H2 3104   3.271   0.001   1.518
  967HOH      O 3105   1.836   3.950   2.887
  967HOH     H1 3106   1.749   3.931   2.921
  967HOH     H2 3107   1.833   3.921   2.795
  968HOH      O 3108   0.068   2.166   1.351
  968HOH     H1 3109   0.135   2.147   1.416
  968HOH     H2 3110  -0.015   2.148   1.396
  969HOH      O 3111   0.586   3.748   3.056
  969HOH     H1 3112   0.562   3.790   3.139
  969HOH     H2 3113   0.675   3.715   3.070
  970HOH      O 3114   1.344   0.443   1.698
  970HOH     H1 3115   1.273   0.486   1.650
  970HOH     H2 3116   1.319   0.351   1.700
  971HOH      O 3117   1.604   1.381   1.297
  971HOH     H1 3118   1.600   1.285   1.292
  971HOH     H2 3119   1.690   1.399   1.334
  972HOH      O 3120   1.131   0.815   2.826
  972HOH     H1 3121   1.049   0.772   2.850
  972HOH     H2 3122   1.177   0.751   2.771
  973HOH      O 3123   0.645   3.565   0.251
  973HOH     H1 3124   0.682   3.600   0.332
  973HOH     H2 3125   0.566   3.518   0.280
  974HOH      O 3126   3.384   3.823   1.084
  974HOH     H1 3127   3.362   3.770   1.162
  974HOH     H2 3128   3.478   3.809   1.072
  975HOH      O 3129   2.584   2.218   3.739
  975HOH     H1 3130   2.500   2.172   3.738
  975HOH     H2 3131   2.565   2.304   3.700
  976HOH      O 3132   2.724   2.276   0.039
  976HOH     H1 3133   2.767   2.323   0.110
  976HOH     H2 3134   2.666   2.340  -0.001
  977HOH      O 3135   0.992   0.000   2.640
  977HOH     H1 3136   1.072  -0.047   2.661
  977HOH     H2 3137   1.012   0.091   2.662
  978HOH      O 3138   3.878   2.048   3.378
  978HOH     H1 3139   3.868   2.051   3.283
  978HOH     H2 3140   3.791   2.069   3.412
  979HOH      O 3141   0.045   1.150   3.654
  979HOH     H1 3142   0.114   1.084   3.653
  979HOH     H2 3143   0.085   1.227   3.693
  980HOH      O 3144   1.048   3.307   1.229
  980HOH     H1 3145   1.030   3.338   1.318
  980HOH     H2 3146   1.033   3.384   1.173
  981HOH      O 3147   3.494   3.037   1.046
  981HOH     H1 3148   3.471   2.944   1.049
  981HOH     H2 3149   3.491   3.065   1.138
  982HOH      O 3150   0.401   3.969   0.973
  982HOH     H1 3151   0.465   4.002   0.910
  982HOH     H2 3152   0.321   4.018   0.953
  983HOH      O 3153   3.688   1.092   2.384
  983HOH     H1 3154   3.603   1.066   2.418
  983HOH     H2 3155   3.669   1.163   2.323
  984HOH      O 3156   3.467   2.718   0.341
  984HOH     H1 3157   3.465   2.754   0.429
  984HOH     H2 3158   3.484   2.794   0.284
  985HOH      O 3159   0.351   3.858   0.412
  985HOH     H1 3160   0.312   3.930   0.462
  985HOH     H2 3161   0.288   3.787   0.420
  986HOH      O 3162   1.184   3.357   2.979
  986HOH     H1 3163   1.146   3.425   3.034
  986HOH     H2 3164   1.279   3.367   2.991
  987HOH      O 3165   0.479   0.242   3.218
  987HOH     H1 3166   0.571   0.252   3.245
  987HOH     H2 3167   0.444   0.176   3.277
  988HOH      O 3168   0.127   1.134   2.854
  988HOH     H1 3169   0.067   1.062   2.832
  988HOH     H2 3170   0.205   1.090   2.887
  989HOH      O 3171   1.827   0.372   1.291
  989HOH     H1 3172   1.806   0.354   1.200
  989HOH     H2 3173   1.753   0.336   1.340
  990HOH      O 3174   3.815   3.085   0.448
  990HOH     H1 3175   3.798   3.031   0.371
  990HOH     H2 3176   3.863   3.029   0.508
  991HOH      O 3177   3.198   2.633   0.444
  991HOH     H1 3178   3.272   2.679   0.485
  991HOH     H2 3179   3.123   2.655   0.499
  992HOH      O 3180   1.483   3.506   0.666
  992HOH     H1 3181   1.569   3.480   0.700
  992HOH     H2 3182   1.478   3.600   0.684
  993HOH      O 3183   3.382   0.272   2.889
  993HOH     H1 3184   3.346   0.194   2.846
  993HOH     H2 3185   3.417   0.326   2.818
  994HOH      O 3186   2.172   3.844   3.915
  994HOH     H1 3187   2.181   3.851   4.010
  994HOH     H2 3188   2.143   3.754   3.900
  995HOH      O 3189   1.745   2.676   2.915
  995HOH     H1 3190   1.759   2.692   2.822
  995HOH     H2 3191   1.762   2.760   2.958
  996HOH      O 3192   2.308   0.126   2.571
  996HOH     H1 3193   2.316   0.222   2.573
  996HOH     H2 3194   2.253   0.108   2.495
  997HOH      O 3195   0.599   1.974   3.122
  997HOH     H1 3196   0.674   2.000   3.175
  997HOH     H2 3197   0.533   2.042   3.139
  998HOH      O 3198   3.042   0.390   2.585
  998HOH     H1 3199   3.009   0.320   2.642
  998HOH     H2 3200   3.039   0.353   2.497
  999HOH      O 3201   2.767   3.185   3.390
  999HOH     H1 3202   2.747   3.234   3.469
  999HOH     H2 3203   2.770   3.252   3.321
 1000HOH      O 3204   3.692   0.640   0.220
 1000HOH     H1 3205   3.753   0.580   0.176
 1000HOH     H2 3206   3.722   0.727   0.194
 1001HOH      O 3207   1.136   3.846   1.983
 1001HOH     H1 3208   1.093   3.914   1.931
 1001HOH     H2 3209   1.225   3.878   1.997
 1002HOH      O 3210   1.284   2.762   2.383
 1002HOH     H1 3211   1.318   2.761   2.473
 1002HOH     H2 3212   1.282   2.854   2.360
 1003HOH      O 3213   2.555   0.531   0.741
 1003HOH     H1 3214   2.512   0.495   0.819
 1003HOH     H2 3215   2.539   0.466   0.673
 1004HOH      O 3216   2.570   0.330   1.890
 1004HOH     H1 3217   2.605   0.419   1.880
 1004HOH     H2 3218   2.631   0.287   1.950
 1005HOH      O 3219   3.100   1.292   2.603
 1005HOH     H1 3220   3.054   1.249   2.675
 1005HOH     H2 3221   3.031   1.339   2.555
 1006HOH      O 3222   2.911   0.482   1.410
 1006HOH     H1 3223   2.931   0.401   1.364
 1006HOH     H2 3224   2.996   0.522   1.428
 1007HOH      O 3225   3.276   0.718   0.900
 1007HOH     H1 3226   3.306   0.717   0.991
 1007HOH     H2 3227   3.293   0.628   0.870
 1008HOH      O 3228   1.094   1.770   0.309
 1008HOH     H1 3229   1.128   1.779   0.398
 1008HOH     H2 3230   1.089   1.676   0.295
 1009HOH      O 3231   2.078   2.646   3.504
 1009HOH     H1 3232   2.029   2.591   3.442
 1009HOH     H2 3233   2.168   2.644   3.472
 1010HOH      O 3234   2.593   1.903   1.685
 1010HOH     H1 3235   2.541   1.982   1.671
 1010HOH     H2 3236   2.675   1.935   1.723
 1011HOH      O 3237   0.958   2.596   2.056
 1011HOH     H1 3238   0.921   2.617   1.971
 1011HOH     H2 3239   0.894   2.537   2.096
 1012HOH      O 3240   0.120   3.530   2.614
 1012HOH     H1 3241   0.030   3.562   2.611
 1012HOH     H2 3242   0.173   3.608   2.628
 1013HOH      O 3243   1.703   1.593   2.967
 1013HOH     H1 3244   1.613   1.590   3.000
 1013HOH     H2 3245   1.693   1.608   2.873
 1014HOH      O 3246   2.476   0.129   0.835
 1014HOH     H1 3247   2.535   0.120   0.910
 1014HOH     H2 3248   2.433   0.214   0.849
 1015HOH      O 3249   3.421   1.524   3.863
 1015HOH     H1 3250   3.505   1.556   3.830
 1015HOH     H2 3251   3.429   1.532   3.958
 1016HOH      O 3252   2.370   1.504   1.680
 1016HOH     H1 3253   2.440   1.452   1.641
 1016HOH     H2 3254   2.302   1.507   1.613
 1017HOH      O 3255   3.777   2.370   0.249
 1017HOH     H1 3256   3.683   2.354   0.262
 1017HOH     H2 3257   3.787   2.464   0.264
 1018HOH      O 3258   1.918   3.012   0.986
 1018HOH     H1 3259   1.861   3.027   0.910
 1018HOH     H2 3260   1.986   3.078   0.978
 1019HOH      O 3261   2.663   0.899   0.335
 1019HOH     H1 3262   2.674   0.818   0.285
 1019HOH     H2 3263   2.697   0.968   0.278
 1020HOH      O 3264   1.026   2.543   1.593
 1020HOH     H1 3265   1.059   2.630   1.615
 1020HOH     H2 3266   1.077   2.517   1.516
 1021HOH      O 3267   1.731   2.149   0.942
 1021HOH     H1 3268   1.777   2.076   0.900
 1021HOH     H2 3269   1.749   2.224   0.885
 1022HOH      O 3270   2.373   0.508   3.711
 1022HOH     H1 3271   2.376   0.418   3.744
 1022HOH     H2 3272   2.336   0.501   3.623
 1023HOH      O 3273   1.491   3.452   1.373
 1023HOH     H1 3274   1.411   3.477   1.327
 1023HOH     H2 3275   1.475   3.477   1.464
 1024HOH      O 3276   1.061   0.555   1.666
 1024HOH     H1 3277   1.061   0.606   1.585
 1024HOH     H2 3278   0.970   0.532   1.680
 1025HOH      O 3279   1.339   0.849   3.358
 1025HOH     H1 3280   1.344   0.851   3.263
 1025HOH     H2 3281   1.401   0.779   3.383
 1026HOH      O 3282   3.281   2.763   1.428
 1026HOH     H1 3283   3.341   2.706   1.380
 1026HOH     H2 3284   3.265   2.717   1.511
 1027HOH      O 3285   2.392   3.429   2.754
 1027HOH     H1 3286   2.461   3.370   2.724
 1027HOH     H2 3287   2.430   3.516   2.747
 1028HOH      O 3288   1.661   2.641   2.648
 1028HOH     H1 3289   1.645   2.571   2.712
 1028HOH     H2 3290   1.621   2.608   2.568
 1029HOH      O 3291   2.185   0.753   1.052
 1029HOH     H1 3292   2.145   0.701   1.121
 1029HOH     H2 3293   2.274   0.769   1.083
 1030HOH      O 3294   1.348   0.125   2.956
 1030HOH     H1 3295   1.348   0.218   2.935
 1030HOH     H2 3296   1.430   0.092   2.919
 1031HOH      O 3297   3.228   3.695   3.259
 1031HOH     H1 3298   3.171   3.735   3.193
 1031HOH     H2 3299   3.180   3.619   3.290
 1032HOH      O 3300   3.889   2.130   0.210
 1032HOH     H1 3301   3.970   2.133   0.260
 1032HOH     H2 3302   3.853   2.218   0.217
 1033HOH      O 3303   0.500   2.817   2.387
 1033HOH     H1 3304   0.475   2.804   2.478
 1033HOH     H2 3305   0.503   2.728   2.350
 1034HOH      O 3306   2.748   1.311   0.972
 1034HOH     H1 3307   2.704   1.316   1.057
 1034HOH     H2 3308   2.677   1.317   0.908
 1035HOH      O 3309   1.932   2.045   2.304
 1035HOH     H1 3310   2.001   2.029   2.240
 1035HOH     H2 3311   1.941   2.137   2.328
 1036HOH      O 3312   0.067   2.489   3.209
 1036HOH     H1 3313  -0.015   2.466   3.253
 1036HOH     H2 3314   0.043   2.561   3.150
 1037HOH      O 3315   1.710   0.733   1.234
 1037HOH     H1 3316   1.689   0.746   1.327
 1037HOH     H2 3317   1.632   0.691   1.197
 1038HOH      O 3318   0.433   1.379   2.750
 1038HOH     H1 3319   0.426   1.288   2.780
 1038HOH     H2 3320   0.472   1.372   2.662
 1039HOH      O 3321   1.403   1.525   0.438
 1039HOH     H1 3322   1.343   1.467   0.484
 1039HOH     H2 3323   1.471   1.466   0.403
 1040HOH      O 3324   0.850   0.935   2.067
 1040HOH     H1 3325   0.762   0.902   2.054
 1040HOH     H2 3326   0.852   1.018   2.018
 1041HOH      O 3327   3.646   2.722   3.615
 1041HOH     H1 3328   3.707   2.779   3.569
 1041HOH     H2 3329   3.671   2.633   3.589
 1042HOH      O 3330   3.647   2.187   1.677
 1042HOH     H1 3331   3.569   2.144   1.712
 1042HOH     H2 3332   3.685   2.231   1.753
 1043HOH      O 3333   3.215   2.131   0.686
 1043HOH     H1 3334   3.223   2.197   0.617
 1043HOH     H2 3335   3.304   2.121   0.720
 1044HOH      O 3336   2.921   2.794   0.557
 1044HOH     H1 3337   2.943   2.873   0.508
 1044HOH     H2 3338   2.825   2.790   0.554
 1045HOH      O 3339   1.124   0.964   2.570
 1045HOH     H1 3340   1.129   0.933   2.661
 1045HOH     H2 3341   1.209   1.006   2.555
 1046HOH      O 3342   1.818   3.612   3.258
 1046HOH     H1 3343   1.862   3.696   3.274
 1046HOH     H2 3344   1.853   3.583   3.173
 1047HOH      O 3345   1.300   0.833   0.996
 1047HOH     H1 3346   1.230   0.890   0.964
 1047HOH     H2 3347   1.326   0.782   0.919
 1048HOH      O 3348   2.658   0.090   1.039
 1048HOH     H1 3349   2.666   0.179   1.073
 1048HOH     H2 3350   2.637   0.037   1.115
 1049HOH      O 3351   2.368   3.961   2.728
 1049HOH     H1 3352   2.410   4.005   2.802
 1049HOH     H2 3353   2.343   4.031   2.668
 1050HOH      O 3354   2.625   2.179   1.382
 1050HOH     H1 3355   2.556   2.141   1.436
 1050HOH     H2 3356   2.701   2.182   1.439
 1051HOH      O 3357   1.083   1.645   1.910
 1051HOH     H1 3358   1.001   1.630   1.956
 1051HOH     H2 3359   1.118   1.725   1.949
 1052HOH      O 3360   0.493   1.466   3.000
 1052HOH     H1 3361   0.488   1.453   2.905
 1052HOH     H2 3362   0.556   1.537   3.011
 1053HOH      O 3363   1.729   2.609   1.978
 1053HOH     H1 3364   1.662   2.643   2.037
 1053HOH     H2 3365   1.682   2.552   1.918
 1054HOH      O 3366   2.829   4.005   0.424
 1054HOH     H1 3367   2.884   3.933   0.453
 1054HOH     H2 3368   2.787   4.037   0.504
 1055HOH      O 3369   2.893   3.418   1.219
 1055HOH     H1 3370   2.846   3.449   1.142
 1055HOH     H2 3371   2.946   3.345   1.187
 1056HOH      O 3372   2.009   0.258   2.067
 1056HOH     H1 3373   2.021   0.303   1.983
 1056HOH     H2 3374   2.072   0.186   2.064
 1057HOH      O 3375   3.503   3.719   1.361
 1057HOH     H1 3376   3.408   3.720   1.350
 1057HOH     H2 3377   3.523   3.802   1.403
 1058HOH      O 3378   3.717   2.541   2.216
 1058HOH     H1 3379   3.662   2.505   2.286
 1058HOH     H2 3380   3.806   2.537   2.251
 1059HOH      O 3381   2.013   2.738   2.738
 1059HOH     H1 3382   1.992   2.831   2.728
 1059HOH     H2 3383   2.031   2.727   2.831
 1060HOH      O 3384   1.398   2.673   3.075
 1060HOH     H1 3385   1.464   2.732   3.114
 1060HOH     H2 3386   1.443   2.589   3.068
 1061HOH      O 3387   1.109   2.733   0.144
 1061HOH     H1 3388   1.020   2.758   0.167
 1061HOH     H2 3389   1.164   2.791   0.196
 1062HOH      O 3390   3.903   0.734   1.081
 1062HOH     H1 3391   3.983   0.682   1.085
 1062HOH     H2 3392   3.904   0.772   0.993
 1063HOH      O 3393   0.621   1.359   0.188
 1063HOH     H1 3394   0.644   1.378   0.097
 1063HOH     H2 3395   0.558   1.426   0.211
 1064HOH      O 3396   2.025   3.141   0.724
 1064HOH     H1 3397   2.060   3.055   0.702
 1064HOH     H2 3398   2.102   3.195   0.740
 1065HOH      O 3399   1.418   1.621   3.812
 1065HOH     H1 3400   1.411   1.559   3.739
 1065HOH     H2 3401   1.444   1.567   3.887
 1066HOH      O 3402   1.619   3.898   1.821
 1066HOH     H1 3403   1.619   3.827   1.886
 1066HOH     H2 3404   1.702   3.943   1.835
 1067HOH      O 3405   0.957   0.027   0.682
 1067HOH     H1 3406   0.929   0.098   0.625
 1067HOH     H2 3407   0.934   0.057   0.771
 1068HOH      O 3408   2.391   0.309   1.682
 1068HOH     H1 3409   2.423   0.375   1.621
 1068HOH     H2 3410   2.448   0.317   1.759
 1069HOH      O 3411   3.596   2.752   2.013
 1069HOH     H1 3412   3.590   2.686   2.081
 1069HOH     H2 3413   3.629   2.830   2.058
 1070HOH      O 3414   3.436   1.268   2.354
 1070HOH     H1 3415   3.403   1.353   2.323
 1070HOH     H2 3416   3.434   1.211   2.277
 1071HOH      O 3417   4.052   0.823   0.484
 1071HOH     H1 3418   3.968   0.866   0.500
 1071HOH     H2 3419   4.055   0.751   0.545
 1072HOH      O 3420   2.523   1.508   1.325
 1072HOH     H1 3421   2.595   1.517   1.263
 1072HOH     H2 3422   2.462   1.578   1.301
 1073HOH      O 3423   1.047   0.657   2.435
 1073HOH     H1 3424   1.105   0.730   2.416
 1073HOH     H2 3425   1.005   0.682   2.518
 1074HOH      O 3426   1.293   3.108   0.929
 1074HOH     H1 3427   1.243   3.034   0.895
 1074HOH     H2 3428   1.381   3.073   0.945
 1075HOH      O 3429   1.036   1.955   3.186
 1075HOH     H1 3430   1.069   1.957   3.276
 1075HOH     H2 3431   1.055   2.042   3.152
 1076HOH      O 3432   0.696   0.202   2.203
 1076HOH     H1 3433   0.631   0.197   2.133
 1076HOH     H2 3434   0.776   0.169   2.163
 1077HOH      O 3435   0.483   1.471   0.861
 1077HOH     H1 3436   0.461   1.559   0.891
 1077HOH     H2 3437   0.555   1.443   0.917
 1078HOH      O 3438   0.099   1.550   2.584
 1078HOH     H1 3439   0.140   1.502   2.656
 1078HOH     H2 3440   0.170   1.569   2.524
 1079HOH      O 3441   1.705   2.924   3.937
 1079HOH     H1 3442   1.790   2.907   3.977
 1079HOH     H2 3443   1.715   2.894   3.846
 1080HOH      O 3444   1.996   1.896   0.394
 1080HOH     H1 3445   1.989   1.905   0.299
 1080HOH     H2 3446   1.906   1.903   0.424
 1081HOH      O 3447   3.895   1.278   2.820
 1081HOH     H1 3448   3.865   1.361   2.857
 1081HOH     H2 3449   3.927   1.301   2.733
 1082HOH      O 3450   1.797   0.975   3.017
 1082HOH     H1 3451   1.759   0.926   2.944
 1082HOH     H2 3452   1.765   0.930   3.096
 1083HOH      O 3453   0.216   3.370   0.911
 1083HOH     H1 3454   0.250   3.294   0.864
 1083HOH     H2 3455   0.136   3.338   0.953
 1084HOH      O 3456   2.418   2.569   1.624
 1084HOH     H1 3457   2.488   2.583   1.559
 1084HOH     H2 3458   2.353   2.516   1.578
 1085HOH      O 3459   3.522   1.624   0.678
 1085HOH     H1 3460   3.428   1.641   0.674
 1085HOH     H2 3461   3.562   1.707   0.656
 1086HOH      O 3462   0.693   3.417   3.260
 1086HOH     H1 3463   0.604   3.413   3.294
 1086HOH     H2 3464   0.686   3.464   3.177
 1087HOH      O 3465   1.116   3.778   0.249
 1087HOH     H1 3466   1.180   3.764   0.319
 1087HOH     H2 3467   1.067   3.856   0.277
 1088HOH      O 3468   1.387   3.733   3.611
 1088HOH     H1 3469   1.455   3.732   3.543
 1088HOH     H2 3470   1.355   3.823   3.612
 1089HOH      O 3471   3.092   3.207   4.024
 1089HOH     H1 3472   3.041   3.127   4.037
 1089HOH     H2 3473   3.171   3.178   3.978
 1090HOH      O 3474   3.614   0.763   1.073
 1090HOH     H1 3475   3.709   0.766   1.081
 1090HOH     H2 3476   3.594   0.825   1.003
 1091HOH      O 3477   1.087   3.412   2.211
 1091HOH     H1 3478   1.125   3.379   2.293
 1091HOH     H2 3479   1.127   3.498   2.199
 1092HOH      O 3480   0.709   2.401   0.348
 1092HOH     H1 3481   0.782   2.339   0.358
 1092HOH     H2 3482   0.729   2.472   0.410
 1093HOH      O 3483   0.792   3.720   1.051
 1093HOH     H1 3484   0.696   3.726   1.046
 1093HOH     H2 3485   0.821   3.812   1.052
 1094HOH      O 3486   1.214   3.909   2.670
 1094HOH     H1 3487   1.303   3.929   2.699
 1094HOH     H2 3488   1.226   3.841   2.603
 1095HOH      O 3489   2.576   3.309   3.056
 1095HOH     H1 3490   2.585   3.398   3.022
 1095HOH     H2 3491   2.612   3.253   2.987
 1096HOH      O 3492   1.134   2.054   0.261
 1096HOH     H1 3493   1.126   1.958   0.258
 1096HOH     H2 3494   1.134   2.075   0.354
 1097HOH      O 3495   3.451   0.546   1.443
 1097HOH     H1 3496   3.500   0.586   1.371
 1097HOH     H2 3497   3.494   0.462   1.458
 1098HOH      O 3498   2.670   3.736   3.316
 1098HOH     H1 3499   2.600   3.707   3.374
 1098HOH     H2 3500   2.628   3.797   3.256
 1099HOH      O 3501   2.041   0.975   0.942
 1099HOH     H1 3502   1.950   0.971   0.971
 1099HOH     H2 3503   2.075   0.887   0.960
 1100HOH      O 3504   4.018   3.931   1.519
 1100HOH     H1 3505   3.967   4.005   1.551
 1100HOH     H2 3506   4.106   3.966   1.505
 1101HOH      O 3507   1.320   0.706   0.678
 1101HOH     H1 3508   1.373   0.771   0.631
 1101HOH     H2 3509   1.353   0.621   0.648
 1102HOH      O 3510   1.213   2.959   3.234
 1102HOH     H1 3511   1.147   2.950   3.166
 1102HOH     H2 3512   1.296   2.936   3.191
 1103HOH      O 3513   0.670   3.698   0.019
 1103HOH     H1 3514   0.681   3.665   0.108
 1103HOH     H2 3515   0.758   3.725  -0.008
 1104HOH      O 3516   1.982   1.553   2.618
 1104HOH     H1 3517   1.950   1.625   2.563
 1104HOH     H2 3518   2.076   1.551   2.603
 1105HOH      O 3519   2.385   3.942   0.725
 1105HOH     H1 3520   2.461   3.887   0.709
 1105HOH     H2 3521   2.417   4.009   0.787
 1106HOH      O 3522   1.722   0.499   3.325
 1106HOH     H1 3523   1.717   0.514   3.230
 1106HOH     H2 3524   1.763   0.578   3.359
 1107HOH      O 3525   2.485   1.862   0.164
 1107HOH     H1 3526   2.506   1.947   0.204
 1107HOH     H2 3527   2.395   1.873   0.132
 1108HOH      O 3528   2.622   2.285   1.725
 1108HOH     H1 3529   2.606   2.249   1.812
 1108HOH     H2 3530   2.712   2.258   1.704
 1109HOH      O 3531   0.791   0.473   2.356
 1109HOH     H1 3532   0.802   0.392   2.308
 1109HOH     H2 3533   0.871   0.523   2.338
 1110HOH      O 3534   1.228   3.647   1.823
 1110HOH     H1 3535   1.197   3.687   1.904
 1110HOH     H2 3536   1.272   3.566   1.852
 1111HOH      O 3537   1.993   3.385   0.161
 1111HOH     H1 3538   1.920   3.342   0.115
 1111HOH     H2 3539   1.954   3.463   0.200
 1112HOH      O 3540   0.822   3.081   1.497
 1112HOH     H1 3541   0.798   3.141   1.427
 1112HOH     H2 3542   0.744   3.078   1.554
 1113HOH      O 3543   1.602   3.081   2.419
 1113HOH     H1 3544   1.655   3.036   2.485
 1113HOH     H2 3545   1.513   3.052   2.436
 1114HOH      O 3546   2.674   2.062   2.976
 1114HOH     H1 3547   2.725   1.983   2.993
 1114HOH     H2 3548   2.685   2.077   2.882
 1115HOH      O 3549   3.012   3.215   1.063
 1115HOH     H1 3550   2.953   3.143   1.042
 1115HOH     H2 3551   3.085   3.206   1.002
 1116HOH      O 3552   0.473   3.152   0.901
 1116HOH     H1 3553   0.502   3.217   0.838
 1116HOH     H2 3554   0.551   3.132   0.953
 1117HOH      O 3555   2.492   2.282   3.345
 1117HOH     H1 3556   2.571   2.245   3.384
 1117HOH     H2 3557   2.503   2.269   3.251
 1118HOH      O 3558   2.578   2.116   0.313
 1118HOH     H1 3559   2.672   2.130   0.318
 1118HOH     H2 3560   2.547   2.122   0.403
 1119HOH      O 3561   3.058   2.784   3.835
 1119HOH     H1 3562   3.021   2.781   3.747
 1119HOH     H2 3563   3.054   2.693   3.865
 1120HOH      O 3564   4.061   2.585   3.880
 1120HOH     H1 3565   4.063   2.516   3.813
 1120HOH     H2 3566   3.968   2.604   3.892
 1121HOH      O 3567   1.139   1.122   2.816
 1121HOH     H1 3568   1.124   1.028   2.821
 1121HOH     H2 3569   1.056   1.158   2.784
 1122HOH      O 3570   2.281   0.508   2.195
 1122HOH     H1 3571   2.266   0.596   2.228
 1122HOH     H2 3572   2.265   0.514   2.101
 1123HOH      O 3573   1.211   0.148   0.910
 1123HOH     H1 3574   1.215   0.193   0.826
 1123HOH     H2 3575   1.275   0.192   0.965
 1124HOH      O 3576   1.812   0.361   0.989
 1124HOH     H1 3577   1.830   0.292   0.926
 1124HOH     H2 3578   1.861   0.437   0.957
 1125HOH      O 3579   3.739   3.222   3.934
 1125HOH     H1 3580   3.738   3.317   3.940
 1125HOH     H2 3581   3.709   3.204   3.845
 1126HOH      O 3582   4.009   0.100   2.275
 1126HOH     H1 3583   4.037   0.009   2.266
 1126HOH     H2 3584   3.941   0.098   2.342
 1127HOH      O 3585   2.284   1.285   2.781
 1127HOH     H1 3586   2.302   1.359   2.723
 1127HOH     H2 3587   2.270   1.325   2.867
 1128HOH      O 3588   1.226   0.445   1.323
 1128HOH     H1 3589   1.268   0.503   1.386
 1128HOH     H2 3590   1.164   0.501   1.277
 1129HOH      O 3591   0.453   0.664   1.810
 1129HOH     H1 3592   0.513   0.658   1.884
 1129HOH     H2 3593   0.411   0.578   1.805
 1130HOH      O 3594   0.327   3.971   1.263
 1130HOH     H1 3595   0.342   3.972   1.168
 1130HOH     H2 3596   0.351   3.883   1.290
 1131HOH      O 3597   1.427   2.145   0.232
 1131HOH     H1 3598   1.407   2.095   0.153
 1131HOH     H2 3599   1.343   2.155   0.277
 1132HOH      O 3600   1.060   3.606   2.711
 1132HOH     H1 3601   1.154   3.601   2.729
 1132HOH     H2 3602   1.032   3.515   2.706
 1133HOH      O 3603   0.755   0.272   1.262
 1133HOH     H1 3604   0.834   0.247   1.309
 1133HOH     H2 3605   0.741   0.364   1.286
 1134HOH      O 3606   0.367   0.893   3.917
 1134HOH     H1 3607   0.338   0.802   3.913
 1134HOH     H2 3608   0.462   0.888   3.911
 1135HOH      O 3609   3.641   2.850   1.319
 1135HOH     H1 3610   3.578   2.875   1.386
 1135HOH     H2 3611   3.721   2.895   1.344
 1136HOH      O 3612   1.636  -0.019   0.319
 1136HOH     H1 3613   1.542  -0.002   0.309
 1136HOH     H2 3614   1.676   0.031   0.248
 1137HOH      O 3615   2.061   3.641   1.963
 1137HOH     H1 3616   2.144   3.598   1.984
 1137HOH     H2 3617   2.000   3.570   1.945
 1138HOH      O 3618   3.319   1.303   3.200
 1138HOH     H1 3619   3.263   1.228   3.179
 1138HOH     H2 3620   3.398   1.264   3.237
 1139HOH      O 3621   0.947   2.250   0.383
 1139HOH     H1 3622   0.965   2.259   0.290
 1139HOH     H2 3623   0.964   2.158   0.403
 1140HOH      O 3624   3.876   3.542   1.402
 1140HOH     H1 3625   3.843   3.608   1.462
 1140HOH     H2 3626   3.958   3.579   1.368
 1141HOH      O 3627   3.751   3.720   0.751
 1141HOH     H1 3628   3.844   3.702   0.739
 1141HOH     H2 3629   3.713   3.636   0.778
 1142HOH      O 3630   0.221   3.880   3.082
 1142HOH     H1 3631   0.292   3.853   3.023
 1142HOH     H2 3632   0.148   3.899   3.023
 1143HOH      O 3633   1.388   0.422   3.312
 1143HOH     H1 3634   1.413   0.349   3.256
 1143HOH     H2 3635   1.295   0.437   3.293
 1144HOH      O 3636   1.742   3.115   0.779
 1144HOH     H1 3637   1.692   3.059   0.719
 1144HOH     H2 3638   1.831   3.114   0.744
 1145HOH      O 3639   0.551   1.000   0.141
 1145HOH     H1 3640   0.480   1.041   0.191
 1145HOH     H2 3641   0.534   1.027   0.051
 1146HOH      O 3642   0.530   0.313   0.905
 1146HOH     H1 3643   0.556   0.232   0.861
 1146HOH     H2 3644   0.500   0.285   0.991
 1147HOH      O 3645   0.144   3.425   3.218
 1147HOH     H1 3646   0.136   3.332   3.237
 1147HOH     H2 3647   0.103   3.436   3.132
 1148HOH      O 3648   3.228   2.612   0.782
 1148HOH     H1 3649   3.238   2.530   0.829
 1148HOH     H2 3650   3.201   2.676   0.848
 1149HOH      O 3651   0.616   0.555   2.019
 1149HOH     H1 3652   0.654   0.488   2.077
 1149HOH     H2 3653   0.568   0.613   2.078
 1150HOH      O 3654   0.631   1.069   2.266
 1150HOH     H1 3655   0.567   1.022   2.319
 1150HOH     H2 3656   0.710   1.070   2.320
 1151HOH      O 3657   0.056   1.195   0.076
 1151HOH     H1 3658   0.136   1.157   0.041
 1151HOH     H2 3659  -0.001   1.206   0.001
 1152HOH      O 3660   3.448   3.372   3.833
 1152HOH     H1 3661   3.524   3.322   3.802
 1152HOH     H2 3662   3.378   3.349   3.773
 1153HOH      O 3663   3.171   2.207   1.590
 1153HOH     H1 3664   3.164   2.111   1.591
 1153HOH     H2 3665   3.109   2.236   1.656
 1154HOH      O 3666   2.272   3.874   2.163
 1154HOH     H1 3667   2.344   3.842   2.110
 1154HOH     H2 3668   2.243   3.798   2.213
 1155HOH      O 3669   1.979   0.671   0.375
 1155HOH     H1 3670   2.017   0.649   0.290
 1155HOH     H2 3671   1.897   0.716   0.355
 1156HOH      O 3672   0.031   0.428   3.478
 1156HOH     H1 3673   0.107   0.378   3.449
 1156HOH     H2 3674  -0.017   0.367   3.534
 1157HOH      O 3675   3.339   1.084   2.890
 1157HOH     H1 3676   3.433   1.101   2.888
 1157HOH     H2 3677   3.306   1.115   2.806
 1158HOH      O 3678   2.559   2.420   0.487
 1158HOH     H1 3679   2.500   2.425   0.412
 1158HOH     H2 3680   2.647   2.426   0.449
 1159HOH      O 3681   2.051   2.939   1.838
 1159HOH     H1 3682   2.136   2.911   1.802
 1159HOH     H2 3683   2.064   2.936   1.932
 1160HOH      O 3684   0.425   4.019   3.758
 1160HOH     H1 3685   0.366   4.061   3.696
 1160HOH     H2 3686   0.428   3.927   3.731
 1161HOH      O 3687   2.367   3.616   1.299
 1161HOH     H1 3688   2.416   3.568   1.232
 1161HOH     H2 3689   2.429   3.681   1.332
 1162HOH      O 3690   3.885   0.458   0.133
 1162HOH     H1 3691   3.850   0.421   0.214
 1162HOH     H2 3692   3.871   0.390   0.067
 1163HOH      O 3693   1.665   2.262   0.321
 1163HOH     H1 3694   1.648   2.356   0.326
 1163HOH     H2 3695   1.618   2.233   0.244
 1164HOH      O 3696   0.640   2.662   2.703
 1164HOH     H1 3697   0.696   2.667   2.625
 1164HOH     H2 3698   0.690   2.709   2.770
 1165HOH      O 3699   1.573   1.334   2.379
 1165HOH     H1 3700   1.635   1.315   2.449
 1165HOH     H2 3701   1.492   1.293   2.407
 1166HOH      O 3702   1.715   3.883   0.838
 1166HOH     H1 3703   1.666   3.850   0.763
 1166HOH     H2 3704   1.770   3.809   0.865
 1167HOH      O 3705   3.835   0.635   1.346
 1167HOH     H1 3706   3.792   0.556   1.313
 1167HOH     H2 3707   3.840   0.693   1.270
 1168HOH      O 3708   3.914   1.522   3.989
 1168HOH     H1 3709   3.919   1.430   3.961
 1168HOH     H2 3710   4.004   1.553   3.983
 1169HOH      O 3711   3.901   0.208   1.361
 1169HOH     H1 3712   3.851   0.176   1.437
 1169HOH     H2 3713   3.845   0.275   1.323
 1170HOH      O 3714   1.840   0.800   0.999
 1170HOH     H1 3715   1.784   0.754   0.936
 1170HOH     H2 3716   1.789   0.799   1.081
 1171HOH      O 3717   1.748   3.186   3.625
 1171HOH     H1 3718   1.711   3.216   3.542
 1171HOH     H2 3719   1.674   3.190   3.686
 1172HOH      O 3720   0.854   2.275   1.524
 1172HOH     H1 3721   0.871   2.207   1.458
 1172HOH     H2 3722   0.939   2.287   1.568
 1173HOH      O 3723   0.108   2.051   0.921
 1173HOH     H1 3724   0.204   2.044   0.919
 1173HOH     H2 3725   0.092   2.131   0.972
 1174HOH      O 3726   1.986   0.839   1.365
 1174HOH     H1 3727   2.067   0.883   1.337
 1174HOH     H2 3728   1.974   0.768   1.302
 1175HOH      O 3729   2.239   2.197   1.282
 1175HOH     H1 3730   2.211   2.148   1.359
 1175HOH     H2 3731   2.213   2.288   1.300
 1176HOH      O 3732   2.862   2.220   2.018
 1176HOH     H1 3733   2.885   2.246   1.929
 1176HOH     H2 3734   2.766   2.226   2.020
 1177HOH      O 3735   2.882   1.399   2.498
 1177HOH     H1 3736   2.845   1.412   2.410
 1177HOH     H2 3737   2.810   1.418   2.557
 1178HOH      O 3738   1.279   1.818   3.129
 1178HOH     H1 3739   1.274   1.778   3.216
 1178HOH     H2 3740   1.200   1.873   3.124
 1179HOH      O 3741   0.509   0.799   3.567
 1179HOH     H1 3742   0.477   0.741   3.636
 1179HOH     H2 3743   0.430   0.837   3.529
 1180HOH      O 3744   1.565   1.862   3.053
 1180HOH     H1 3745   1.574   1.811   2.973
 1180HOH     H2 3746   1.478   1.840   3.086
 1181HOH      O 3747   2.541   0.806   2.318
 1181HOH     H1 3748   2.559   0.804   2.224
 1181HOH     H2 3749   2.613   0.858   2.355
 1182HOH      O 3750   1.367   0.203   1.333
 1182HOH     H1 3751   1.338   0.137   1.396
 1182HOH     H2 3752   1.309   0.277   1.347
 1183HOH      O 3753   1.663   0.820   3.251
 1183HOH     H1 3754   1.632   0.764   3.322
 1183HOH     H2 3755   1.711   0.890   3.295
 1184HOH      O 3756   0.892   1.667   2.108
 1184HOH     H1 3757   0.857   1.716   2.183
 1184HOH     H2 3758   0.818   1.658   2.049
 1185HOH      O 3759   3.878   3.620   2.575
 1185HOH     H1 3760   3.831   3.685   2.626
 1185HOH     H2 3761   3.810   3.562   2.540
 1186HOH      O 3762   0.678   3.650   1.304
 1186HOH     H1 3763   0.747   3.700   1.347
 1186HOH     H2 3764   0.697   3.657   1.211
 1187HOH      O 3765   2.496   2.454   3.618
 1187HOH     H1 3766   2.468   2.436   3.529
 1187HOH     H2 3767   2.510   2.549   3.620
 1188HOH      O 3768   1.259   2.446   2.874
 1188HOH     H1 3769   1.168   2.426   2.893
 1188HOH     H2 3770   1.294   2.482   2.955
 1189HOH      O 3771   2.479   1.764   2.779
 1189HOH     H1 3772   2.572   1.749   2.800
 1189HOH     H2 3773   2.470   1.733   2.689
 1190HOH      O 3774   1.958   2.575   3.265
 1190HOH     H1 3775   2.052   2.569   3.247
 1190HOH     H2 3776   1.942   2.669   3.275
 1191HOH      O 3777   0.032   0.480   0.512
 1191HOH     H1 3778  -0.031   0.535   0.559
 1191HOH     H2 3779   0.088   0.444   0.580
 1192HOH      O 3780   0.566   1.110   2.790
 1192HOH     H1 3781   0.651   1.119   2.834
 1192HOH     H2 3782   0.517   1.049   2.845
 1193HOH      O 3783   0.995   0.517   2.124
 1193HOH     H1 3784   1.027   0.533   2.035
 1193HOH     H2 3785   1.055   0.567   2.180
 1194HOH      O 3786   1.457   1.524   3.082
 1194HOH     H1 3787   1.384   1.490   3.030
 1194HOH     H2 3788   1.430   1.510   3.173
 1195HOH      O 3789   0.847   0.661   2.705
 1195HOH     H1 3790   0.848   0.568   2.681
 1195HOH     H2 3791   0.842   0.661   2.801
 1196HOH      O 3792   0.848   2.426   3.226
 1196HOH     H1 3793   0.801   2.475   3.294
 1196HOH     H2 3794   0.921   2.385   3.273
 1197HOH      O 3795   1.626   0.626   2.661
 1197HOH     H1 3796   1.664   0.579   2.586
 1197HOH     H2 3797   1.624   0.561   2.731
 1198HOH      O 3798   1.750   1.877   0.540
 1198HOH     H1 3799   1.670   1.829   0.515
 1198HOH     H2 3800   1.724   1.969   0.538
 1199HOH      O 3801   1.213   3.544   1.310
 1199HOH     H1 3802   1.150   3.552   1.239
 1199HOH     H2 3803   1.159   3.529   1.388
 1200HOH      O 3804   3.195   0.444   1.978
 1200HOH     H1 3805   3.170   0.460   1.887
 1200HOH     H2 3806   3.172   0.353   1.994
 1201HOH      O 3807   0.445   3.113   1.644
 1201HOH     H1 3808   0.494   3.189   1.615
 1201HOH     H2 3809   0.380   3.098   1.575
 1202HOH      O 3810   0.663   2.747   3.977
 1202HOH     H1 3811   0.712   2.753   3.895
 1202HOH     H2 3812   0.576   2.782   3.956
 1203HOH      O 3813   0.654   2.849   3.607
 1203HOH     H1 3814   0.706   2.860   3.687
 1203HOH     H2 3815   0.687   2.917   3.547
 1204HOH      O 3816   3.207   0.400   0.313
 1204HOH     H1 3817   3.175   0.386   0.402
 1204HOH     H2 3818   3.259   0.481   0.319
 1205HOH      O 3819   3.774   1.192   1.573
 1205HOH     H1 3820   3.848   1.234   1.617
 1205HOH     H2 3821   3.722   1.264   1.539
 1206HOH      O 3822   0.757   3.501   3.517
 1206HOH     H1 3823   0.826   3.560   3.485
 1206HOH     H2 3824   0.731   3.451   3.440
 1207HOH      O 3825   0.670   3.007   1.015
 1207HOH     H1 3826   0.761   3.012   0.987
 1207HOH     H2 3827   0.666   2.928   1.070
 1208HOH      O 3828   3.819   1.370   3.693
 1208HOH     H1 3829   3.875   1.434   3.649
 1208HOH     H2 3830   3.806   1.300   3.628
 1209HOH      O 3831   0.431   1.860   3.346
 1209HOH     H1 3832   0.430   1.847   3.251
 1209HOH     H2 3833   0.401   1.950   3.359
 1210HOH      O 3834   1.986   2.658   1.591
 1210HOH     H1 3835   1.911   2.696   1.547
 1210HOH     H2 3836   1.958   2.648   1.682
 1211HOH      O 3837   1.574   1.000   0.939
 1211HOH     H1 3838   1.542   0.910   0.940
 1211HOH     H2 3839   1.521   1.045   0.873
 1212HOH      O 3840   1.104   2.903   2.000
 1212HOH     H1 3841   1.084   2.818   1.960
 1212HOH     H2 3842   1.144   2.954   1.929
 1213HOH      O 3843   2.075   0.554   0.123
 1213HOH     H1 3844   2.109   0.475   0.082
 1213HOH     H2 3845   2.058   0.615   0.051
 1214HOH      O 3846   3.887   0.190   0.094
 1214HOH     H1 3847   3.881   0.187   0.190
 1214HOH     H2 3848   3.809   0.143   0.064
 1215HOH      O 3849   0.337   1.170   1.114
 1215HOH     H1 3850   0.320   1.258   1.148
 1215HOH     H2 3851   0.305   1.111   1.182
 1216HOH      O 3852   2.325   3.192   4.055
 1216HOH     H1 3853   2.259   3.165   3.991
 1216HOH     H2 3854   2.374   3.261   4.010
 1217HOH      O 3855   1.067   3.627   0.528
 1217HOH     H1 3856   1.104   3.600   0.612
 1217HOH     H2 3857   1.069   3.723   0.531
 1218HOH      O 3858   0.166   0.057   0.931
 1218HOH     H1 3859   0.145   0.121   1.000
 1218HOH     H2 3860   0.123   0.092   0.853
 1219HOH      O 3861   3.242   3.214   3.702
 1219HOH     H1 3862   3.296   3.135   3.693
 1219HOH     H2 3863   3.169   3.199   3.642
 1220HOH      O 3864   3.943   0.045   1.150
 1220HOH     H1 3865   3.918   0.111   1.086
 1220HOH     H2 3866   3.956   0.094   1.231
 1221HOH      O 3867   3.176   3.085   1.288
 1221HOH     H1 3868   3.106   3.065   1.350
 1221HOH     H2 3869   3.161   3.025   1.215
 1222HOH      O 3870   2.373   3.264   3.417
 1222HOH     H1 3871   2.388   3.245   3.510
 1222HOH     H2 3872   2.398   3.184   3.372
 1223HOH      O 3873   3.683   0.608   2.769
 1223HOH     H1 3874   3.728   0.626   2.851
 1223HOH     H2 3875   3.668   0.694   2.730
 1224HOH      O 3876   2.784   0.951   0.859
 1224HOH     H1 3877   2.859   0.998   0.824
 1224HOH     H2 3878   2.722   0.947   0.787
 1225HOH      O 3879   1.581   3.761   0.078
 1225HOH     H1 3880   1.569   3.801  -0.008
 1225HOH     H2 3881   1.642   3.819   0.123
 1226HOH      O 3882   2.331   1.214   3.305
 1226HOH     H1 3883   2.351   1.121   3.304
 1226HOH     H2 3884   2.413   1.257   3.327
 1227HOH      O 3885   1.620   0.825   3.618
 1227HOH     H1 3886   1.704   0.860   3.588
 1227HOH     H2 3887   1.639   0.735   3.645
 1228HOH      O 3888   2.730   3.925   2.167
 1228HOH     H1 3889   2.708   3.993   2.103
 1228HOH     H2 3890   2.723   3.843   2.118
 1229HOH      O 3891   0.029   0.350   1.637
 1229HOH     H1 3892   0.042   0.408   1.712
 1229HOH     H2 3893  -0.006   0.269   1.674
 1230HOH      O 3894   2.930   0.728   2.048
 1230HOH     H1 3895   2.946   0.679   2.129
 1230HOH     H2 3896   2.877   0.803   2.075
 1231HOH      O 3897   1.567   2.551   1.635
 1231HOH     H1 3898   1.514   2.623   1.599
 1231HOH     H2 3899   1.543   2.547   1.728
 1232HOH      O 3900   1.551   0.436   0.937
 1232HOH     H1 3901   1.641   0.411   0.956
 1232HOH     H2 3902   1.498   0.372   0.985
 1233HOH      O 3903   2.806   1.822   3.218
 1233HOH     H1 3904   2.776   1.786   3.302
 1233HOH     H2 3905   2.840   1.747   3.170
 1234HOH      O 3906   0.010   1.398   0.534
 1234HOH     H1 3907   0.033   1.392   0.441
 1234HOH     H2 3908   0.091   1.427   0.576
 1235HOH      O 3909   1.694   3.093   3.170
 1235HOH     H1 3910   1.733   3.164   3.119
 1235HOH     H2 3911   1.655   3.138   3.246
 1236HOH      O 3912   0.917   3.073   0.432
 1236HOH     H1 3913   0.948   3.124   0.507
 1236HOH     H2 3914   0.963   3.111   0.357
 1237HOH      O 3915   0.808   3.674   2.608
 1237HOH     H1 3916   0.842   3.753   2.566
 1237HOH     H2 3917   0.885   3.633   2.647
 1238HOH      O 3918   3.583   1.082   1.200
 1238HOH     H1 3919   3.564   1.034   1.119
 1238HOH     H2 3920   3.553   1.172   1.182
 1239HOH      O 3921   1.046   0.701   3.412
 1239HOH     H1 3922   1.008   0.630   3.464
 1239HOH     H2 3923   1.005   0.780   3.445
 1240HOH      O 3924   2.777   0.229   3.032
 1240HOH     H1 3925   2.871   0.246   3.040
 1240HOH     H2 3926   2.771   0.147   2.984
 1241HOH      O 3927   2.976   3.152   3.606
 1241HOH     H1 3928   3.005   3.200   3.529
 1241HOH     H2 3929   2.927   3.078   3.571
 1242HOH      O 3930   2.248   2.951   0.683
 1242HOH     H1 3931   2.271   2.980   0.594
 1242HOH     H2 3932   2.249   2.856   0.678
 1243HOH      O 3933   2.091   2.735   1.066
 1243HOH     H1 3934   2.114   2.782   1.146
 1243HOH     H2 3935   2.063   2.803   1.005
 1244HOH      O 3936   2.830   1.091   2.572
 1244HOH     H1 3937   2.769   1.052   2.635
 1244HOH     H2 3938   2.796   1.179   2.557
 1245HOH      O 3939   1.305   1.801   1.033
 1245HOH     H1 3940   1.293   1.766   1.122
 1245HOH     H2 3941   1.249   1.878   1.030
 1246HOH      O 3942   2.924   0.471   0.288
 1246HOH     H1 3943   2.971   0.389   0.275
 1246HOH     H2 3944   2.963   0.509   0.366
 1247HOH      O 3945   3.328   0.639   3.702
 1247HOH     H1 3946   3.250   0.690   3.684
 1247HOH     H2 3947   3.313   0.602   3.789
 1248HOH      O 3948   1.205   0.597   2.664
 1248HOH     H1 3949   1.280   0.647   2.633
 1248HOH     H2 3950   1.166   0.560   2.585
 1249HOH      O 3951   0.720   1.448   4.004
 1249HOH     H1 3952   0.678   1.532   3.985
 1249HOH     H2 3953   0.813   1.468   4.010
 1250HOH      O 3954   3.168   0.841   1.585
 1250HOH     H1 3955   3.260   0.864   1.591
 1250HOH     H2 3956   3.136   0.847   1.676
 1251HOH      O 3957   3.887   2.868   2.069
 1251HOH     H1 3958   3.813   2.929   2.068
 1251HOH     H2 3959   3.922   2.873   1.981
 1252HOH      O 3960   2.410   1.992   2.073
 1252HOH     H1 3961   2.334   2.036   2.110
 1252HOH     H2 3962   2.373   1.922   2.018
 1253HOH      O 3963   0.447   2.743   1.573
 1253HOH     H1 3964   0.403   2.696   1.644
 1253HOH     H2 3965   0.423   2.694   1.494
 1254HOH      O 3966   2.335   3.019   1.527
 1254HOH     H1 3967   2.425   2.989   1.517
 1254HOH     H2 3968   2.284   2.940   1.542
 1255HOH      O 3969   1.618   3.684   2.358
 1255HOH     H1 3970   1.651   3.613   2.304
 1255HOH     H2 3971   1.693   3.741   2.372
 1256HOH      O 3972   0.613   0.024   0.832
 1256HOH     H1 3973   0.698   0.038   0.873
 1256HOH     H2 3974   0.632  -0.024   0.752
 1257HOH      O 3975   1.378   1.536   0.798
 1257HOH     H1 3976   1.425   1.534   0.881
 1257HOH     H2 3977   1.447   1.546   0.732
 1258HOH      O 3978   1.926   0.998   2.628
 1258HOH     H1 3979   1.990   1.036   2.689
 1258HOH     H2 3980   1.901   0.915   2.668
 1259HOH      O 3981   1.311   1.248   2.384
 1259HOH     H1 3982   1.290   1.163   2.346
 1259HOH     H2 3983   1.294   1.311   2.314
 1260HOH      O 3984   0.207   2.435   2.815
 1260HOH     H1 3985   0.127   2.466   2.771
 1260HOH     H2 3986   0.237   2.511   2.865
 1261HOH      O 3987   0.789   1.336   0.638
 1261HOH     H1 3988   0.791   1.400   0.567
 1261HOH     H2 3989   0.821   1.384   0.715
 1262HOH      O 3990   3.428   0.899   0.469
 1262HOH     H1 3991   3.518   0.932   0.474
 1262HOH     H2 3992   3.416   0.849   0.550
 1263HOH      O 3993   2.060   3.115   0.185
 1263HOH     H1 3994   2.041   3.203   0.152
 1263HOH     H2 3995   2.095   3.129   0.273
 1264HOH      O 3996   0.302   2.153   0.068
 1264HOH     H1 3997   0.224   2.208   0.084
 1264HOH     H2 3998   0.376   2.211   0.089
 1265HOH      O 3999   2.307   0.399   3.471
 1265HOH     H1 4000   2.236   0.354   3.426
 1265HOH     H2 4001   2.384   0.346   3.454
 1266HOH      O 4002   0.986   3.375   1.487
 1266HOH     H1 4003   0.998   3.333   1.572
 1266HOH     H2 4004   0.892   3.368   1.469
 1267HOH      O 4005   1.015   1.346   1.131
 1267HOH     H1 4006   0.999   1.314   1.220
 1267HOH     H2 4007   1.079   1.285   1.094
 1268HOH      O 4008   1.854   0.068   0.622
 1268HOH     H1 4009   1.942   0.030   0.620
 1268HOH     H2 4010   1.834   0.076   0.715
 1269HOH      O 4011   2.229   1.927   2.448
 1269HOH     H1 4012   2.290   1.991   2.409
 1269HOH     H2 4013   2.284   1.873   2.504
 1270HOH      O 4014   1.542   1.342   2.773
 1270HOH     H1 4015   1.568   1.426   2.736
 1270HOH     H2 4016   1.446   1.346   2.776
 1271HOH      O 4017   1.766   2.033   2.696
 1271HOH     H1 4018   1.861   2.019   2.686
 1271HOH     H2 4019   1.754   2.046   2.790
 1272HOH      O 4020   3.200   1.949   1.607
 1272HOH     H1 4021   3.175   1.858   1.625
 1272HOH     H2 4022   3.231   1.947   1.516
 1273HOH      O 4023   2.092   1.504   1.553
 1273HOH     H1 4024   2.016   1.456   1.520
 1273HOH     H2 4025   2.144   1.523   1.475
 1274HOH      O 4026   3.369   3.759   0.052
 1274HOH     H1 4027   3.349   3.728   0.141
 1274HOH     H2 4028   3.430   3.832   0.066
 1275HOH      O 4029   1.648   3.410   1.077
 1275HOH     H1 4030   1.674   3.417   0.985
 1275HOH     H2 4031   1.582   3.479   1.088
 1276HOH      O 4032   4.021   3.950   0.202
 1276HOH     H1 4033   3.949   3.980   0.258
 1276HOH     H2 4034   4.095   4.006   0.225
 1277HOH      O 4035   2.055   0.370   2.418
 1277HOH     H1 4036   2.094   0.315   2.350
 1277HOH     H2 4037   2.002   0.433   2.370
 1278HOH      O 4038   1.968   1.507   1.976
 1278HOH     H1 4039   1.887   1.553   1.956
 1278HOH     H2 4040   2.036   1.575   1.974
 1279HOH      O 4041   1.089   2.605   2.556
 1279HOH     H1 4042   1.146   2.638   2.487
 1279HOH     H2 4043   1.135   2.624   2.637
 1280HOH      O 4044   1.623   0.269   1.437
 1280HOH     H1 4045   1.545   0.234   1.394
 1280HOH     H2 4046   1.644   0.204   1.504
 1281HOH      O 4047   2.329   0.447   0.230
 1281HOH     H1 4048   2.337   0.363   0.185
 1281HOH     H2 4049   2.239   0.447   0.264
 1282HOH      O 4050   2.752   0.609   1.578
 1282HOH     H1 4051   2.767   0.586   1.670
 1282HOH     H2 4052   2.806   0.547   1.529
 1283HOH      O 4053   2.639   0.091   2.510
 1283HOH     H1 4054   2.716   0.034   2.521
 1283HOH     H2 4055   2.564   0.032   2.521
 1284HOH      O 4056   0.827   0.805   1.079
 1284HOH     H1 4057   0.788   0.872   1.024
 1284HOH     H2 4058   0.775   0.727   1.062
 1285HOH      O 4059   1.181   2.110   0.535
 1285HOH     H1 4060   1.194   2.202   0.556
 1285HOH     H2 4061   1.112   2.081   0.595
 1286HOH      O 4062   1.045   2.025   0.744
 1286HOH     H1 4063   1.134   1.999   0.767
 1286HOH     H2 4064   0.990   1.979   0.807
 1287HOH      O 4065   3.235   1.075   0.697
 1287HOH     H1 4066   3.150   1.105   0.729
 1287HOH     H2 4067   3.298   1.131   0.742
 1288HOH      O 4068   3.617   0.860   1.988
 1288HOH     H1 4069   3.683   0.873   2.055
 1288HOH     H2 4070   3.652   0.905   1.911
 1289HOH      O 4071   1.543   3.392   0.023
 1289HOH     H1 4072   1.516   3.328   0.089
 1289HOH     H2 4073   1.476   3.460   0.027
 1290HOH      O 4074   3.495   1.782   1.936
 1290HOH     H1 4075   3.509   1.842   1.863
 1290HOH     H2 4076   3.478   1.839   2.011
 1291HOH      O 4077   1.674   3.912   0.565
 1291HOH     H1 4078   1.657   3.921   0.471
 1291HOH     H2 4079   1.718   3.993   0.589
 1292HOH      O 4080   3.481   1.232   3.881
 1292HOH     H1 4081   3.419   1.159   3.879
 1292HOH     H2 4082   3.437   1.303   3.835
 1293HOH      O 4083   1.869   2.485   0.503
 1293HOH     H1 4084   1.799   2.482   0.438
 1293HOH     H2 4085   1.823   2.492   0.587
 1294HOH      O 4086   3.088   1.790   1.031
 1294HOH     H1 4087   3.181   1.773   1.014
 1294HOH     H2 4088   3.045   1.777   0.947
 1295HOH      O 4089   3.701   1.647   1.317
 1295HOH     H1 4090   3.675   1.610   1.401
 1295HOH     H2 4091   3.762   1.716   1.340
 1296HOH      O 4092   0.685   1.721   3.952
 1296HOH     H1 4093   0.779   1.721   3.971
 1296HOH     H2 4094   0.663   1.814   3.940
 1297HOH      O 4095   3.459   1.853   4.009
 1297HOH     H1 4096   3.521   1.788   3.974
 1297HOH     H2 4097   3.506   1.893   4.082
 1298HOH      O 4098   1.581   3.344   2.629
 1298HOH     H1 4099   1.605   3.275   2.691
 1298HOH     H2 4100   1.486   3.351   2.638
 1299HOH      O 4101   1.479   1.456  -0.038
 1299HOH     H1 4102   1.565   1.459   0.004
 1299HOH     H2 4103   1.417   1.447   0.036
 1300HOH      O 4104   3.213   0.711   2.465
 1300HOH     H1 4105   3.199   0.789   2.412
 1300HOH     H2 4106   3.216   0.639   2.402
 1301HOH      O 4107   0.021   1.390   3.066
 1301HOH     H1 4108   0.044   1.393   2.974
 1301HOH     H2 4109   0.052   1.305   3.097
 1302HOH      O 4110   1.499   3.155   1.621
 1302HOH     H1 4111   1.448   3.115   1.691
 1302HOH     H2 4112   1.443   3.224   1.586
 1303HOH      O 4113   0.764   3.369   1.054
 1303HOH     H1 4114   0.765   3.294   1.113
 1303HOH     H2 4115   0.830   3.428   1.089
 1304HOH      O 4116   2.406   1.260   0.166
 1304HOH     H1 4117   2.424   1.174   0.202
 1304HOH     H2 4118   2.457   1.320   0.221
 1305HOH      O 4119   0.928   3.703   3.451
 1305HOH     H1 4120   0.939   3.795   3.427
 1305HOH     H2 4121   1.012   3.678   3.490
 1306HOH      O 4122   0.697   3.980   2.682
 1306HOH     H1 4123   0.792   3.982   2.694
 1306HOH     H2 4124   0.682   4.024   2.598
 1307HOH      O 4125   3.629   2.132   3.447
 1307HOH     H1 4126   3.617   2.202   3.511
 1307HOH     H2 4127   3.568   2.152   3.376
 1308HOH      O 4128   3.423   0.987   2.496
 1308HOH     H1 4129   3.387   0.939   2.421
 1308HOH     H2 4130   3.346   1.015   2.546
 1309HOH      O 4131   2.626   0.224   0.240
 1309HOH     H1 4132   2.673   0.230   0.157
 1309HOH     H2 4133   2.690   0.250   0.306
 1310HOH      O 4134   3.232   2.317   0.495
 1310HOH     H1 4135   3.212   2.306   0.402
 1310HOH     H2 4136   3.222   2.410   0.512
 1311HOH      O 4137   0.052   3.063   0.990
 1311HOH     H1 4138   0.022   3.025   1.073
 1311HOH     H2 4139   0.012   3.150   0.988
 1312HOH      O 4140   1.415   0.728   2.542
 1312HOH     H1 4141   1.415   0.665   2.471
 1312HOH     H2 4142   1.496   0.710   2.591
 1313HOH      O 4143   0.874   2.520   1.130
 1313HOH     H1 4144   0.959   2.482   1.109
 1313HOH     H2 4145   0.829   2.528   1.046
 1314HOH      O 4146   1.497   2.618   3.665
 1314HOH     H1 4147   1.584   2.608   3.704
 1314HOH     H2 4148   1.483   2.537   3.616
 1315HOH      O 4149   0.346   2.439   3.317
 1315HOH     H1 4150   0.261   2.454   3.275
 1315HOH     H2 4151   0.327   2.442   3.410
 1316HOH      O 4152   1.071   2.696   0.943
 1316HOH     H1 4153   1.142   2.724   1.000
 1316HOH     H2 4154   0.991   2.722   0.989
 1317HOH      O 4155   1.416   0.643   3.918
 1317HOH     H1 4156   1.501   0.687   3.907
 1317HOH     H2 4157   1.402   0.598   3.835
 1318HOH      O 4158   0.537   2.318   0.166
 1318HOH     H1 4159   0.556   2.365   0.085
 1318HOH     H2 4160   0.608   2.341   0.225
 1319HOH      O 4161   0.698   2.299   1.160
 1319HOH     H1 4162   0.604   2.317   1.147
 1319HOH     H2 4163   0.734   2.382   1.191
 1320HOH      O 4164   0.319   0.377   0.048
 1320HOH     H1 4165   0.246   0.374   0.110
 1320HOH     H2 4166   0.319   0.291   0.006
 1321HOH      O 4167   2.217   3.323   0.802
 1321HOH     H1 4168   2.206   3.414   0.775
 1321HOH     H2 4169   2.254   3.328   0.891
 1322HOH      O 4170   1.610   0.877   1.780
 1322HOH     H1 4171   1.524   0.871   1.821
 1322HOH     H2 4172   1.646   0.961   1.810
 1323HOH      O 4173   3.625   1.450   0.871
 1323HOH     H1 4174   3.685   1.400   0.816
 1323HOH     H2 4175   3.569   1.497   0.809
 1324HOH      O 4176   2.218   2.779   1.554
 1324HOH     H1 4177   2.271   2.766   1.633
 1324HOH     H2 4178   2.138   2.729   1.570
 1325HOH      O 4179   0.142   1.884   2.031
 1325HOH     H1 4180   0.082   1.877   1.957
 1325HOH     H2 4181   0.222   1.920   1.993
 1326HOH      O 4182   2.761   2.743   2.637
 1326HOH     H1 4183   2.735   2.673   2.696
 1326HOH     H2 4184   2.681   2.793   2.622
 1327HOH      O 4185   3.887   0.896   0.088
 1327HOH     H1 4186   3.835   0.920   0.011
 1327HOH     H2 4187   3.868   0.966   0.151
 1328HOH      O 4188   0.756   1.412   2.271
 1328HOH     H1 4189   0.692   1.382   2.207
 1328HOH     H2 4190   0.831   1.439   2.219
 1329HOH      O 4191   2.370   3.276   2.298
 1329HOH     H1 4192   2.445   3.233   2.339
 1329HOH     H2 4193   2.328   3.323   2.370
 1330HOH      O 4194   0.250   2.050   2.683
 1330HOH     H1 4195   0.181   1.983   2.679
 1330HOH     H2 4196   0.214   2.124   2.636
 1331HOH      O 4197   0.305   2.794   2.026
 1331HOH     H1 4198   0.237   2.833   2.080
 1331HOH     H2 4199   0.325   2.711   2.067
 1332HOH      O 4200   3.622   3.642   3.897
 1332HOH     H1 4201   3.624   3.738   3.893
 1332HOH     H2 4202   3.699   3.618   3.948
 1333HOH      O 4203   2.171   0.130   3.740
 1333HOH     H1 4204   2.135   0.105   3.825
 1333HOH     H2 4205   2.170   0.049   3.688
 1334HOH      O 4206   2.108   1.343   1.821
 1334HOH     H1 4207   2.093   1.405   1.750
 1334HOH     H2 4208   2.036   1.358   1.882
 1335HOH      O 4209   0.788   3.158   1.230
 1335HOH     H1 4210   0.733   3.081   1.215
 1335HOH     H2 4211   0.877   3.127   1.218
 1336HOH      O 4212   3.350   0.052   2.715
 1336HOH     H1 4213   3.373  -0.040   2.704
 1336HOH     H2 4214   3.387   0.096   2.639
 1337HOH      O 4215   2.098   1.671   0.787
 1337HOH     H1 4216   2.060   1.594   0.830
 1337HOH     H2 4217   2.069   1.664   0.696
 1338HOH      O 4218   1.893   3.245   2.634
 1338HOH     H1 4219   1.917   3.157   2.662
 1338HOH     H2 4220   1.808   3.235   2.592
 1339HOH      O 4221   2.451   1.803   3.378
 1339HOH     H1 4222   2.386   1.815   3.310
 1339HOH     H2 4223   2.414   1.847   3.455
 1340HOH      O 4224   1.840   2.440   2.998
 1340HOH     H1 4225   1.804   2.527   2.979
 1340HOH     H2 4226   1.852   2.440   3.093
 1341HOH      O 4227   1.878   1.425   0.422
 1341HOH     H1 4228   1.927   1.504   0.401
 1341HOH     H2 4229   1.944   1.363   0.452
 1342HOH      O 4230   0.737   1.114   3.037
 1342HOH     H1 4231   0.773   1.034   3.075
 1342HOH     H2 4232   0.667   1.140   3.096
 1343HOH      O 4233   3.626   3.390   1.526
 1343HOH     H1 4234   3.712   3.356   1.505
 1343HOH     H2 4235   3.627   3.480   1.495
 1344HOH      O 4236   2.606   1.226   2.439
 1344HOH     H1 4237   2.547   1.224   2.364
 1344HOH     H2 4238   2.681   1.173   2.412
 1345HOH      O 4239   0.612   0.884   3.263
 1345HOH     H1 4240   0.611   0.791   3.238
 1345HOH     H2 4241   0.521   0.912   3.252
 1346HOH      O 4242   2.865   1.378   1.453
 1346HOH     H1 4243   2.817   1.436   1.393
 1346HOH     H2 4244   2.868   1.294   1.407
 1347HOH      O 4245   1.873   2.371   0.872
 1347HOH     H1 4246   1.931   2.409   0.806
 1347HOH     H2 4247   1.799   2.431   0.875
 1348HOH      O 4248   1.463   2.514   1.894
 1348HOH     H1 4249   1.387   2.546   1.943
 1348HOH     H2 4250   1.447   2.420   1.885
 1349HOH      O 4251   0.267   1.739   3.725
 1349HOH     H1 4252   0.296   1.740   3.816
 1349HOH     H2 4253   0.329   1.682   3.680
 1350HOH      O 4254   3.396   0.473   0.848
 1350HOH     H1 4255   3.384   0.411   0.776
 1350HOH     H2 4256   3.409   0.417   0.925
 1351HOH      O 4257   1.115   1.015   0.890
 1351HOH     H1 4258   1.163   1.089   0.853
 1351HOH     H2 4259   1.033   1.053   0.921
 1352HOH      O 4260   4.021   3.196   3.259
 1352HOH     H1 4261   3.931   3.229   3.265
 1352HOH     H2 4262   4.018   3.131   3.189
 1353HOH      O 4263   3.778   0.934   2.182
 1353HOH     H1 4264   3.728   0.937   2.263
 1353HOH     H2 4265   3.862   0.896   2.206
 1354HOH      O 4266   1.680   1.548   2.699
 1354HOH     H1 4267   1.671   1.641   2.677
 1354HOH     H2 4268   1.704   1.507   2.616
 1355HOH      O 4269   1.109   0.172   3.489
 1355HOH     H1 4270   1.143   0.244   3.541
 1355HOH     H2 4271   1.147   0.186   3.402
 1356HOH      O 4272   1.975   0.710   2.430
 1356HOH     H1 4273   1.917   0.783   2.409
 1356HOH     H2 4274   1.920   0.632   2.417
 1357HOH      O 4275   3.793   2.808   0.986
 1357HOH     H1 4276   3.853   2.849   1.048
 1357HOH     H2 4277   3.706   2.837   1.013
 1358HOH      O 4278   0.098   2.737   1.360
 1358HOH     H1 4279   0.058   2.758   1.445
 1358HOH     H2 4280   0.165   2.672   1.381
 1359HOH      O 4281   2.210   3.595   2.268
 1359HOH     H1 4282   2.170   3.534   2.207
 1359HOH     H2 4283   2.172   3.574   2.353
 1360HOH      O 4284   0.361   0.969   3.228
 1360HOH     H1 4285   0.348   1.053   3.271
 1360HOH     H2 4286   0.299   0.910   3.272
 1361HOH      O 4287   2.465   1.011   3.139
 1361HOH     H1 4288   2.508   0.926   3.153
 1361HOH     H2 4289   2.537   1.071   3.119
 1362HOH      O 4290   3.524   0.180   3.974
 1362HOH     H1 4291   3.546   0.257   3.920
 1362HOH     H2 4292   3.440   0.202   4.013
 1363HOH      O 4293   0.587   3.828   0.639
 1363HOH     H1 4294   0.575   3.736   0.663
 1363HOH     H2 4295   0.531   3.841   0.564
 1364HOH      O 4296   3.690   2.503   1.596
 1364HOH     H1 4297   3.597   2.509   1.617
 1364HOH     H2 4298   3.722   2.430   1.649
 1365HOH      O 4299   3.113   3.950   1.450
 1365HOH     H1 4300   3.102   4.026   1.506
 1365HOH     H2 4301   3.045   3.958   1.383
 1366HOH      O 4302   0.679   2.151   0.676
 1366HOH     H1 4303   0.695   2.109   0.591
 1366HOH     H2 4304   0.584   2.157   0.682
 1367HOH      O 4305   1.015   3.542   1.120
 1367HOH     H1 4306   1.070   3.559   1.044
 1367HOH     H2 4307   0.949   3.611   1.119
 1368HOH      O 4308   1.989   0.300   0.517
 1368HOH     H1 4309   2.001   0.281   0.424
 1368HOH     H2 4310   1.939   0.226   0.551
 1369HOH      O 4311   0.575   3.383   1.642
 1369HOH     H1 4312   0.597   3.376   1.549
 1369HOH     H2 4313   0.643   3.441   1.678
 1370HOH      O 4314   2.783   1.910   2.421
 1370HOH     H1 4315   2.688   1.908   2.408
 1370HOH     H2 4316   2.813   1.978   2.361
 1371HOH      O 4317   1.972   2.190   0.689
 1371HOH     H1 4318   2.050   2.234   0.655
 1371HOH     H2 4319   1.939   2.250   0.756
 1372HOH      O 4320   2.265   3.642   0.341
 1372HOH     H1 4321   2.335   3.706   0.352
 1372HOH     H2 4322   2.286   3.572   0.402
 1373HOH      O 4323   1.534   0.154   3.245
 1373HOH     H1 4324   1.537   0.130   3.338
 1373HOH     H2 4325   1.626   0.160   3.219
 1374HOH      O 4326   3.875   2.726   3.301
 1374HOH     H1 4327   3.842   2.803   3.255
 1374HOH     H2 4328   3.827   2.653   3.262
 1375HOH      O 4329   3.766   0.223   2.726
 1375HOH     H1 4330   3.782   0.156   2.660
 1375HOH     H2 4331   3.824   0.295   2.703
 1376HOH      O 4332   0.598   3.097   2.902
 1376HOH     H1 4333   0.522   3.113   2.846
 1376HOH     H2 4334   0.562   3.051   2.978
 1377HOH      O 4335   2.254   3.643   3.059
 1377HOH     H1 4336   2.297   3.557   3.067
 1377HOH     H2 4337   2.229   3.665   3.149
 1378HOH      O 4338   2.099   0.817   2.924
 1378HOH     H1 4339   2.094   0.902   2.880
 1378HOH     H2 4340   2.137   0.758   2.859
 1379HOH      O 4341   1.473   2.325   1.497
 1379HOH     H1 4342   1.528   2.256   1.533
 1379HOH     H2 4343   1.477   2.395   1.562
 1380HOH      O 4344   2.444   0.387   0.961
 1380HOH     H1 4345   2.456   0.396   1.055
 1380HOH     H2 4346   2.349   0.394   0.948
 1381HOH      O 4347   1.297   2.744   3.888
 1381HOH     H1 4348   1.368   2.688   3.920
 1381HOH     H2 4349   1.218   2.704   3.923
 1382HOH      O 4350   1.369   0.380   2.816
 1382HOH     H1 4351   1.460   0.404   2.801
 1382HOH     H2 4352   1.320   0.461   2.806
 1383HOH      O 4353   2.628   2.182   0.861
 1383HOH     H1 4354   2.681   2.189   0.940
 1383HOH     H2 4355   2.550   2.134   0.889
 1384HOH      O 4356   0.603   0.409   3.034
 1384HOH     H1 4357   0.645   0.367   2.958
 1384HOH     H2 4358   0.533   0.350   3.059
 1385HOH      O 4359   1.516   1.094   3.120
 1385HOH     H1 4360   1.554   1.021   3.169
 1385HOH     H2 4361   1.589   1.155   3.108
 1386HOH      O 4362   0.679   3.302   0.801
 1386HOH     H1 4363   0.721   3.318   0.886
 1386HOH     H2 4364   0.709   3.374   0.746
 1387HOH      O 4365   2.468   1.597   0.262
 1387HOH     H1 4366   2.407   1.599   0.336
 1387HOH     H2 4367   2.479   1.689   0.237
 1388HOH      O 4368   0.347   3.271   3.503
 1388HOH     H1 4369   0.276   3.212   3.528
 1388HOH     H2 4370   0.364   3.323   3.582
 1389HOH      O 4371   2.224   3.713   0.964
 1389HOH     H1 4372   2.238   3.731   0.871
 1389HOH     H2 4373   2.168   3.785   0.994
 1390HOH      O 4374   2.557   3.827   1.377
 1390HOH     H1 4375   2.636   3.880   1.366
 1390HOH     H2 4376   2.524   3.851   1.464
 1391HOH      O 4377   1.189   1.872   3.692
 1391HOH     H1 4378   1.260   1.825   3.735
 1391HOH     H2 4379   1.148   1.923   3.762
 1392HOH      O 4380   2.801   2.284   3.177
 1392HOH     H1 4381   2.775   2.232   3.254
 1392HOH     H2 4382   2.887   2.318   3.200
 1393HOH      O 4383   1.020   3.049   3.389
 1393HOH     H1 4384   1.092   2.995   3.357
 1393HOH     H2 4385   1.014   3.121   3.326
 1394HOH      O 4386   2.885   0.934   3.042
 1394HOH     H1 4387   2.863   0.854   3.089
 1394HOH     H2 4388   2.813   0.946   2.980
 1395HOH      O 4389   2.727   1.674   2.785
 1395HOH     H1 4390   2.803   1.733   2.788
 1395HOH     H2 4391   2.746   1.608   2.852
 1396HOH      O 4392   0.101   0.409   0.244
 1396HOH     H1 4393   0.014   0.425   0.208
 1396HOH     H2 4394   0.097   0.443   0.333
 1397HOH      O 4395   0.309   2.669   0.438
 1397HOH     H1 4396   0.238   2.679   0.502
 1397HOH     H2 4397   0.387   2.703   0.481
 1398HOH      O 4398   0.145   0.873   0.087
 1398HOH     H1 4399   0.058   0.872   0.128
 1398HOH     H2 4400   0.201   0.824   0.148
 1399HOH      O 4401   2.465   2.991   3.668
 1399HOH     H1 4402   2.410   3.069   3.673
 1399HOH     H2 4403   2.418   2.927   3.722
 1400HOH      O 4404   3.563   3.692   1.790
 1400HOH     H1 4405   3.477   3.673   1.752
 1400HOH     H2 4406   3.548   3.698   1.884
 1401HOH      O 4407   0.796   0.857   0.317
 1401HOH     H1 4408   0.712   0.865   0.273
 1401HOH     H2 4409   0.778   0.875   0.409
 1402HOH      O 4410   1.949   0.917   2.142
 1402HOH     H1 4411   1.888   0.853   2.105
 1402HOH     H2 4412   1.923   0.924   2.234
 1403HOH      O 4413   1.679   1.420   3.311
 1403HOH     H1 4414   1.762   1.467   3.309
 1403HOH     H2 4415   1.680   1.366   3.231
 1404HOH      O 4416   3.137   1.441   0.716
 1404HOH     H1 4417   3.175   1.411   0.634
 1404HOH     H2 4418   3.043   1.448   0.698
 1405HOH      O 4419   2.712   0.976   2.778
 1405HOH     H1 4420   2.736   0.885   2.758
 1405HOH     H2 4421   2.617   0.979   2.765
 1406HOH      O 4422   3.966   2.890   1.183
 1406HOH     H1 4423   4.042   2.832   1.197
 1406HOH     H2 4424   3.916   2.883   1.265
 1407HOH      O 4425   1.450   3.757   2.833
 1407HOH     H1 4426   1.538   3.784   2.806
 1407HOH     H2 4427   1.405   3.840   2.853
 1408HOH      O 4428   2.256   0.987   1.403
 1408HOH     H1 4429   2.312   1.024   1.334
 1408HOH     H2 4430   2.248   1.058   1.467
 1409HOH      O 4431   1.271   3.025   1.832
 1409HOH     H1 4432   1.355   2.987   1.857
 1409HOH     H2 4433   1.260   3.099   1.892
 1410HOH      O 4434   1.736   3.131   2.016
 1410HOH     H1 4435   1.778   3.097   1.937
 1410HOH     H2 4436   1.800   3.117   2.085
 1411HOH      O 4437   2.248   1.922   0.025
 1411HOH     H1 4438   2.236   2.010   0.060
 1411HOH     H2 4439   2.239   1.933  -0.070
 1412HOH      O 4440   2.259   2.616   2.722
 1412HOH     H1 4441   2.255   2.556   2.797
 1412HOH     H2 4442   2.172   2.656   2.718
 1413HOH      O 4443   2.078   0.172   1.654
 1413HOH     H1 4444   2.079   0.244   1.717
 1413HOH     H2 4445   2.170   0.162   1.628
 1414HOH      O 4446   3.315   1.531   1.236
 1414HOH     H1 4447   3.288   1.539   1.328
 1414HOH     H2 4448   3.244   1.483   1.194
 1415HOH      O 4449   3.597   1.494   3.619
 1415HOH     H1 4450   3.651   1.428   3.662
 1415HOH     H2 4451   3.652   1.572   3.617
 1416HOH      O 4452   3.241   3.966   3.945
 1416HOH     H1 4453   3.271   3.968   3.854
 1416HOH     H2 4454   3.248   3.874   3.971
 1417HOH      O 4455   1.114   0.831   2.095
 1417HOH     H1 4456   1.024   0.865   2.092
 1417HOH     H2 4457   1.118   0.767   2.025
 1418HOH      O 4458   1.270   0.314   0.350
 1418HOH     H1 4459   1.181   0.327   0.318
 1418HOH     H2 4460   1.317   0.392   0.321
 1419HOH      O 4461   3.156   3.793   1.917
 1419HOH     H1 4462   3.180   3.711   1.960
 1419HOH     H2 4463   3.093   3.767   1.850
 1420HOH      O 4464   2.557   3.678   1.706
 1420HOH     H1 4465   2.586   3.768   1.723
 1420HOH     H2 4466   2.594   3.628   1.779
 1421HOH      O 4467   2.130   0.300   4.030
 1421HOH     H1 4468   2.094   0.212   4.026
 1421HOH     H2 4469   2.128   0.331   3.940
 1422HOH      O 4470   4.044   3.068   3.509
 1422HOH     H1 4471   4.026   3.143   3.451
 1422HOH     H2 4472   4.019   3.100   3.596
 1423HOH      O 4473   0.315   0.493   2.835
 1423HOH     H1 4474   0.280   0.450   2.913
 1423HOH     H2 4475   0.402   0.455   2.823
 1424HOH      O 4476   1.493   1.335   1.610
 1424HOH     H1 4477   1.533   1.257   1.573
 1424HOH     H2 4478   1.537   1.346   1.695
 1425HOH      O 4479   3.444   0.722   0.678
 1425HOH     H1 4480   3.468   0.631   0.695
 1425HOH     H2 4481   3.390   0.748   0.752
 1426HOH      O 4482   3.298   3.438   3.563
 1426HOH     H1 4483   3.226   3.464   3.505
 1426HOH     H2 4484   3.260   3.370   3.619
 1427HOH      O 4485   3.922   2.430   2.959
 1427HOH     H1 4486   4.017   2.420   2.963
 1427HOH     H2 4487   3.889   2.376   3.031
 1428HOH      O 4488   3.479   3.958   0.384
 1428HOH     H1 4489   3.476   3.991   0.474
 1428HOH     H2 4490   3.561   3.909   0.380
 1429HOH      O 4491   2.582   2.604   1.423
 1429HOH     H1 4492   2.615   2.539   1.361
 1429HOH     H2 4493   2.656   2.663   1.437
 1430HOH      O 4494   2.259   4.034   0.188
 1430HOH     H1 4495   2.327   4.056   0.125
 1430HOH     H2 4496   2.307   4.010   0.267
 1431HOH      O 4497   0.324   0.603   0.810
 1431HOH     H1 4498   0.263   0.672   0.783
 1431HOH     H2 4499   0.395   0.607   0.746
 1432HOH      O 4500   0.171   0.118   0.315
 1432HOH     H1 4501   0.147   0.211   0.312
 1432HOH     H2 4502   0.249   0.116   0.370
 1433HOH      O 4503   0.256   1.624   3.086
 1433HOH     H1 4504   0.256   1.710   3.042
 1433HOH     H2 4505   0.312   1.570   3.031
 1434HOH      O 4506   3.246   2.644   1.669
 1434HOH     H1 4507   3.161   2.626   1.709
 1434HOH     H2 4508   3.297   2.684   1.739
 1435HOH      O 4509   0.843   3.523   0.821
 1435HOH     H1 4510   0.826   3.559   0.908
 1435HOH     H2 4511   0.928   3.559   0.796
 1436HOH      O 4512   4.040   2.786   3.499
 1436HOH     H1 4513   3.980   2.739   3.441
 1436HOH     H2 4514   4.027   2.878   3.477
 1437HOH      O 4515   3.406   0.047   3.367
 1437HOH     H1 4516   3.480   0.032   3.426
 1437HOH     H2 4517   3.347  -0.026   3.382
 1438HOH      O 4518   0.526   3.757   2.709
 1438HOH     H1 4519   0.555   3.847   2.698
 1438HOH     H2 4520   0.605   3.704   2.693
 1439HOH      O 4521   3.863   3.903   3.468
 1439HOH     H1 4522   3.905   3.824   3.502
 1439HOH     H2 4523   3.823   3.876   3.386
 1440HOH      O 4524   1.962   2.767   0.617
 1440HOH     H1 4525   1.942   2.751   0.709
 1440HOH     H2 4526   2.055   2.745   0.608
 1441HOH      O 4527   1.471   1.580   2.274
 1441HOH     H1 4528   1.543   1.642   2.277
 1441HOH     H2 4529   1.509   1.497   2.302
 1442HOH      O 4530  -0.030   1.599   3.559
 1442HOH     H1 4531   0.029   1.585   3.633
 1442HOH     H2 4532   0.020   1.654   3.499
 1443HOH      O 4533   0.676   1.700   0.589
 1443HOH     H1 4534   0.736   1.648   0.535
 1443HOH     H2 4535   0.727   1.721   0.667
 1444HOH      O 4536   2.991   1.187   1.173
 1444HOH     H1 4537   2.974   1.094   1.157
 1444HOH     H2 4538   2.905   1.229   1.164
 1445HOH      O 4539   2.579   1.360   1.587
 1445HOH     H1 4540   2.569   1.375   1.493
 1445HOH     H2 4541   2.666   1.321   1.595
 1446HOH      O 4542   2.473   3.096   0.785
 1446HOH     H1 4543   2.382   3.072   0.767
 1446HOH     H2 4544   2.516   3.013   0.804
 1447HOH      O 4545   0.571   3.124   2.119
 1447HOH     H1 4546   0.612   3.044   2.086
 1447HOH     H2 4547   0.560   3.179   2.042
 1448HOH      O 4548   0.765   0.767   3.580
 1448HOH     H1 4549   0.781   0.673   3.574
 1448HOH     H2 4550   0.670   0.776   3.568
 1449HOH      O 4551   2.132   3.786   0.157
 1449HOH     H1 4552   2.144   3.879   0.177
 1449HOH     H2 4553   2.168   3.740   0.233
 1450HOH      O 4554   2.492   3.627   3.486
 1450HOH     H1 4555   2.491   3.532   3.471
 1450HOH     H2 4556   2.514   3.636   3.578
 1451HOH      O 4557   2.769   0.626   3.531
 1451HOH     H1 4558   2.810   0.712   3.543
 1451HOH     H2 4559   2.742   0.600   3.619
 1452HOH      O 4560   1.628   1.376   0.430
 1452HOH     H1 4561   1.648   1.282   0.430
 1452HOH     H2 4562   1.713   1.419   0.420
 1453HOH      O 4563   2.668   1.504   1.846
 1453HOH     H1 4564   2.588   1.489   1.796
 1453HOH     H2 4565   2.735   1.521   1.780
 1454HOH      O 4566   3.697   2.565   1.285
 1454HOH     H1 4567   3.685   2.659   1.288
 1454HOH     H2 4568   3.697   2.538   1.377
 1455HOH      O 4569   0.104   1.169   0.746
 1455HOH     H1 4570   0.177   1.223   0.716
 1455HOH     H2 4571   0.028   1.205   0.701
 1456HOH      O 4572   0.456   1.769   0.300
 1456HOH     H1 4573   0.423   1.776   0.390
 1456HOH     H2 4574   0.429   1.682   0.271
 1457HOH      O 4575   1.565   3.560   3.140
 1457HOH     H1 4576   1.644   3.594   3.182
 1457HOH     H2 4577   1.517   3.638   3.113
 1458HOH      O 4578   0.495   3.642   1.815
 1458HOH     H1 4579   0.445   3.609   1.741
 1458HOH     H2 4580   0.500   3.736   1.802
 1459HOH      O 4581   2.127   1.182   3.703
 1459HOH     H1 4582   2.138   1.174   3.797
 1459HOH     H2 4583   2.178   1.260   3.679
 1460HOH      O 4584   1.547   2.281   1.233
 1460HOH     H1 4585   1.486   2.334   1.182
 1460HOH     H2 4586   1.518   2.291   1.324
 1461HOH      O 4587   2.506   2.448   3.984
 1461HOH     H1 4588   2.436   2.512   3.974
 1461HOH     H2 4589   2.505   2.398   3.903
 1462HOH      O 4590   3.476   1.989   2.511
 1462HOH     H1 4591   3.570   1.993   2.528
 1462HOH     H2 4592   3.437   2.045   2.579
 1463HOH      O 4593   1.966   3.829   3.328
 1463HOH     H1 4594   2.033   3.885   3.289
 1463HOH     H2 4595   2.011   3.783   3.399
 1464HOH      O 4596   3.307   0.544   2.201
 1464HOH     H1 4597   3.252   0.506   2.133
 1464HOH     H2 4598   3.371   0.476   2.222
 1465HOH      O 4599   3.848   1.737   3.855
 1465HOH     H1 4600   3.875   1.655   3.898
 1465HOH     H2 4601   3.931   1.777   3.828
 1466HOH      O 4602   0.137   3.267   2.688
 1466HOH     H1 4603   0.136   3.198   2.621
 1466HOH     H2 4604   0.120   3.348   2.639
 1467HOH      O 4605   3.106   0.242   3.279
 1467HOH     H1 4606   3.096   0.246   3.184
 1467HOH     H2 4607   3.060   0.162   3.305
 1468HOH      O 4608   1.795   0.929   2.401
 1468HOH     H1 4609   1.701   0.939   2.387
 1468HOH     H2 4610   1.807   0.941   2.495
 1469HOH      O 4611  -0.005   3.085   2.986
 1469HOH     H1 4612   0.076   3.036   2.970
 1469HOH     H2 4613   0.020   3.177   2.973
 1470HOH      O 4614   3.794   2.255   1.444
 1470HOH     H1 4615   3.727   2.233   1.379
 1470HOH     H2 4616   3.752   2.238   1.528
 1471HOH      O 4617   3.688   1.356   0.312
 1471HOH     H1 4618   3.651   1.385   0.396
 1471HOH     H2 4619   3.734   1.434   0.279
 1472HOH      O 4620   0.682   0.820   2.576
 1472HOH     H1 4621   0.727   0.904   2.565
 1472HOH     H2 4622   0.748   0.762   2.613
 1473HOH      O 4623   3.983   3.109   3.772
 1473HOH     H1 4624   3.911   3.122   3.833
 1473HOH     H2 4625   4.015   3.021   3.790
 1474HOH      O 4626   0.064   2.243   1.900
 1474HOH     H1 4627  -0.006   2.309   1.905
 1474HOH     H2 4628   0.033   2.171   1.955
 1475HOH      O 4629   2.703   1.632   0.568
 1475HOH     H1 4630   2.614   1.664   0.579
 1475HOH     H2 4631   2.724   1.650   0.476
 1476HOH      O 4632   2.143   2.981   3.144
 1476HOH     H1 4633   2.095   3.032   3.079
 1476HOH     H2 4634   2.223   3.031   3.159
 1477HOH      O 4635   0.153   1.328   1.406
 1477HOH     H1 4636   0.107   1.370   1.333
 1477HOH     H2 4637   0.245   1.347   1.390
 1478HOH      O 4638   1.124   2.435   0.549
 1478HOH     H1 4639   1.048   2.377   0.547
 1478HOH     H2 4640   1.087   2.523   0.552
 1479HOH      O 4641   1.516   0.260   0.097
 1479HOH     H1 4642   1.435   0.245   0.146
 1479HOH     H2 4643   1.574   0.304   0.159
 1480HOH      O 4644   1.121   3.776   1.566
 1480HOH     H1 4645   1.206   3.811   1.594
 1480HOH     H2 4646   1.096   3.714   1.634
 1481HOH      O 4647   2.181   2.074   0.486
 1481HOH     H1 4648   2.108   2.018   0.461
 1481HOH     H2 4649   2.165   2.157   0.441
 1482HOH      O 4650   0.916   2.141   3.621
 1482HOH     H1 4651   0.870   2.069   3.577
 1482HOH     H2 4652   0.845   2.195   3.658
 1483HOH      O 4653   3.080   2.487   3.882
 1483HOH     H1 4654   3.045   2.505   3.969
 1483HOH     H2 4655   3.012   2.436   3.838
 1484HOH      O 4656   2.658   0.437   0.450
 1484HOH     H1 4657   2.748   0.455   0.425
 1484HOH     H2 4658   2.664   0.373   0.521
 1485HOH      O 4659   1.944   1.096   1.445
 1485HOH     H1 4660   1.929   1.015   1.397
 1485HOH     H2 4661   2.038   1.099   1.460
 1486HOH      O 4662   3.879   0.866   1.586
 1486HOH     H1 4663   3.864   0.776   1.556
 1486HOH     H2 4664   3.862   0.921   1.510
 1487HOH      O 4665   2.982   3.036   3.311
 1487HOH     H1 4666   2.900   3.079   3.335
 1487HOH     H2 4667   3.050   3.095   3.342
 1488HOH      O 4668   0.797   0.671   0.680
 1488HOH     H1 4669   0.863   0.735   0.705
 1488HOH     H2 4670   0.829   0.635   0.597
 1489HOH      O 4671   3.239   2.862   0.926
 1489HOH     H1 4672   3.326   2.826   0.939
 1489HOH     H2 4673   3.198   2.859   1.013
 1490HOH      O 4674   0.856   1.124   0.906
 1490HOH     H1 4675   0.847   1.217   0.886
 1490HOH     H2 4676   0.813   1.113   0.990
 1491HOH      O 4677   3.088   1.729   3.057
 1491HOH     H1 4678   3.022   1.665   3.031
 1491HOH     H2 4679   3.136   1.687   3.128
 1492HOH      O 4680   2.136   0.067   0.927
 1492HOH     H1 4681   2.124   0.065   0.832
 1492HOH     H2 4682   2.127   0.159   0.950
 1493HOH      O 4683   2.251   1.148   0.878
 1493HOH     H1 4684   2.173   1.093   0.890
 1493HOH     H2 4685   2.321   1.086   0.858
 1494HOH      O 4686   3.919   1.369   1.765
 1494HOH     H1 4687   3.912   1.329   1.852
 1494HOH     H2 4688   3.903   1.462   1.780
 1495HOH      O 4689   0.931   2.165   1.106
 1495HOH     H1 4690   1.006   2.224   1.111
 1495HOH     H2 4691   0.854   2.222   1.114
 1496HOH      O 4692   2.985   3.700   1.750
 1496HOH     H1 4693   2.945   3.729   1.668
 1496HOH     H2 4694   2.921   3.642   1.789
 1497HOH      O 4695   1.374   2.717   3.395
 1497HOH     H1 4696   1.464   2.719   3.361
 1497HOH     H2 4697   1.327   2.659   3.334
 1498HOH      O 4698   1.956   1.289   2.399
 1498HOH     H1 4699   1.880   1.279   2.456
 1498HOH     H2 4700   2.024   1.326   2.455
 1499HOH      O 4701   1.817   3.520   1.944
 1499HOH     H1 4702   1.801   3.540   2.036
 1499HOH     H2 4703   1.748   3.458   1.920
 1500HOH      O 4704   2.822   1.505   0.103
 1500HOH     H1 4705   2.858   1.465   0.023
 1500HOH     H2 4706   2.727   1.500   0.090
 1501HOH      O 4707   2.440   2.580   2.002
 1501HOH     H1 4708   2.387   2.505   2.028
 1501HOH     H2 4709   2.398   2.655   2.043
 1502HOH      O 4710   3.055   0.361   0.977
 1502HOH     H1 4711   3.085   0.440   1.022
 1502HOH     H2 4712   2.960   0.371   0.972
 1503HOH      O 4713   1.310   3.338   2.697
 1503HOH     H1 4714   1.261   3.330   2.779
 1503HOH     H2 4715   1.321   3.432   2.685
 1504HOH      O 4716   1.443   1.745   0.276
 1504HOH     H1 4717   1.404   1.667   0.314
 1504HOH     H2 4718   1.428   1.814   0.341
 1505HOH      O 4719   2.779   2.033   0.675
 1505HOH     H1 4720   2.843   1.990   0.733
 1505HOH     H2 4721   2.728   2.090   0.733
 1506HOH      O 4722   0.541   0.587   2.468
 1506HOH     H1 4723   0.629   0.554   2.450
 1506HOH     H2 4724   0.554   0.677   2.497
 1507HOH      O 4725   0.654   2.070   0.405
 1507HOH     H1 4726   0.741   2.038   0.386
 1507HOH     H2 4727   0.605   2.059   0.323
 1508HOH      O 4728  -0.005   2.321   0.491
 1508HOH     H1 4729   0.023   2.231   0.477
 1508HOH     H2 4730  -0.002   2.361   0.404
 1509HOH      O 4731   1.258   0.146   1.766
 1509HOH     H1 4732   1.296   0.125   1.852
 1509HOH     H2 4733   1.164   0.142   1.780
 1510HOH      O 4734   1.824   0.042   1.151
 1510HOH     H1 4735   1.766  -0.020   1.194
 1510HOH     H2 4736   1.873   0.083   1.222
 1511HOH      O 4737   3.875   1.876   2.733
 1511HOH     H1 4738   3.814   1.873   2.807
 1511HOH     H2 4739   3.940   1.809   2.752
 1512HOH      O 4740   3.524   3.031   3.362
 1512HOH     H1 4741   3.471   2.963   3.320
 1512HOH     H2 4742   3.584   3.060   3.294
 1513HOH      O 4743   0.280   0.060   0.567
 1513HOH     H1 4744   0.311   0.146   0.594
 1513HOH     H2 4745   0.288   0.006   0.646
 1514HOH      O 4746   0.401  -0.011   2.288
 1514HOH     H1 4747   0.363   0.071   2.256
 1514HOH     H2 4748   0.347  -0.034   2.364
 1515HOH      O 4749   0.900   1.125   1.853
 1515HOH     H1 4750   0.941   1.212   1.855
 1515HOH     H2 4751   0.870   1.115   1.763
 1516HOH      O 4752   2.780   3.417   0.969
 1516HOH     H1 4753   2.837   3.354   0.925
 1516HOH     H2 4754   2.700   3.369   0.986
 1517HOH      O 4755   1.727   0.507   1.980
 1517HOH     H1 4756   1.645   0.480   1.940
 1517HOH     H2 4757   1.785   0.524   1.906
 1518HOH      O 4758   2.049   3.259   1.761
 1518HOH     H1 4759   2.003   3.243   1.679
 1518HOH     H2 4760   2.070   3.172   1.794
 1519HOH      O 4761   4.053   1.849   3.392
 1519HOH     H1 4762   4.040   1.781   3.326
 1519HOH     H2 4763   3.991   1.917   3.369
 1520HOH      O 4764   1.282   3.652   0.959
 1520HOH     H1 4765   1.283   3.743   0.931
 1520HOH     H2 4766   1.374   3.629   0.968
 1521HOH      O 4767   3.339   3.677   2.854
 1521HOH     H1 4768   3.254   3.635   2.861
 1521HOH     H2 4769   3.386   3.647   2.932
 1522HOH      O 4770   3.342   0.264   0.657
 1522HOH     H1 4771   3.287   0.312   0.596
 1522HOH     H2 4772   3.321   0.172   0.640
 1523HOH      O 4773   3.881   1.856   1.420
 1523HOH     H1 4774   3.952   1.794   1.406
 1523HOH     H2 4775   3.865   1.895   1.334
 1524HOH      O 4776   3.332   0.919   1.329
 1524HOH     H1 4777   3.404   0.967   1.369
 1524HOH     H2 4778   3.257   0.978   1.338
 1525HOH      O 4779   3.285   1.761   0.671
 1525HOH     H1 4780   3.332   1.826   0.723
 1525HOH     H2 4781   3.199   1.800   0.655
 1526HOH      O 4782   1.164   3.396   0.162
 1526HOH     H1 4783   1.234   3.456   0.140
 1526HOH     H2 4784   1.095   3.451   0.198
 1527HOH      O 4785   0.971   3.779   2.202
 1527HOH     H1 4786   1.030   3.809   2.132
 1527HOH     H2 4787   1.028   3.732   2.262
 1528HOH      O 4788   2.218   1.056   3.061
 1528HOH     H1 4789   2.308   1.054   3.094
 1528HOH     H2 4790   2.209   0.975   3.011
 1529HOH      O 4791   1.549   1.507   1.012
 1529HOH     H1 4792   1.629   1.456   1.018
 1529HOH     H2 4793   1.485   1.457   1.063
 1530HOH      O 4794   2.752   3.457   3.249
 1530HOH     H1 4795   2.716   3.525   3.306
 1530HOH     H2 4796   2.707   3.469   3.166
 1531HOH      O 4797   2.529   0.551   2.619
 1531HOH     H1 4798   2.621   0.532   2.599
 1531HOH     H2 4799   2.528   0.643   2.643
 1532HOH      O 4800   3.617   2.166   1.264
 1532HOH     H1 4801   3.543   2.107   1.245
 1532HOH     H2 4802   3.617   2.228   1.191
 1533HOH      O 4803   0.155   3.689   1.823
 1533HOH     H1 4804   0.150   3.609   1.771
 1533HOH     H2 4805   0.185   3.756   1.761
 1534HOH      O 4806   0.914   2.188   3.991
 1534HOH     H1 4807   0.820   2.171   3.983
 1534HOH     H2 4808   0.956   2.108   3.958
 1535HOH      O 4809   2.964   2.614   0.047
 1535HOH     H1 4810   2.978   2.689   0.104
 1535HOH     H2 4811   2.868   2.605   0.042
 1536HOH      O 4812   4.004   3.300   1.038
 1536HOH     H1 4813   3.944   3.283   1.111
 1536HOH     H2 4814   3.967   3.376   0.994
 1537HOH      O 4815   0.081   0.560   1.805
 1537HOH     H1 4816   0.003   0.590   1.851
 1537HOH     H2 4817   0.139   0.637   1.804
 1538HOH      O 4818   1.783   0.776   1.975
 1538HOH     H1 4819   1.712   0.802   1.916
 1538HOH     H2 4820   1.778   0.681   1.978
 1539HOH      O 4821   3.769   3.334   1.243
 1539HOH     H1 4822   3.814   3.408   1.285
 1539HOH     H2 4823   3.692   3.374   1.202
 1540HOH      O 4824   1.277   2.502   2.316
 1540HOH     H1 4825   1.313   2.478   2.402
 1540HOH     H2 4826   1.259   2.595   2.323
 1541HOH      O 4827   2.287   3.430   3.888
 1541HOH     H1 4828   2.201   3.465   3.865
 1541HOH     H2 4829   2.298   3.451   3.981
 1542HOH      O 4830   3.492   2.357   0.625
 1542HOH     H1 4831   3.422   2.333   0.685
 1542HOH     H2 4832   3.557   2.287   0.634
 1543HOH      O 4833   2.461   0.605   0.397
 1543HOH     H1 4834   2.433   0.565   0.314
 1543HOH     H2 4835   2.547   0.567   0.414
 1544HOH      O 4836   1.825   2.917   3.015
 1544HOH     H1 4837   1.881   2.965   2.955
 1544HOH     H2 4838   1.787   2.984   3.071
 1545HOH      O 4839   0.269   1.227   3.379
 1545HOH     H1 4840   0.193   1.169   3.393
 1545HOH     H2 4841   0.230   1.308   3.346
 1546HOH      O 4842   0.698   0.036   0.088
 1546HOH     H1 4843   0.651  -0.038   0.128
 1546HOH     H2 4844   0.680   0.109   0.147
 1547HOH      O 4845   2.322   0.385   2.528
 1547HOH     H1 4846   2.248   0.432   2.491
 1547HOH     H2 4847   2.390   0.452   2.540
 1548HOH      O 4848   0.364   3.032   2.256
 1548HOH     H1 4849   0.390   2.942   2.273
 1548HOH     H2 4850   0.422   3.061   2.186
 1549HOH      O 4851   3.324   1.498   2.189
 1549HOH     H1 4852   3.284   1.512   2.103
 1549HOH     H2 4853   3.376   1.577   2.204
 1550HOH      O 4854   2.911   1.553   3.373
 1550HOH     H1 4855   2.918   1.637   3.419
 1550HOH     H2 4856   2.999   1.534   3.342
 1551HOH      O 4857   1.146   3.664   2.381
 1551HOH     H1 4858   1.137   3.596   2.448
 1551HOH     H2 4859   1.234   3.700   2.395
 1552HOH      O 4860   3.778   4.025   0.760
 1552HOH     H1 4861   3.757   3.932   0.748
 1552HOH     H2 4862   3.865   4.035   0.721
 1553HOH      O 4863   0.887   3.120   1.987
 1553HOH     H1 4864   0.813   3.129   1.926
 1553HOH     H2 4865   0.892   3.026   2.004
 1554HOH      O 4866   2.266   3.991   3.324
 1554HOH     H1 4867   2.220   4.072   3.343
 1554HOH     H2 4868   2.288   3.996   3.231
 1555HOH      O 4869   3.862   3.068   2.734
 1555HOH     H1 4870   3.925   3.072   2.806
 1555HOH     H2 4871   3.777   3.053   2.776
 1556HOH      O 4872   0.162   1.462   3.300
 1556HOH     H1 4873   0.195   1.503   3.380
 1556HOH     H2 4874   0.207   1.509   3.229
 1557HOH      O 4875   2.428   3.992   3.543
 1557HOH     H1 4876   2.409   3.995   3.449
 1557HOH     H2 4877   2.344   3.970   3.583
 1558HOH      O 4878   1.110   4.026   2.982
 1558HOH     H1 4879   1.188   4.081   2.982
 1558HOH     H2 4880   1.100   4.000   2.890
 1559HOH      O 4881   0.958   1.569   4.025
 1559HOH     H1 4882   1.024   1.599   4.087
 1559HOH     H2 4883   1.000   1.579   3.939
 1560HOH      O 4884   2.714   0.962   3.565
 1560HOH     H1 4885   2.720   1.053   3.594
 1560HOH     H2 4886   2.671   0.916   3.637
 1561HOH      O 4887   1.136   1.484   0.285
 1561HOH     H1 4888   1.048   1.449   0.269
 1561HOH     H2 4889   1.164   1.439   0.365
 1562HOH      O 4890   0.910   2.300   0.701
 1562HOH     H1 4891   0.938   2.213   0.730
 1562HOH     H2 4892   0.845   2.282   0.633
 1563HOH      O 4893   0.332   2.139   3.467
 1563HOH     H1 4894   0.322   2.113   3.559
 1563HOH     H2 4895   0.248   2.176   3.443
 1564HOH      O 4896   2.246   1.117   3.932
 1564HOH     H1 4897   2.292   1.033   3.925
 1564HOH     H2 4898   2.287   1.160   4.007
 1565HOH      O 4899   2.308   3.986   3.035
 1565HOH     H1 4900   2.235   3.985   2.974
 1565HOH     H2 4901   2.358   4.064   3.011
 1566HOH      O 4902   2.954   1.053   0.560
 1566HOH     H1 4903   2.966   1.128   0.619
 1566HOH     H2 4904   3.038   1.043   0.516
 1567HOH      O 4905   2.777   3.388   1.687
 1567HOH     H1 4906   2.754   3.455   1.752
 1567HOH     H2 4907   2.698   3.336   1.677
 1568HOH      O 4908   1.177   2.894   0.797
 1568HOH     H1 4909   1.192   2.883   0.703
 1568HOH     H2 4910   1.134   2.813   0.825
 1569HOH      O 4911   0.820   1.269   3.637
 1569HOH     H1 4912   0.798   1.340   3.576
 1569HOH     H2 4913   0.825   1.191   3.582
 1570HOH      O 4914   1.621   0.457   2.867
 1570HOH     H1 4915   1.662   0.519   2.927
 1570HOH     H2 4916   1.649   0.371   2.898
 1571HOH      O 4917   2.884   2.113   2.263
 1571HOH     H1 4918   2.886   2.137   2.170
 1571HOH     H2 4919   2.863   2.194   2.309
 1572HOH      O 4920   2.481   0.096   0.455
 1572HOH     H1 4921   2.509   0.134   0.372
 1572HOH     H2 4922   2.445   0.170   0.504
 1573HOH      O 4923   0.181   0.158   1.871
 1573HOH     H1 4924   0.254   0.101   1.845
 1573HOH     H2 4925   0.223   0.233   1.913
 1574HOH      O 4926   1.087   2.338   2.607
 1574HOH     H1 4927   1.068   2.427   2.577
 1574HOH     H2 4928   1.170   2.316   2.565
 1575HOH      O 4929   1.541   1.367   1.892
 1575HOH     H1 4930   1.567   1.337   1.979
 1575HOH     H2 4931   1.485   1.443   1.908
 1576HOH      O 4932   1.617   2.031   1.162
 1576HOH     H1 4933   1.623   2.067   1.073
 1576HOH     H2 4934   1.612   2.108   1.218
 1577HOH      O 4935   2.540   2.591   1.005
 1577HOH     H1 4936   2.476   2.574   1.074
 1577HOH     H2 4937   2.553   2.507   0.962
 1578HOH      O 4938   4.037   2.599   1.770
 1578HOH     H1 4939   4.030   2.540   1.695
 1578HOH     H2 4940   3.977   2.562   1.836
 1579HOH      O 4941   2.022   1.913   1.845
 1579HOH     H1 4942   2.106   1.918   1.890
 1579HOH     H2 4943   2.038   1.855   1.770
 1580HOH      O 4944   1.311   1.305   3.830
 1580HOH     H1 4945   1.345   1.347   3.909
 1580HOH     H2 4946   1.367   1.228   3.818
 1581HOH      O 4947   1.402   1.941   2.543
 1581HOH     H1 4948   1.315   1.964   2.509
 1581HOH     H2 4949   1.459   2.010   2.509
 1582HOH      O 4950   0.278   3.481   1.372
 1582HOH     H1 4951   0.286   3.428   1.451
 1582HOH     H2 4952   0.184   3.497   1.364
 1583HOH      O 4953   0.306   2.193   2.102
 1583HOH     H1 4954   0.219   2.222   2.077
 1583HOH     H2 4955   0.298   2.169   2.194
 1584HOH      O 4956   2.716   1.225   3.687
 1584HOH     H1 4957   2.727   1.311   3.647
 1584HOH     H2 4958   2.621   1.213   3.694
 1585HOH      O 4959   3.502   1.916   0.266
 1585HOH     H1 4960   3.430   1.860   0.238
 1585HOH     H2 4961   3.463   2.002   0.279
 1586HOH      O 4962   2.564   0.501   2.260
 1586HOH     H1 4963   2.575   0.593   2.283
 1586HOH     H2 4964   2.480   0.498   2.213
 1587HOH      O 4965   2.274   0.905   1.736
 1587HOH     H1 4966   2.199   0.898   1.795
 1587HOH     H2 4967   2.275   0.997   1.708
 1588HOH      O 4968   3.998   3.844   2.459
 1588HOH     H1 4969   3.964   3.755   2.466
 1588HOH     H2 4970   4.075   3.836   2.403
 1589HOH      O 4971   2.567   3.123   0.129
 1589HOH     H1 4972   2.630   3.093   0.063
 1589HOH     H2 4973   2.488   3.141   0.079
 1590HOH      O 4974   3.263   3.740   1.659
 1590HOH     H1 4975   3.296   3.687   1.587
 1590HOH     H2 4976   3.174   3.708   1.675
 1591HOH      O 4977   0.112   3.758   3.297
 1591HOH     H1 4978   0.149   3.833   3.249
 1591HOH     H2 4979   0.110   3.687   3.233
 1592HOH      O 4980   2.215   2.472   2.938
 1592HOH     H1 4981   2.234   2.521   3.018
 1592HOH     H2 4982   2.224   2.380   2.963
 1593HOH      O 4983   0.601   0.943   1.402
 1593HOH     H1 4984   0.552   0.986   1.332
 1593HOH     H2 4985   0.534   0.901   1.456
 1594HOH      O 4986   0.629   0.175   3.794
 1594HOH     H1 4987   0.712   0.130   3.781
 1594HOH     H2 4988   0.564   0.104   3.798
 1595HOH      O 4989   3.916   1.529   2.036
 1595HOH     H1 4990   3.876   1.574   1.962
 1595HOH     H2 4991   3.873   1.566   2.113
 1596HOH      O 4992   3.061   0.356   0.038
 1596HOH     H1 4993   3.010   0.283   0.074
 1596HOH     H2 4994   3.151   0.338   0.063
 1597HOH      O 4995   1.623   1.063   1.318
 1597HOH     H1 4996   1.574   1.049   1.399
 1597HOH     H2 4997   1.704   1.013   1.329
 1598HOH      O 4998   4.034   3.291   0.419
 1598HOH     H1 4999   3.965   3.226   0.430
 1598HOH     H2 5000   4.104   3.244   0.373
 1599HOH      O 5001   0.565   3.079   2.480
 1599HOH     H1 5002   0.556   2.984   2.472
 1599HOH     H2 5003   0.595   3.108   2.394
 1600HOH      O 5004   1.539   4.027   1.567
 1600HOH     H1 5005   1.457   3.977   1.559
 1600HOH     H2 5006   1.576   3.998   1.650
 1601HOH      O 5007   3.882   0.870   0.852
 1601HOH     H1 5008   3.859   0.959   0.878
 1601HOH     H2 5009   3.815   0.846   0.788
 1602HOH      O 5010   3.221   1.656   2.501
 1602HOH     H1 5011   3.200   1.569   2.468
 1602HOH     H2 5012   3.136   1.696   2.520
 1603HOH      O 5013   3.312   3.361   1.320
 1603HOH     H1 5014   3.253   3.289   1.294
 1603HOH     H2 5015   3.258   3.415   1.378
 1604HOH      O 5016   1.928   3.365   3.758
 1604HOH     H1 5017   1.883   3.306   3.697
 1604HOH     H2 5018   1.948   3.443   3.706
 1605HOH      O 5019   0.380   3.655   2.911
 1605HOH     H1 5020   0.401   3.680   2.821
 1605HOH     H2 5021   0.458   3.680   2.961
 1606HOH      O 5022   1.797   3.920   3.866
 1606HOH     H1 5023   1.711   3.899   3.831
 1606HOH     H2 5024   1.794   3.892   3.958
 1607HOH      O 5025   3.852   4.071   2.510
 1607HOH     H1 5026   3.782   4.053   2.446
 1607HOH     H2 5027   3.902   3.990   2.513
 1608HOH      O 5028   3.121   1.941   1.311
 1608HOH     H1 5029   3.115   1.878   1.239
 1608HOH     H2 5030   3.036   1.935   1.355
 1609HOH      O 5031   0.131   0.677   1.112
 1609HOH     H1 5032   0.159   0.751   1.057
 1609HOH     H2 5033   0.190   0.606   1.087
 1610HOH      O 5034   0.077   0.617   2.286
 1610HOH     H1 5035   0.064   0.712   2.294
 1610HOH     H2 5036   0.000   0.579   2.329
 1611HOH      O 5037   2.217   1.918   3.246
 1611HOH     H1 5038   2.251   1.866   3.173
 1611HOH     H2 5039   2.177   1.995   3.204
 1612HOH      O 5040   3.344   0.303   0.103
 1612HOH     H1 5041   3.395   0.374   0.063
 1612HOH     H2 5042   3.303   0.345   0.179
 1613HOH      O 5043   3.891   2.214   3.618
 1613HOH     H1 5044   3.811   2.260   3.645
 1613HOH     H2 5045   3.873   2.184   3.529
 1614HOH      O 5046   2.799   0.699   2.774
 1614HOH     H1 5047   2.746   0.636   2.822
 1614HOH     H2 5048   2.887   0.690   2.811
 1615HOH      O 5049   3.346   1.863   2.931
 1615HOH     H1 5050   3.389   1.913   2.999
 1615HOH     H2 5051   3.269   1.825   2.974
 1616HOH      O 5052   3.547   0.993   0.932
 1616HOH     H1 5053   3.597   0.964   0.855
 1616HOH     H2 5054   3.541   1.088   0.922
 1617HOH      O 5055   0.950   2.971   2.415
 1617HOH     H1 5056   0.920   2.891   2.372
 1617HOH     H2 5057   0.873   3.028   2.417
 1618HOH      O 5058   3.368   0.711   1.152
 1618HOH     H1 5059   3.343   0.780   1.213
 1618HOH     H2 5060   3.454   0.735   1.120
 1619HOH      O 5061   3.390   2.447   3.444
 1619HOH     H1 5062   3.345   2.529   3.464
 1619HOH     H2 5063   3.321   2.388   3.413
 1620HOH      O 5064   2.643   2.763   3.814
 1620HOH     H1 5065   2.707   2.791   3.749
 1620HOH     H2 5066   2.564   2.744   3.763
 1621HOH      O 5067   3.414   2.445   1.645
 1621HOH     H1 5068   3.386   2.371   1.591
 1621HOH     H2 5069   3.355   2.516   1.622
 1622HOH      O 5070   3.252   3.365   1.730
 1622HOH     H1 5071   3.323   3.301   1.727
 1622HOH     H2 5072   3.197   3.344   1.654
 1623HOH      O 5073   3.525   1.497   1.841
 1623HOH     H1 5074   3.511   1.549   1.920
 1623HOH     H2 5075   3.528   1.407   1.873
 1624HOH      O 5076   1.974   2.580   3.751
 1624HOH     H1 5077   1.990   2.649   3.687
 1624HOH     H2 5078   1.985   2.499   3.702
 1625HOH      O 5079   2.767   0.653   2.504
 1625HOH     H1 5080   2.777   0.730   2.448
 1625HOH     H2 5081   2.787   0.685   2.592
 1626HOH      O 5082   0.937   2.698   3.384
 1626HOH     H1 5083   0.938   2.608   3.418
 1626HOH     H2 5084   1.020   2.705   3.336
 1627HOH      O 5085   1.803   3.632   0.890
 1627HOH     H1 5086   1.787   3.556   0.833
 1627HOH     H2 5087   1.879   3.607   0.943
 1628HOH      O 5088   3.320   1.545   0.142
 1628HOH     H1 5089   3.385   1.474   0.148
 1628HOH     H2 5090   3.319   1.582   0.230
 1629HOH      O 5091   3.219   0.475   3.892
 1629HOH     H1 5092   3.138   0.475   3.943
 1629HOH     H2 5093   3.287   0.453   3.956
 1630HOH      O 5094   3.177   1.411   1.771
 1630HOH     H1 5095   3.118   1.337   1.782
 1630HOH     H2 5096   3.189   1.418   1.676
 1631HOH      O 5097   2.705   1.106   1.647
 1631HOH     H1 5098   2.797   1.095   1.672
 1631HOH     H2 5099   2.683   1.025   1.600
 1632HOH      O 5100   1.241   3.254   3.970
 1632HOH     H1 5101   1.274   3.165   3.989
 1632HOH     H2 5102   1.174   3.269   4.036
 1633HOH      O 5103   2.842   2.421   0.357
 1633HOH     H1 5104   2.840   2.335   0.398
 1633HOH     H2 5105   2.934   2.434   0.332
 1634HOH      O 5106   0.243   2.068   3.163
 1634HOH     H1 5107   0.259   2.134   3.096
 1634HOH     H2 5108   0.238   2.118   3.245
 1635HOH      O 5109   2.577   2.852   1.617
 1635HOH     H1 5110   2.640   2.844   1.546
 1635HOH     H2 5111   2.601   2.933   1.662
 1636HOH      O 5112   1.034   0.963   3.416
 1636HOH     H1 5113   1.113   0.929   3.375
 1636HOH     H2 5114   1.047   1.058   3.415
 1637HOH      O 5115   0.626   0.052   2.428
 1637HOH     H1 5116   0.540   0.012   2.417
 1637HOH     H2 5117   0.642   0.098   2.346
 1638HOH      O 5118   0.486   2.623   3.191
 1638HOH     H1 5119   0.552   2.661   3.249
 1638HOH     H2 5120   0.436   2.564   3.247
 1639HOH      O 5121   2.066   0.932   3.316
 1639HOH     H1 5122   1.973   0.955   3.307
 1639HOH     H2 5123   2.112   1.015   3.311
 1640HOH      O 5124   2.270   1.589   1.033
 1640HOH     H1 5125   2.330   1.620   0.965
 1640HOH     H2 5126   2.308   1.620   1.115
 1641HOH      O 5127   0.361   3.732   3.670
 1641HOH     H1 5128   0.282   3.690   3.704
 1641HOH     H2 5129   0.358   3.717   3.576
 1642HOH      O 5130   1.712   2.809   1.082
 1642HOH     H1 5131   1.664   2.865   1.022
 1642HOH     H2 5132   1.786   2.863   1.111
 1643HOH      O 5133   0.961   3.061   0.030
 1643HOH     H1 5134   1.032   3.076   0.093
 1643HOH     H2 5135   0.889   3.114   0.062
 1644HOH      O 5136   2.414   3.069   3.183
 1644HOH     H1 5137   2.489   3.125   3.161
 1644HOH     H2 5138   2.444   3.018   3.258
 1645HOH      O 5139   2.847   0.109   3.483
 1645HOH     H1 5140   2.785   0.035   3.487
 1645HOH     H2 5141   2.908   0.085   3.413
 1646HOH      O 5142   0.983   2.453   3.493
 1646HOH     H1 5143   1.065   2.472   3.539
 1646HOH     H2 5144   0.935   2.395   3.552
 1647HOH      O 5145   3.726   0.093   2.968
 1647HOH     H1 5146   3.709   0.131   2.882
 1647HOH     H2 5147   3.771   0.163   3.016
 1648HOH      O 5148   0.402   2.803   3.917
 1648HOH     H1 5149   0.345   2.877   3.937
 1648HOH     H2 5150   0.351   2.726   3.941
 1649HOH      O 5151   1.535   3.016   0.968
 1649HOH     H1 5152   1.596   3.064   0.911
 1649HOH     H2 5153   1.554   3.048   1.056
 1650HOH      O 5154   0.357   1.527   0.569
 1650HOH     H1 5155   0.335   1.617   0.593
 1650HOH     H2 5156   0.398   1.490   0.647
 1651HOH      O 5157   0.045   0.067   3.458
 1651HOH     H1 5158   0.116   0.032   3.511
 1651HOH     H2 5159  -0.018  -0.005   3.452
 1652HOH      O 5160   1.730   1.293   3.073
 1652HOH     H1 5161   1.817   1.254   3.060
 1652HOH     H2 5162   1.716   1.346   2.995
 1653HOH      O 5163   2.630   3.150   1.964
 1653HOH     H1 5164   2.635   3.243   1.943
 1653HOH     H2 5165   2.543   3.123   1.935
 1654HOH      O 5166   0.850   1.038   2.491
 1654HOH     H1 5167   0.838   1.107   2.557
 1654HOH     H2 5168   0.944   1.020   2.492
 1655HOH      O 5169   3.540   3.488   1.187
 1655HOH     H1 5170   3.480   3.440   1.244
 1655HOH     H2 5171   3.548   3.574   1.227
 1656HOH      O 5172   2.595   3.206   1.314
 1656HOH     H1 5173   2.536   3.223   1.387
 1656HOH     H2 5174   2.633   3.292   1.294
 1657HOH      O 5175   3.537   1.704   2.366
 1657HOH     H1 5176   3.456   1.742   2.403
 1657HOH     H2 5177   3.602   1.773   2.377
 1658HOH      O 5178   1.446   1.959   1.396
 1658HOH     H1 5179   1.491   1.998   1.471
 1658HOH     H2 5180   1.504   1.977   1.321
 1659HOH      O 5181   3.387   1.996   1.238
 1659HOH     H1 5182   3.386   1.904   1.211
 1659HOH     H2 5183   3.299   2.012   1.271
 1660HOH      O 5184   1.153   0.524   3.256
 1660HOH     H1 5185   1.120   0.596   3.309
 1660HOH     H2 5186   1.075   0.484   3.217
 1661HOH      O 5187   3.508   1.368   0.115
 1661HOH     H1 5188   3.514   1.302   0.045
 1661HOH     H2 5189   3.574   1.340   0.179
 1662HOH      O 5190   0.182   1.119   2.430
 1662HOH     H1 5191   0.210   1.100   2.520
 1662HOH     H2 5192   0.087   1.108   2.432
 1663HOH      O 5193   0.552   2.310   2.081
 1663HOH     H1 5194   0.552   2.290   1.988
 1663HOH     H2 5195   0.463   2.289   2.110
 1664HOH      O 5196   2.018   2.353   2.789
 1664HOH     H1 5197   2.099   2.394   2.820
 1664HOH     H2 5198   1.952   2.378   2.854
 1665HOH      O 5199   1.516   0.653   3.428
 1665HOH     H1 5200   1.509   0.629   3.520
 1665HOH     H2 5201   1.485   0.575   3.381
 1666HOH      O 5202   0.457   1.205   3.565
 1666HOH     H1 5203   0.408   1.220   3.484
 1666HOH     H2 5204   0.548   1.196   3.536
 1667HOH      O 5205   3.049   0.098   1.622
 1667HOH     H1 5206   3.014   0.052   1.698
 1667HOH     H2 5207   3.051   0.190   1.649
 1668HOH      O 5208   3.397   2.832   1.825
 1668HOH     H1 5209   3.474   2.802   1.874
 1668HOH     H2 5210   3.361   2.903   1.879
 1669HOH      O 5211   1.280   4.005   3.752
 1669HOH     H1 5212   1.210   3.977   3.810
 1669HOH     H2 5213   1.275   4.101   3.752
 1670HOH      O 5214   2.853   2.256   1.528
 1670HOH     H1 5215   2.897   2.276   1.611
 1670HOH     H2 5216   2.871   2.333   1.473
 1671HOH      O 5217   2.974   3.879   3.933
 1671HOH     H1 5218   2.972   3.813   3.864
 1671HOH     H2 5219   3.065   3.908   3.935
 1672HOH      O 5220   3.400   2.970   2.376
 1672HOH     H1 5221   3.467   2.902   2.369
 1672HOH     H2 5222   3.409   3.022   2.296
 1673HOH      O 5223   3.031   1.657   2.236
 1673HOH     H1 5224   3.106   1.600   2.222
 1673HOH     H2 5225   3.064   1.729   2.290
 1674HOH      O 5226   2.392   3.434   3.193
 1674HOH     H1 5227   2.463   3.382   3.155
 1674HOH     H2 5228   2.388   3.406   3.285
 1675HOH      O 5229   2.055   2.196   3.409
 1675HOH     H1 5230   2.071   2.168   3.319
 1675HOH     H2 5231   2.128   2.256   3.428
 1676HOH      O 5232   1.675   0.276   3.502
 1676HOH     H1 5233   1.770   0.266   3.504
 1676HOH     H2 5234   1.659   0.333   3.427
 1677HOH      O 5235   3.747   1.928   1.192
 1677HOH     H1 5236   3.804   1.956   1.120
 1677HOH     H2 5237   3.701   2.008   1.218
 1678HOH      O 5238   2.777   1.590   3.025
 1678HOH     H1 5239   2.713   1.581   3.095
 1678HOH     H2 5240   2.829   1.510   3.030
 1679HOH      O 5241   0.370   3.397   2.990
 1679HOH     H1 5242   0.364   3.491   2.971
 1679HOH     H2 5243   0.313   3.356   2.925
 1680HOH      O 5244   2.696   2.655   0.049
 1680HOH     H1 5245   2.650   2.581   0.009
 1680HOH     H2 5246   2.692   2.724  -0.017
 1681HOH      O 5247   3.637   0.812   3.084
 1681HOH     H1 5248   3.635   0.741   3.148
 1681HOH     H2 5249   3.567   0.790   3.023
 1682HOH      O 5250   0.996   0.294   1.791
 1682HOH     H1 5251   1.030   0.353   1.724
 1682HOH     H2 5252   0.901   0.303   1.785
 1683HOH      O 5253   0.855   1.720   2.700
 1683HOH     H1 5254   0.903   1.734   2.619
 1683HOH     H2 5255   0.913   1.754   2.768
 1684HOH      O 5256   0.861   2.542   0.839
 1684HOH     H1 5257   0.878   2.458   0.797
 1684HOH     H2 5258   0.947   2.585   0.843
 1685HOH      O 5259   1.575   3.667   1.055
 1685HOH     H1 5260   1.531   3.751   1.072
 1685HOH     H2 5261   1.657   3.690   1.013
 1686HOH      O 5262   1.048   2.990   1.132
 1686HOH     H1 5263   1.138   3.022   1.128
 1686HOH     H2 5264   1.044   2.939   1.213
 1687HOH      O 5265   1.976   2.257   0.137
 1687HOH     H1 5266   1.922   2.179   0.130
 1687HOH     H2 5267   1.926   2.325   0.092
 1688HOH      O 5268   2.779   0.426   3.337
 1688HOH     H1 5269   2.864   0.385   3.351
 1688HOH     H2 5270   2.785   0.510   3.384
 1689HOH      O 5271   2.900   1.471   3.739
 1689HOH     H1 5272   2.973   1.409   3.744
 1689HOH     H2 5273   2.843   1.447   3.811
 1690HOH      O 5274   2.385   1.783   3.055
 1690HOH     H1 5275   2.385   1.789   2.960
 1690HOH     H2 5276   2.477   1.765   3.078
 1691HOH      O 5277   0.056   2.299   1.093
 1691HOH     H1 5278   0.064   2.248   1.174
 1691HOH     H2 5279  -0.022   2.353   1.107
 1692HOH      O 5280   3.378   0.996   3.825
 1692HOH     H1 5281   3.334   1.001   3.740
 1692HOH     H2 5282   3.352   0.911   3.861
 1693HOH      O 5283   2.708   0.477   4.003
 1693HOH     H1 5284   2.695   0.384   4.021
 1693HOH     H2 5285   2.785   0.480   3.946
 1694HOH      O 5286   2.303   1.506   1.952
 1694HOH     H1 5287   2.244   1.431   1.945
 1694HOH     H2 5288   2.329   1.524   1.862
 1695HOH      O 5289   3.667   3.380   3.225
 1695HOH     H1 5290   3.740   3.439   3.208
 1695HOH     H2 5291   3.655   3.383   3.320
 1696HOH      O 5292   2.265   0.728   0.766
 1696HOH     H1 5293   2.278   0.729   0.861
 1696HOH     H2 5294   2.352   0.745   0.730
 1697HOH      O 5295   3.646   0.722   3.941
 1697HOH     H1 5296   3.558   0.735   3.906
 1697HOH     H2 5297   3.705   0.753   3.873
 1698HOH      O 5298   0.278   2.647   2.967
 1698HOH     H1 5299   0.338   2.647   3.042
 1698HOH     H2 5300   0.215   2.716   2.988
 1699HOH      O 5301   3.227   2.438   1.043
 1699HOH     H1 5302   3.139   2.471   1.058
 1699HOH     H2 5303   3.215   2.347   1.014
 1700HOH      O 5304   0.436   1.829   1.337
 1700HOH     H1 5305   0.484   1.814   1.418
 1700HOH     H2 5306   0.413   1.922   1.340
 1701HOH      O 5307   2.559   1.142   3.954
 1701HOH     H1 5308   2.512   1.073   4.001
 1701HOH     H2 5309   2.527   1.135   3.864
 1702HOH      O 5310   1.840   1.922   2.064
 1702HOH     H1 5311   1.872   1.984   2.130
 1702HOH     H2 5312   1.919   1.890   2.020
 1703HOH      O 5313   2.449   2.274   1.112
 1703HOH     H1 5314   2.378   2.243   1.167
 1703HOH     H2 5315   2.526   2.275   1.169
 1704HOH      O 5316   1.497   2.230   0.727
 1704HOH     H1 5317   1.553   2.167   0.683
 1704HOH     H2 5318   1.481   2.298   0.662
 1705HOH      O 5319   3.634   1.641   3.994
 1705HOH     H1 5320   3.676   1.586   4.060
 1705HOH     H2 5321   3.706   1.665   3.935
 1706HOH      O 5322   3.797   2.718   0.113
 1706HOH     H1 5323   3.884   2.756   0.105
 1706HOH     H2 5324   3.775   2.688   0.025
 1707HOH      O 5325   3.856   0.603   0.637
 1707HOH     H1 5326   3.855   0.561   0.723
 1707HOH     H2 5327   3.767   0.592   0.604
 1708HOH      O 5328   2.534   0.746   2.040
 1708HOH     H1 5329   2.439   0.748   2.028
 1708HOH     H2 5330   2.566   0.825   1.997
 1709HOH      O 5331   1.150   3.363   2.471
 1709HOH     H1 5332   1.061   3.330   2.484
 1709HOH     H2 5333   1.193   3.350   2.556
 1710HOH      O 5334   3.440   0.337   2.358
 1710HOH     H1 5335   3.447   0.241   2.356
 1710HOH     H2 5336   3.459   0.360   2.449
 1711HOH      O 5337   0.174   0.824   3.338
 1711HOH     H1 5338   0.099   0.797   3.284
 1711HOH     H2 5339   0.161   0.779   3.421
 1712HOH      O 5340   2.213   0.588   1.657
 1712HOH     H1 5341   2.133   0.637   1.642
 1712HOH     H2 5342   2.282   0.641   1.618
 1713HOH      O 5343   3.006   4.004   3.259
 1713HOH     H1 5344   3.051   4.012   3.175
 1713HOH     H2 5345   2.992   3.910   3.271
 1714HOH      O 5346   3.841   3.874   2.980
 1714HOH     H1 5347   3.934   3.894   2.968
 1714HOH     H2 5348   3.796   3.957   2.963
 1715HOH      O 5349   1.722   0.203   2.910
 1715HOH     H1 5350   1.743   0.165   2.824
 1715HOH     H2 5351   1.760   0.142   2.973
 1716HOH      O 5352   1.130   3.820   1.257
 1716HOH     H1 5353   1.172   3.735   1.271
 1716HOH     H2 5354   1.135   3.863   1.343
 1717HOH      O 5355   1.189   3.601   3.904
 1717HOH     H1 5356   1.236   3.616   3.986
 1717HOH     H2 5357   1.129   3.676   3.897
 1718HOH      O 5358   1.239   1.713   4.007
 1718HOH     H1 5359   1.297   1.671   3.944
 1718HOH     H2 5360   1.292   1.724   4.086
 1719HOH      O 5361   3.267   1.581   0.928
 1719HOH     H1 5362   3.196   1.547   0.983
 1719HOH     H2 5363   3.254   1.540   0.843
 1720HOH      O 5364   1.644   0.518   3.676
 1720HOH     H1 5365   1.672   0.434   3.639
 1720HOH     H2 5366   1.637   0.502   3.770
 1721HOH      O 5367   0.988   0.322   3.800
 1721HOH     H1 5368   1.040   0.335   3.879
 1721HOH     H2 5369   1.022   0.385   3.737
 1722HOH      O 5370   3.920   1.602   2.344
 1722HOH     H1 5371   3.964   1.635   2.422
 1722HOH     H2 5372   3.829   1.588   2.371
 1723HOH      O 5373   0.364   2.195   0.652
 1723HOH     H1 5374   0.268   2.189   0.646
 1723HOH     H2 5375   0.384   2.165   0.741
 1724HOH      O 5376   1.229   1.118   0.321
 1724HOH     H1 5377   1.201   1.068   0.398
 1724HOH     H2 5378   1.159   1.106   0.257
 1725HOH      O 5379   2.068   0.403   1.811
 1725HOH     H1 5380   2.129   0.451   1.755
 1725HOH     H2 5381   1.985   0.450   1.802
 1726HOH      O 5382   1.855   2.314   1.259
 1726HOH     H1 5383   1.926   2.353   1.208
 1726HOH     H2 5384   1.795   2.279   1.193
 1727HOH      O 5385   0.794   1.111   1.611
 1727HOH     H1 5386   0.868   1.079   1.559
 1727HOH     H2 5387   0.720   1.105   1.552
 1728HOH      O 5388   0.288   0.993   3.668
 1728HOH     H1 5389   0.329   0.968   3.750
 1728HOH     H2 5390   0.352   1.051   3.626
 1729HOH      O 5391   0.257   2.172   2.921
 1729HOH     H1 5392   0.257   2.262   2.888
 1729HOH     H2 5393   0.247   2.118   2.843
 1730HOH      O 5394   1.736   1.224   2.569
 1730HOH     H1 5395   1.787   1.142   2.573
 1730HOH     H2 5396   1.687   1.226   2.651
 1731HOH      O 5397   2.811   1.889   1.117
 1731HOH     H1 5398   2.828   1.872   1.210
 1731HOH     H2 5399   2.893   1.865   1.073
 1732HOH      O 5400   1.953   1.734   2.841
 1732HOH     H1 5401   1.958   1.665   2.774
 1732HOH     H2 5402   2.008   1.804   2.807
 1733HOH      O 5403   1.516   1.875   3.880
 1733HOH     H1 5404   1.476   1.803   3.831
 1733HOH     H2 5405   1.565   1.832   3.950
 1734HOH      O 5406   0.006   3.763   0.712
 1734HOH     H1 5407  -0.030   3.840   0.668
 1734HOH     H2 5408   0.071   3.728   0.651
 1735HOH      O 5409   1.132   1.672   0.798
 1735HOH     H1 5410   1.114   1.724   0.877
 1735HOH     H2 5411   1.221   1.638   0.813
 1736HOH      O 5412   0.118   1.225   1.691
 1736HOH     H1 5413   0.052   1.274   1.740
 1736HOH     H2 5414   0.114   1.262   1.603
 1737HOH      O 5415   0.891   1.525   0.821
 1737HOH     H1 5416   0.818   1.580   0.793
 1737HOH     H2 5417   0.966   1.584   0.826
 1738HOH      O 5418   1.507   3.935   3.911
 1738HOH     H1 5419   1.477   3.974   3.993
 1738HOH     H2 5420   1.429   3.935   3.855
 1739HOH      O 5421   1.817   1.735   3.207
 1739HOH     H1 5422   1.736   1.741   3.158
 1739HOH     H2 5423   1.818   1.813   3.262
 1740HOH      O 5424   2.957   1.389   2.998
 1740HOH     H1 5425   2.892   1.352   2.938
 1740HOH     H2 5426   3.011   1.315   3.025
 1741HOH      O 5427   3.156   0.114   1.019
 1741HOH     H1 5428   3.152   0.078   0.931
 1741HOH     H2 5429   3.132   0.206   1.008
 1742HOH      O 5430   0.430   0.961   2.617
 1742HOH     H1 5431   0.515   0.918   2.626
 1742HOH     H2 5432   0.443   1.048   2.654
 1743HOH      O 5433   3.909   3.337   3.591
 1743HOH     H1 5434   3.944   3.396   3.524
 1743HOH     H2 5435   3.960   3.356   3.669
 1744HOH      O 5436   3.650   1.880   0.628
 1744HOH     H1 5437   3.667   1.926   0.547
 1744HOH     H2 5438   3.735   1.846   0.655
 1745HOH      O 5439   3.141   0.666   2.961
 1745HOH     H1 5440   3.170   0.578   2.985
 1745HOH     H2 5441   3.117   0.658   2.869
 1746HOH      O 5442   1.225   1.690   3.345
 1746HOH     H1 5443   1.290   1.620   3.341
 1746HOH     H2 5444   1.141   1.644   3.342
 1747HOH      O 5445   2.278   0.446   1.244
 1747HOH     H1 5446   2.217   0.387   1.288
 1747HOH     H2 5447   2.365   0.413   1.267
 1748HOH      O 5448   0.906   0.539   0.477
 1748HOH     H1 5449   0.923   0.446   0.491
 1748HOH     H2 5450   0.856   0.543   0.395
 1749HOH      O 5451   2.462   1.725   2.510
 1749HOH     H1 5452   2.515   1.798   2.476
 1749HOH     H2 5453   2.457   1.663   2.437
 1750HOH      O 5454   0.207   3.006   3.266
 1750HOH     H1 5455   0.146   3.080   3.275
 1750HOH     H2 5456   0.232   2.985   3.356
 1751HOH      O 5457   0.143   0.252   1.099
 1751HOH     H1 5458   0.175   0.330   1.054
 1751HOH     H2 5459   0.158   0.270   1.191
 1752HOH      O 5460   0.851   2.770   2.248
 1752HOH     H1 5461   0.785   2.797   2.184
 1752HOH     H2 5462   0.915   2.720   2.197
 1753HOH      O 5463   3.497   0.840   3.543
 1753HOH     H1 5464   3.566   0.780   3.516
 1753HOH     H2 5465   3.437   0.786   3.595
 1754HOH      O 5466   3.096   0.367   0.583
 1754HOH     H1 5467   3.044   0.445   0.602
 1754HOH     H2 5468   3.063   0.301   0.643
 1755HOH      O 5469   0.515   1.283   1.513
 1755HOH     H1 5470   0.447   1.216   1.526
 1755HOH     H2 5471   0.469   1.357   1.475
 1756HOH      O 5472   3.453   1.527   1.584
 1756HOH     H1 5473   3.483   1.520   1.675
 1756HOH     H2 5474   3.389   1.598   1.586
 1757HOH      O 5475   1.919   2.523   4.015
 1757HOH     H1 5476   1.963   2.593   4.064
 1757HOH     H2 5477   1.947   2.537   3.924
 1758HOH      O 5478   0.894   3.822   1.445
 1758HOH     H1 5479   0.965   3.767   1.477
 1758HOH     H2 5480   0.888   3.894   1.509
 1759HOH      O 5481   2.060   1.746   3.425
 1759HOH     H1 5482   2.000   1.782   3.489
 1759HOH     H2 5483   2.089   1.821   3.374
 1760HOH      O 5484   1.387   0.835   0.373
 1760HOH     H1 5485   1.340   0.803   0.296
 1760HOH     H2 5486   1.324   0.828   0.444
 1761HOH      O 5487   3.104   0.821   0.712
 1761HOH     H1 5488   3.148   0.897   0.673
 1761HOH     H2 5489   3.159   0.797   0.787
 1762HOH      O 5490   0.645   3.711   3.671
 1762HOH     H1 5491   0.550   3.702   3.685
 1762HOH     H2 5492   0.664   3.647   3.603
 1763HOH      O 5493   0.146   1.287   0.310
 1763HOH     H1 5494   0.111   1.264   0.224
 1763HOH     H2 5495   0.238   1.261   0.307
 1764HOH      O 5496   0.098   2.353   4.046
 1764HOH     H1 5497   0.015   2.306   4.035
 1764HOH     H2 5498   0.141   2.347   3.961
 1765HOH      O 5499   0.822   1.960   0.177
 1765HOH     H1 5500   0.899   1.927   0.130
 1765HOH     H2 5501   0.791   2.033   0.124
 1766HOH      O 5502   0.859   0.115   0.956
 1766HOH     H1 5503   0.912   0.189   0.987
 1766HOH     H2 5504   0.872   0.047   1.022
 1767HOH      O 5505   1.664   2.134   3.520
 1767HOH     H1 5506   1.676   2.119   3.613
 1767HOH     H2 5507   1.572   2.113   3.504
 1768HOH      O 5508   2.636   3.544   1.447
 1768HOH     H1 5509   2.595   3.610   1.503
 1768HOH     H2 5510   2.700   3.501   1.504
 1769HOH      O 5511   1.237   2.302   3.751
 1769HOH     H1 5512   1.221   2.261   3.666
 1769HOH     H2 5513   1.158   2.285   3.802
 1770HOH      O 5514   1.000   2.877   3.051
 1770HOH     H1 5515   0.906   2.868   3.035
 1770HOH     H2 5516   1.029   2.788   3.070
 1771HOH      O 5517   0.672   0.152   3.482
 1771HOH     H1 5518   0.611   0.186   3.548
 1771HOH     H2 5519   0.754   0.140   3.529
 1772HOH      O 5520   1.793   1.806   3.591
 1772HOH     H1 5521   1.706   1.818   3.629
 1772HOH     H2 5522   1.834   1.740   3.647
 1773HOH      O 5523   3.140   1.083   3.113
 1773HOH     H1 5524   3.079   1.016   3.083
 1773HOH     H2 5525   3.214   1.078   3.052
 1774HOH      O 5526   3.137   1.111   3.399
 1774HOH     H1 5527   3.207   1.052   3.428
 1774HOH     H2 5528   3.138   1.104   3.304
 1775HOH      O 5529   4.006   2.707   0.384
 1775HOH     H1 5530   4.053   2.627   0.359
 1775HOH     H2 5531   3.916   2.677   0.400
 1776HOH      O 5532   0.370   3.407   3.779
 1776HOH     H1 5533   0.434   3.423   3.848
 1776HOH     H2 5534   0.286   3.430   3.818
 1777HOH      O 5535   2.491   3.859   1.121
 1777HOH     H1 5536   2.513   3.859   1.215
 1777HOH     H2 5537   2.464   3.769   1.104
 1778HOH      O 5538   1.797   1.680   1.488
 1778HOH     H1 5539   1.858   1.608   1.472
 1778HOH     H2 5540   1.801   1.733   1.408
 1779HOH      O 5541   1.662   3.803   3.478
 1779HOH     H1 5542   1.640   3.894   3.496
 1779HOH     H2 5543   1.717   3.807   3.400
 1780HOH      O 5544   2.081   3.586   3.969
 1780HOH     H1 5545   1.990   3.584   3.937
 1780HOH     H2 5546   2.076   3.556   4.059
 1781HOH      O 5547   3.537   3.614   3.601
 1781HOH     H1 5548   3.605   3.649   3.658
 1781HOH     H2 5549   3.476   3.570   3.660
 1782HOH      O 5550   1.356   0.671   1.508
 1782HOH     H1 5551   1.273   0.718   1.520
 1782HOH     H2 5552   1.383   0.694   1.419
 1783HOH      O 5553   1.161   1.991   2.420
 1783HOH     H1 5554   1.163   2.027   2.332
 1783HOH     H2 5555   1.084   2.031   2.460
 1784HOH      O 5556   0.965   3.332   3.305
 1784HOH     H1 5557   1.021   3.377   3.241
 1784HOH     H2 5558   0.876   3.349   3.275
 1785HOH      O 5559   3.088   0.630   2.695
 1785HOH     H1 5560   3.134   0.669   2.620
 1785HOH     H2 5561   3.054   0.548   2.661
 1786HOH      O 5562   2.278   0.746   2.343
 1786HOH     H1 5563   2.369   0.769   2.364
 1786HOH     H2 5564   2.239   0.722   2.427
 1787HOH      O 5565   3.312   0.774   3.998
 1787HOH     H1 5566   3.235   0.718   3.984
 1787HOH     H2 5567   3.308   0.796   4.092
 1788HOH      O 5568   0.419   1.220   0.335
 1788HOH     H1 5569   0.503   1.223   0.288
 1788HOH     H2 5570   0.441   1.247   0.424
 1789HOH      O 5571   3.872   0.797   3.403
 1789HOH     H1 5572   3.851   0.880   3.447
 1789HOH     H2 5573   3.945   0.761   3.454
 1790HOH      O 5574   0.094   2.281   2.548
 1790HOH     H1 5575   0.034   2.246   2.614
 1790HOH     H2 5576   0.102   2.374   2.571
 1791HOH      O 5577   3.741   2.238   1.958
 1791HOH     H1 5578   3.806   2.191   2.011
 1791HOH     H2 5579   3.658   2.195   1.977
 1792HOH      O 5580   1.262   1.751   1.350
 1792HOH     H1 5581   1.220   1.739   1.435
 1792HOH     H2 5582   1.319   1.827   1.362
 1793HOH      O 5583   3.508   2.360   1.082
 1793HOH     H1 5584   3.525   2.420   1.155
 1793HOH     H2 5585   3.510   2.416   1.004
 1794HOH      O 5586  -0.012   0.899   1.904
 1794HOH     H1 5587  -0.040   0.920   1.815
 1794HOH     H2 5588   0.063   0.840   1.893
 1795HOH      O 5589   3.828   1.136   0.879
 1795HOH     H1 5590   3.876   1.169   0.955
 1795HOH     H2 5591   3.830   1.208   0.817
 1796HOH      O 5592   2.061   0.017   2.316
 1796HOH     H1 5593   2.066  -0.058   2.257
 1796HOH     H2 5594   2.114   0.084   2.274
 1797HOH      O 5595   4.015   0.176   0.733
 1797HOH     H1 5596   4.067   0.256   0.735
 1797HOH     H2 5597   3.929   0.203   0.767
 1798HOH      O 5598   3.636   3.113   3.124
 1798HOH     H1 5599   3.632   3.204   3.154
 1798HOH     H2 5600   3.586   3.112   3.043
 1799HOH      O 5601   1.214   1.464   3.652
 1799HOH     H1 5602   1.238   1.406   3.724
 1799HOH     H2 5603   1.256   1.425   3.575
 1800HOH      O 5604   2.236   0.222   2.256
 1800HOH     H1 5605   2.244   0.317   2.246
 1800HOH     H2 5606   2.326   0.190   2.247
 1801HOH      O 5607   0.481   2.539   2.409
 1801HOH     H1 5608   0.562   2.490   2.397
 1801HOH     H2 5609   0.434   2.492   2.478
 1802HOH      O 5610   0.873   1.921   2.235
 1802HOH     H1 5611   0.911   2.008   2.251
 1802HOH     H2 5612   0.780   1.938   2.219
 1803HOH      O 5613   2.825   2.042   1.748
 1803HOH     H1 5614   2.851   1.992   1.826
 1803HOH     H2 5615   2.886   2.115   1.745
 1804HOH      O 5616   0.684   1.332   1.316
 1804HOH     H1 5617   0.770   1.360   1.349
 1804HOH     H2 5618   0.629   1.328   1.395
 1805HOH      O 5619   1.736   2.790   3.684
 1805HOH     H1 5620   1.821   2.832   3.669
 1805HOH     H2 5621   1.674   2.842   3.633
 1806HOH      O 5622   2.193   0.490   2.832
 1806HOH     H1 5623   2.135   0.435   2.779
 1806HOH     H2 5624   2.166   0.473   2.922
 1807HOH      O 5625   0.500   1.911   0.551
 1807HOH     H1 5626   0.563   1.842   0.573
 1807HOH     H2 5627   0.551   1.977   0.504
 1808HOH      O 5628   1.166   1.577   1.633
 1808HOH     H1 5629   1.115   1.603   1.711
 1808HOH     H2 5630   1.257   1.586   1.660
 1809HOH      O 5631   0.523   0.032   2.882
 1809HOH     H1 5632   0.585  -0.039   2.863
 1809HOH     H2 5633   0.578   0.108   2.898
 1810HOH      O 5634   2.881   0.154   3.745
 1810HOH     H1 5635   2.860   0.156   3.652
 1810HOH     H2 5636   2.967   0.111   3.748
 1811HOH      O 5637   0.154   0.213   3.244
 1811HOH     H1 5638   0.094   0.175   3.309
 1811HOH     H2 5639   0.212   0.141   3.219
 1812HOH      O 5640   3.368   1.194   1.383
 1812HOH     H1 5641   3.442   1.252   1.397
 1812HOH     H2 5642   3.343   1.209   1.292
 1813HOH      O 5643   2.557   0.272   2.741
 1813HOH     H1 5644   2.513   0.347   2.701
 1813HOH     H2 5645   2.574   0.212   2.669
 1814HOH      O 5646   0.679   0.426   3.693
 1814HOH     H1 5647   0.663   0.335   3.718
 1814HOH     H2 5648   0.732   0.461   3.764
 1815HOH      O 5649   2.698   1.223   1.298
 1815HOH     H1 5650   2.713   1.140   1.343
 1815HOH     H2 5651   2.604   1.224   1.281
 1816HOH      O 5652   3.972   2.014   3.095
 1816HOH     H1 5653   3.978   1.945   3.029
 1816HOH     H2 5654   4.051   2.002   3.149
 1817HOH      O 5655   3.616   0.166   1.173
 1817HOH     H1 5656   3.529   0.134   1.200
 1817HOH     H2 5657   3.674   0.091   1.186
 1818HOH      O 5658   3.329   0.727   3.209
 1818HOH     H1 5659   3.254   0.752   3.262
 1818HOH     H2 5660   3.294   0.721   3.120
 1819HOH      O 5661   0.700   1.692   2.339
 1819HOH     H1 5662   0.759   1.670   2.411
 1819HOH     H2 5663   0.694   1.612   2.287
 1820HOH      O 5664   3.754   1.963   2.504
 1820HOH     H1 5665   3.805   1.931   2.578
 1820HOH     H2 5666   3.819   1.996   2.442
 1821HOH      O 5667   2.050   3.049   3.378
 1821HOH     H1 5668   2.094   3.006   3.305
 1821HOH     H2 5669   2.018   3.132   3.341
 1822HOH      O 5670   3.505   2.080   2.037
 1822HOH     H1 5671   3.473   2.155   1.988
 1822HOH     H2 5672   3.433   2.056   2.094
 1823HOH      O 5673   2.441   3.853   0.391
 1823HOH     H1 5674   2.526   3.822   0.360
 1823HOH     H2 5675   2.458   3.939   0.428
 1824HOH      O 5676   0.345   1.157   4.041
 1824HOH     H1 5677   0.350   1.072   3.998
 1824HOH     H2 5678   0.378   1.219   3.975
 1825HOH      O 5679   3.223   3.651   3.806
 1825HOH     H1 5680   3.197   3.719   3.744
 1825HOH     H2 5681   3.145   3.595   3.814
 1826HOH      O 5682   3.928   1.165   2.008
 1826HOH     H1 5683   3.927   1.072   1.987
 1826HOH     H2 5684   4.007   1.178   2.061
 1827HOH      O 5685   0.163   1.916   0.007
 1827HOH     H1 5686   0.073   1.950   0.004
 1827HOH     H2 5687   0.218   1.993   0.013
 1828HOH      O 5688   2.461   0.090   2.252
 1828HOH     H1 5689   2.414   0.006   2.253
 1828HOH     H2 5690   2.513   0.089   2.332
 1829HOH      O 5691   3.317   0.013   3.686
 1829HOH     H1 5692   3.293   0.105   3.675
 1829HOH     H2 5693   3.286  -0.030   3.606
 1830HOH      O 5694   3.880   2.383   3.339
 1830HOH     H1 5695   3.847   2.344   3.258
 1830HOH     H2 5696   3.802   2.395   3.393
 1831HOH      O 5697   2.158   1.778   1.647
 1831HOH     H1 5698   2.191   1.834   1.577
 1831HOH     H2 5699   2.101   1.715   1.603
 1832HOH      O 5700   0.662   2.120   3.972
 1832HOH     H1 5701   0.604   2.171   4.029
 1832HOH     H2 5702   0.603   2.061   3.925
 1833HOH      O 5703   3.474   2.218   0.210
 1833HOH     H1 5704   3.467   2.304   0.252
 1833HOH     H2 5705   3.409   2.220   0.141
 1834HOH      O 5706   3.554   0.360   2.670
 1834HOH     H1 5707   3.600   0.444   2.683
 1834HOH     H2 5708   3.614   0.295   2.706
 1835HOH      O 5709   2.686   3.766   0.359
 1835HOH     H1 5710   2.736   3.844   0.334
 1835HOH     H2 5711   2.750   3.708   0.399
 1836HOH      O 5712   2.394   0.191   2.957
 1836HOH     H1 5713   2.460   0.212   2.891
 1836HOH     H2 5714   2.411   0.252   3.029
 1837HOH      O 5715   3.621   2.535   2.520
 1837HOH     H1 5716   3.563   2.459   2.516
 1837HOH     H2 5717   3.687   2.512   2.586
 1838HOH      O 5718   0.130   1.599   1.868
 1838HOH     H1 5719   0.068   1.545   1.917
 1838HOH     H2 5720   0.142   1.677   1.923
 1839HOH      O 5721   1.173   2.216   3.494
 1839HOH     H1 5722   1.083   2.185   3.503
 1839HOH     H2 5723   1.211   2.161   3.426
 1840HOH      O 5724   1.099   1.956   3.961
 1840HOH     H1 5725   1.167   2.015   3.992
 1840HOH     H2 5726   1.134   1.868   3.978
 1841HOH      O 5727   3.094   3.519   1.405
 1841HOH     H1 5728   3.033   3.478   1.344
 1841HOH     H2 5729   3.040   3.544   1.479
 1842HOH      O 5730   0.272   3.764   2.638
 1842HOH     H1 5731   0.364   3.756   2.664
 1842HOH     H2 5732   0.259   3.857   2.622
 1843HOH      O 5733   3.694   0.426   2.219
 1843HOH     H1 5734   3.638   0.455   2.291
 1843HOH     H2 5735   3.654   0.466   2.141
 1844HOH      O 5736   0.868   1.541   0.437
 1844HOH     H1 5737   0.893   1.463   0.388
 1844HOH     H2 5738   0.840   1.603   0.370
 1845HOH      O 5739   0.024   0.924   3.863
 1845HOH     H1 5740   0.069   1.009   3.861
 1845HOH     H2 5741   0.061   0.879   3.939
 1846HOH      O 5742   3.908   3.818   1.054
 1846HOH     H1 5743   3.999   3.789   1.043
 1846HOH     H2 5744   3.914   3.913   1.064
 1847HOH      O 5745   3.267   1.599   1.953
 1847HOH     H1 5746   3.331   1.638   1.894
 1847HOH     H2 5747   3.231   1.524   1.905
 1848HOH      O 5748   3.010   1.193   1.923
 1848HOH     H1 5749   3.023   1.128   1.993
 1848HOH     H2 5750   2.957   1.261   1.964
 1849HOH      O 5751   1.466   2.946   3.145
 1849HOH     H1 5752   1.542   2.989   3.185
 1849HOH     H2 5753   1.446   2.999   3.069
 1850HOH      O 5754   2.708   0.301   2.328
 1850HOH     H1 5755   2.661   0.248   2.391
 1850HOH     H2 5756   2.651   0.376   2.312
 1851HOH      O 5757   1.499   1.030   2.837
 1851HOH     H1 5758   1.540   1.112   2.865
 1851HOH     H2 5759   1.442   1.005   2.910
 1852HOH      O 5760   0.728   1.477   2.698
 1852HOH     H1 5761   0.732   1.448   2.789
 1852HOH     H2 5762   0.777   1.559   2.697
 1853HOH      O 5763   0.367   0.910   1.022
 1853HOH     H1 5764   0.330   0.919   0.934
 1853HOH     H2 5765   0.393   0.999   1.047
 1854HOH      O 5766   0.833   2.034   1.350
 1854HOH     H1 5767   0.819   1.946   1.314
 1854HOH     H2 5768   0.881   2.080   1.282
 1855HOH      O 5769   1.895   1.518   2.250
 1855HOH     H1 5770   1.883   1.517   2.154
 1855HOH     H2 5771   1.924   1.430   2.271
 1856HOH      O 5772   2.822   1.598   1.279
 1856HOH     H1 5773   2.765   1.673   1.297
 1856HOH     H2 5774   2.824   1.592   1.183
 1857HOH      O 5775   1.165   3.099   0.206
 1857HOH     H1 5776   1.228   3.078   0.275
 1857HOH     H2 5777   1.184   3.190   0.182
 1858HOH      O 5778   1.351   1.502   1.236
 1858HOH     H1 5779   1.427   1.454   1.268
 1858HOH     H2 5780   1.336   1.569   1.303
 1859HOH      O 5781   2.589   3.294   0.637
 1859HOH     H1 5782   2.669   3.299   0.689
 1859HOH     H2 5783   2.545   3.215   0.667
 1860HOH      O 5784   1.103   0.563   0.943
 1860HOH     H1 5785   1.144   0.592   1.024
 1860HOH     H2 5786   1.051   0.638   0.914
 1861HOH      O 5787   0.760   0.022   3.268
 1861HOH     H1 5788   0.698   0.057   3.333
 1861HOH     H2 5789   0.714  -0.052   3.228
 1862HOH      O 5790   1.166   2.027   1.600
 1862HOH     H1 5791   1.176   2.112   1.643
 1862HOH     H2 5792   1.206   1.964   1.661
 1863HOH      O 5793   3.389   4.005   1.793
 1863HOH     H1 5794   3.344   3.922   1.804
 1863HOH     H2 5795   3.372   4.030   1.702
 1864HOH      O 5796   2.953   1.029   1.712
 1864HOH     H1 5797   2.992   1.098   1.767
 1864HOH     H2 5798   2.989   0.948   1.747
 1865HOH      O 5799   2.051   3.688   0.678
 1865HOH     H1 5800   2.038   3.750   0.750
 1865HOH     H2 5801   2.146   3.679   0.671
 1866HOH      O 5802   2.888   3.832   0.166
 1866HOH     H1 5803   2.939   3.753   0.184
 1866HOH     H2 5804   2.924   3.865   0.083
 1867HOH      O 5805   0.986   0.049   2.327
 1867HOH     H1 5806   0.896   0.033   2.299
 1867HOH     H2 5807   0.993   0.004   2.412
 1868HOH      O 5808   0.764   3.168   2.306
 1868HOH     H1 5809   0.713   3.154   2.226
 1868HOH     H2 5810   0.805   3.253   2.293
 1869HOH      O 5811   2.888   3.687   1.489
 1869HOH     H1 5812   2.805   3.661   1.450
 1869HOH     H2 5813   2.914   3.766   1.441
 1870HOH      O 5814   0.318   0.108   3.550
 1870HOH     H1 5815   0.316   0.082   3.458
 1870HOH     H2 5816   0.365   0.191   3.550
 1871HOH      O 5817   0.285   2.100   1.515
 1871HOH     H1 5818   0.376   2.090   1.487
 1871HOH     H2 5819   0.288   2.163   1.586
 1872HOH      O 5820   2.847   1.174   2.243
 1872HOH     H1 5821   2.938   1.177   2.273
 1872HOH     H2 5822   2.838   1.252   2.187
 1873HOH      O 5823   2.593   1.710   2.054
 1873HOH     H1 5824   2.611   1.643   1.988
 1873HOH     H2 5825   2.530   1.769   2.012
 1874HOH      O 5826   1.750   1.674   1.944
 1874HOH     H1 5827   1.753   1.762   1.979
 1874HOH     H2 5828   1.676   1.674   1.883
 1875HOH      O 5829   1.426   1.612   1.688
 1875HOH     H1 5830   1.458   1.523   1.675
 1875HOH     H2 5831   1.503   1.667   1.679
 1876HOH      O 5832   3.716   2.973   0.216
 1876HOH     H1 5833   3.680   2.900   0.166
 1876HOH     H2 5834   3.678   3.051   0.176
 1877HOH      O 5835   0.099   2.822   2.521
 1877HOH     H1 5836   0.052   2.743   2.546
 1877HOH     H2 5837   0.152   2.844   2.597
 1878HOH      O 5838   3.888   1.970   0.976
 1878HOH     H1 5839   3.979   1.996   0.963
 1878HOH     H2 5840   3.836   2.044   0.946
 1879HOH      O 5841   1.087   3.886   0.526
 1879HOH     H1 5842   1.168   3.936   0.527
 1879HOH     H2 5843   1.030   3.930   0.588
 1880HOH      O 5844   3.752   3.834   0.055
 1880HOH     H1 5845   3.797   3.888   0.121
 1880HOH     H2 5846   3.668   3.878   0.040
 1881HOH      O 5847   0.271   0.610   3.952
 1881HOH     H1 5848   0.296   0.541   4.014
 1881HOH     H2 5849   0.177   0.621   3.965
 1882HOH      O 5850   2.324   1.365   3.029
 1882HOH     H1 5851   2.318   1.285   3.081
 1882HOH     H2 5852   2.392   1.417   3.072
 1883HOH      O 5853   1.978   3.848   2.145
 1883HOH     H1 5854   2.034   3.901   2.089
 1883HOH     H2 5855   1.981   3.760   2.107
 1884HOH      O 5856   1.722   0.180   1.695
 1884HOH     H1 5857   1.764   0.260   1.662
 1884HOH     H2 5858   1.794   0.121   1.715
 1885HOH      O 5859   0.214   2.849   0.217
 1885HOH     H1 5860   0.308   2.842   0.203
 1885HOH     H2 5861   0.198   2.800   0.298
 1886HOH      O 5862   1.619   0.023   3.571
 1886HOH     H1 5863   1.709   0.024   3.606
 1886HOH     H2 5864   1.603   0.114   3.546
 1887HOH      O 5865   3.554   0.216   1.828
 1887HOH     H1 5866   3.602   0.292   1.793
 1887HOH     H2 5867   3.469   0.219   1.784
 1888HOH      O 5868   3.854   0.496   0.885
 1888HOH     H1 5869   3.820   0.412   0.916
 1888HOH     H2 5870   3.833   0.558   0.955
 1889HOH      O 5871   1.679   1.749   1.143
 1889HOH     H1 5872   1.648   1.838   1.123
 1889HOH     H2 5873   1.613   1.692   1.104
 1890HOH      O 5874   1.996   1.817   0.135
 1890HOH     H1 5875   2.069   1.820   0.073
 1890HOH     H2 5876   1.997   1.728   0.169
 1891HOH      O 5877   2.709   3.708   0.988
 1891HOH     H1 5878   2.742   3.619   0.991
 1891HOH     H2 5879   2.614   3.699   0.993
 1892HOH      O 5880   0.755   0.803   4.003
 1892HOH     H1 5881   0.787   0.881   4.048
 1892HOH     H2 5882   0.726   0.834   3.917
 1893HOH      O 5883   2.850   1.431   0.691
 1893HOH     H1 5884   2.796   1.491   0.640
 1893HOH     H2 5885   2.796   1.352   0.700
 1894HOH      O 5886   3.575   2.316   3.700
 1894HOH     H1 5887   3.617   2.277   3.777
 1894HOH     H2 5888   3.487   2.338   3.729
 1895HOH      O 5889   1.402   1.064   0.731
 1895HOH     H1 5890   1.365   1.152   0.733
 1895HOH     H2 5891   1.348   1.016   0.668
 1896HOH      O 5892   3.797   1.517   1.084
 1896HOH     H1 5893   3.752   1.500   1.001
 1896HOH     H2 5894   3.729   1.552   1.141
 1897HOH      O 5895   2.410   0.256   3.803
 1897HOH     H1 5896   2.484   0.210   3.764
 1897HOH     H2 5897   2.333   0.207   3.773
 1898HOH      O 5898   2.253   1.218   2.062
 1898HOH     H1 5899   2.159   1.205   2.072
 1898HOH     H2 5900   2.272   1.182   1.975
 1899HOH      O 5901   1.976   1.417   2.914
 1899HOH     H1 5902   1.988   1.322   2.908
 1899HOH     H2 5903   1.980   1.447   2.823
 1900HOH      O 5904   3.939   1.365   3.329
 1900HOH     H1 5905   3.934   1.457   3.353
 1900HOH     H2 5906   4.017   1.358   3.275
 1901HOH      O 5907   1.706   3.063   0.288
 1901HOH     H1 5908   1.763   3.118   0.234
 1901HOH     H2 5909   1.761   2.988   0.311
 1902HOH      O 5910   2.583   0.060   3.326
 1902HOH     H1 5911   2.570   0.112   3.246
 1902HOH     H2 5912   2.563   0.121   3.397
 1903HOH      O 5913   1.180   1.942   3.440
 1903HOH     H1 5914   1.214   1.920   3.527
 1903HOH     H2 5915   1.192   1.862   3.389
 1904HOH      O 5916   1.380   1.557   2.001
 1904HOH     H1 5917   1.434   1.567   2.080
 1904HOH     H2 5918   1.309   1.620   2.013
 1905HOH      O 5919   3.888   0.647   2.958
 1905HOH     H1 5920   3.920   0.626   3.046
 1905HOH     H2 5921   3.896   0.742   2.952
 1906HOH      O 5922   2.919   2.967   2.574
 1906HOH     H1 5923   2.869   2.886   2.587
 1906HOH     H2 5924   3.004   2.938   2.541
 1907HOH      O 5925   1.941   3.761   3.690
 1907HOH     H1 5926   1.896   3.807   3.762
 1907HOH     H2 5927   1.890   3.682   3.676
 1908HOH      O 5928   1.130   2.887   3.615
 1908HOH     H1 5929   1.078   2.923   3.543
 1908HOH     H2 5930   1.101   2.935   3.692
 1909HOH      O 5931   1.897   1.993   1.235
 1909HOH     H1 5932   1.808   2.028   1.229
 1909HOH     H2 5933   1.914   1.958   1.147
 1910HOH      O 5934   1.283   3.122   2.405
 1910HOH     H1 5935   1.268   3.207   2.446
 1910HOH     H2 5936   1.225   3.120   2.329
 1911HOH      O 5937   2.757   0.287   0.682
 1911HOH     H1 5938   2.770   0.311   0.774
 1911HOH     H2 5939   2.753   0.191   0.682
 1912HOH      O 5940   3.586   0.984   1.457
 1912HOH     H1 5941   3.650   1.044   1.495
 1912HOH     H2 5942   3.581   1.011   1.365
 1913HOH      O 5943   1.940   0.232   3.602
 1913HOH     H1 5944   2.029   0.204   3.626
 1913HOH     H2 5945   1.936   0.323   3.632
 1914HOH      O 5946   3.703   3.378   2.636
 1914HOH     H1 5947   3.674   3.429   2.711
 1914HOH     H2 5948   3.771   3.319   2.670
 1915HOH      O 5949   0.057   0.750   2.600
 1915HOH     H1 5950   0.093   0.661   2.608
 1915HOH     H2 5951   0.078   0.777   2.511
 1916HOH      O 5952   2.821   2.177   1.097
 1916HOH     H1 5953   2.801   2.086   1.116
 1916HOH     H2 5954   2.916   2.179   1.085
 1917HOH      O 5955   3.930   0.599   3.772
 1917HOH     H1 5956   3.928   0.509   3.739
 1917HOH     H2 5957   3.964   0.591   3.861
 1918HOH      O 5958   0.332   0.424   2.380
 1918HOH     H1 5959   0.260   0.422   2.442
 1918HOH     H2 5960   0.400   0.477   2.424
 1919HOH      O 5961   1.899   2.387   1.631
 1919HOH     H1 5962   1.853   2.411   1.712
 1919HOH     H2 5963   1.970   2.451   1.624
 1920HOH      O 5964   3.099   1.289   3.671
 1920HOH     H1 5965   3.151   1.273   3.592
 1920HOH     H2 5966   3.035   1.218   3.672
 1921HOH      O 5967   2.308   3.218   3.695
 1921HOH     H1 5968   2.231   3.170   3.729
 1921HOH     H2 5969   2.317   3.293   3.754
 1922HOH      O 5970  -0.010   3.993   0.553
 1922HOH     H1 5971   0.018   4.007   0.463
 1922HOH     H2 5972   0.014   4.074   0.599
 1923HOH      O 5973   2.189   2.147   1.604
 1923HOH     H1 5974   2.187   2.217   1.670
 1923HOH     H2 5975   2.097   2.130   1.584
 1924HOH      O 5976   3.027   0.733   3.747
 1924HOH     H1 5977   2.941   0.696   3.727
 1924HOH     H2 5978   3.031   0.736   3.843
 1925HOH      O 5979   0.366   1.724   3.997
 1925HOH     H1 5980   0.459   1.735   4.016
 1925HOH     H2 5981   0.325   1.803   4.033
 1926HOH      O 5982   4.022   2.375   1.593
 1926HOH     H1 5983   3.995   2.284   1.602
 1926HOH     H2 5984   3.972   2.408   1.518
 1927HOH      O 5985   1.391   3.821   1.657
 1927HOH     H1 5986   1.464   3.840   1.715
 1927HOH     H2 5987   1.347   3.747   1.698
 1928HOH      O 5988   3.056   2.522   1.436
 1928HOH     H1 5989   3.114   2.452   1.405
 1928HOH     H2 5990   3.052   2.510   1.531
 1929HOH      O 5991   3.783   1.629   1.825
 1929HOH     H1 5992   3.779   1.715   1.782
 1929HOH     H2 5993   3.693   1.596   1.820
 1930HOH      O 5994   2.147   3.796   2.616
 1930HOH     H1 5995   2.117   3.718   2.662
 1930HOH     H2 5996   2.230   3.819   2.658
 1931HOH      O 5997   2.230   1.981   3.812
 1931HOH     H1 5998   2.270   2.068   3.803
 1931HOH     H2 5999   2.189   1.964   3.728
 1932HOH      O 6000   1.218   1.311   1.585
 1932HOH     H1 6001   1.312   1.328   1.587
 1932HOH     H2 6002   1.178   1.398   1.584
 1933HOH      O 6003   3.345   2.139   1.009
 1933HOH     H1 6004   3.432   2.180   1.009
 1933HOH     H2 6005   3.353   2.065   1.068
 1934HOH      O 6006   1.163   3.591   3.528
 1934HOH     H1 6007   1.226   3.653   3.566
 1934HOH     H2 6008   1.195   3.505   3.556
 1935HOH      O 6009   3.460   2.451   0.341
 1935HOH     H1 6010   3.482   2.544   0.351
 1935HOH     H2 6011   3.454   2.418   0.431
 1936HOH      O 6012   1.222   1.655   2.337
 1936HOH     H1 6013   1.309   1.631   2.304
 1936HOH     H2 6014   1.239   1.691   2.424
 1937HOH      O 6015   2.152   3.582   2.806
 1937HOH     H1 6016   2.182   3.631   2.882
 1937HOH     H2 6017   2.226   3.526   2.782
 1938HOH      O 6018   3.145   1.972   3.398
 1938HOH     H1 6019   3.076   1.970   3.331
 1938HOH     H2 6020   3.097   1.982   3.480
 1939HOH      O 6021   3.302   3.171   0.341
 1939HOH     H1 6022   3.339   3.093   0.298
 1939HOH     H2 6023   3.283   3.142   0.430
 1940HOH      O 6024   3.019   0.289   1.274
 1940HOH     H1 6025   3.026   0.258   1.184
 1940HOH     H2 6026   3.019   0.210   1.328
 1941HOH      O 6027   4.051   0.650  -0.019
 1941HOH     H1 6028   3.991   0.716   0.016
 1941HOH     H2 6029   4.039   0.574   0.037
 1942HOH      O 6030   1.715   2.433   3.294
 1942HOH     H1 6031   1.800   2.476   3.287
 1942HOH     H2 6032   1.729   2.346   3.257
 1943HOH      O 6033   1.239   2.588   2.020
 1943HOH     H1 6034   1.272   2.584   2.109
 1943HOH     H2 6035   1.144   2.582   2.029
 1944HOH      O 6036   1.019   0.228   1.358
 1944HOH     H1 6037   1.027   0.241   1.264
 1944HOH     H2 6038   1.107   0.207   1.387
 1945HOH      O 6039   2.939   0.134   0.228
 1945HOH     H1 6040   2.894   0.083   0.295
 1945HOH     H2 6041   3.031   0.129   0.251
 1946HOH      O 6042   2.837   1.195   3.301
 1946HOH     H1 6043   2.895   1.146   3.359
 1946HOH     H2 6044   2.867   1.285   3.308
 1947HOH      O 6045   3.799   0.084   3.603
 1947HOH     H1 6046   3.722   0.043   3.642
 1947HOH     H2 6047   3.837   0.016   3.547
 1948HOH      O 6048   1.025   0.702   0.167
 1948HOH     H1 6049   0.968   0.779   0.177
 1948HOH     H2 6050   1.098   0.733   0.114
 1949HOH      O 6051   1.492   1.053   1.567
 1949HOH     H1 6052   1.543   0.976   1.594
 1949HOH     H2 6053   1.409   1.044   1.613
 1950HOH      O 6054   3.552   1.391   0.520
 1950HOH     H1 6055   3.467   1.393   0.476
 1950HOH     H2 6056   3.554   1.472   0.571
 1951HOH      O 6057   2.026   4.039   2.595
 1951HOH     H1 6058   2.066   3.952   2.598
 1951HOH     H2 6059   2.042   4.069   2.505
 1952HOH      O 6060   3.613   1.086   2.989
 1952HOH     H1 6061   3.608   1.134   3.071
 1952HOH     H2 6062   3.566   1.004   3.006
 1953HOH      O 6063   0.548   1.852   2.466
 1953HOH     H1 6064   0.612   1.795   2.424
 1953HOH     H2 6065   0.491   1.881   2.395
 1954HOH      O 6066   1.824   1.395   0.826
 1954HOH     H1 6067   1.803   1.470   0.770
 1954HOH     H2 6068   1.903   1.422   0.873
 1955HOH      O 6069   0.422   2.764   3.652
 1955HOH     H1 6070   0.508   2.799   3.627
 1955HOH     H2 6071   0.410   2.794   3.742
 1956HOH      O 6072   1.020   1.637   3.744
 1956HOH     H1 6073   1.052   1.722   3.714
 1956HOH     H2 6074   1.091   1.576   3.724
 1957HOH      O 6075   1.628   1.819   2.658
 1957HOH     H1 6076   1.564   1.838   2.590
 1957HOH     H2 6077   1.679   1.899   2.666
 1958HOH      O 6078   1.625   1.048   0.575
 1958HOH     H1 6079   1.540   1.063   0.616
 1958HOH     H2 6080   1.684   1.029   0.648
 1959HOH      O 6081   3.634   2.972   2.873
 1959HOH     H1 6082   3.566   2.983   2.807
 1959HOH     H2 6083   3.654   2.879   2.872
 1960HOH      O 6084   1.163   0.988   0.560
 1960HOH     H1 6085   1.148   0.905   0.516
 1960HOH     H2 6086   1.081   1.006   0.607
 1961HOH      O 6087   3.080   3.638   0.239
 1961HOH     H1 6088   3.136   3.563   0.221
 1961HOH     H2 6089   3.046   3.622   0.327
 1962HOH      O 6090   2.968   3.289   0.509
 1962HOH     H1 6091   2.895   3.350   0.507
 1962HOH     H2 6092   3.021   3.311   0.433
 1963HOH      O 6093   3.865   3.475   3.988
 1963HOH     H1 6094   3.925   3.403   4.005
 1963HOH     H2 6095   3.859   3.522   4.071
 1964HOH      O 6096   2.605   1.423   2.632
 1964HOH     H1 6097   2.592   1.512   2.663
 1964HOH     H2 6098   2.557   1.419   2.550
 1965HOH      O 6099   1.817   2.150   2.949
 1965HOH     H1 6100   1.779   2.140   3.036
 1965HOH     H2 6101   1.816   2.245   2.933
 1966HOH      O 6102   2.125   0.004   0.638
 1966HOH     H1 6103   2.184   0.073   0.610
 1966HOH     H2 6104   2.182  -0.072   0.652
 1967HOH      O 6105   3.779   3.267   0.833
 1967HOH     H1 6106   3.768   3.173   0.847
 1967HOH     H2 6107   3.868   3.277   0.801
 1968HOH      O 6108   3.805   2.228   3.140
 1968HOH     H1 6109   3.744   2.205   3.069
 1968HOH     H2 6110   3.885   2.178   3.119
 1969HOH      O 6111   2.155   1.285   0.253
 1969HOH     H1 6112   2.237   1.257   0.213
 1969HOH     H2 6113   2.163   1.259   0.344
 1970HOH      O 6114   0.270   0.926   0.492
 1970HOH     H1 6115   0.186   0.880   0.486
 1970HOH     H2 6116   0.305   0.921   0.403
 1971HOH      O 6117   3.517   3.337   3.458
 1971HOH     H1 6118   3.486   3.298   3.376
 1971HOH     H2 6119   3.443   3.387   3.490
 1972HOH      O 6120   1.049   0.399   3.000
 1972HOH     H1 6121   1.012   0.471   3.050
 1972HOH     H2 6122   1.013   0.320   3.042
 1973HOH      O 6123   1.801   3.269   2.998
 1973HOH     H1 6124   1.851   3.201   2.953
 1973HOH     H2 6125   1.847   3.351   2.977
 1974HOH      O 6126   1.087   1.205   3.334
 1974HOH     H1 6127   1.143   1.195   3.257
 1974HOH     H2 6128   1.054   1.295   3.329
 1975HOH      O 6129   1.274   1.099   1.296
 1975HOH     H1 6130   1.303   1.015   1.260
 1975HOH     H2 6131   1.297   1.094   1.388
 1976HOH      O 6132   0.683   3.536   1.974
 1976HOH     H1 6133   0.755   3.565   1.919
 1976HOH     H2 6134   0.605   3.575   1.934
 1977HOH      O 6135   0.779   3.133   3.528
 1977HOH     H1 6136   0.863   3.115   3.486
 1977HOH     H2 6137   0.716   3.133   3.455
 1978HOH      O 6138   2.701   3.079   1.699
 1978HOH     H1 6139   2.785   3.035   1.711
 1978HOH     H2 6140   2.683   3.118   1.784
 1979HOH      O 6141   0.860   3.448   0.167
 1979HOH     H1 6142   0.898   3.436   0.254
 1979HOH     H2 6143   0.781   3.500   0.183
 1980HOH      O 6144   1.376   2.313   0.476
 1980HOH     H1 6145   1.419   2.328   0.391
 1980HOH     H2 6146   1.309   2.382   0.481
 1981HOH      O 6147   0.096   2.874   0.789
 1981HOH     H1 6148   0.188   2.899   0.779
 1981HOH     H2 6149   0.061   2.939   0.850
 1982HOH      O 6150   2.888   1.969   1.440
 1982HOH     H1 6151   2.868   2.056   1.476
 1982HOH     H2 6152   2.821   1.912   1.477
 1983HOH      O 6153   3.754   0.722   2.450
 1983HOH     H1 6154   3.676   0.676   2.419
 1983HOH     H2 6155   3.823   0.657   2.447
 1984HOH      O 6156   0.562   1.400   2.478
 1984HOH     H1 6157   0.626   1.389   2.408
 1984HOH     H2 6158   0.614   1.415   2.556
 1985HOH      O 6159   1.373   3.872   3.246
 1985HOH     H1 6160   1.285   3.833   3.242
 1985HOH     H2 6161   1.372   3.925   3.326
 1986HOH      O 6162   0.170   1.869   1.647
 1986HOH     H1 6163   0.193   1.942   1.589
 1986HOH     H2 6164   0.237   1.869   1.715
 1987HOH      O 6165   0.988   1.020   0.215
 1987HOH     H1 6166   0.920   0.963   0.251
 1987HOH     H2 6167   0.967   1.026   0.122
 1988HOH      O 6168   3.498   3.978   2.162
 1988HOH     H1 6169   3.559   3.947   2.229
 1988HOH     H2 6170   3.424   4.013   2.212
 1989HOH      O 6171   2.435   0.774   1.160
 1989HOH     H1 6172   2.496   0.846   1.144
 1989HOH     H2 6173   2.490   0.695   1.160
 1990HOH      O 6174   2.715   0.672   0.169
 1990HOH     H1 6175   2.704   0.611   0.096
 1990HOH     H2 6176   2.787   0.635   0.221
 1991HOH      O 6177   3.595   3.515   0.883
 1991HOH     H1 6178   3.574   3.501   0.975
 1991HOH     H2 6179   3.653   3.443   0.860
 1992HOH      O 6180   0.837   1.604   1.495
 1992HOH     H1 6181   0.899   1.606   1.422
 1992HOH     H2 6182   0.874   1.662   1.561
 1993HOH      O 6183   3.216   1.974   0.296
 1993HOH     H1 6184   3.196   2.038   0.227
 1993HOH     H2 6185   3.145   1.982   0.358
 1994HOH      O 6186   1.275   3.325   3.647
 1994HOH     H1 6187   1.360   3.367   3.656
 1994HOH     H2 6188   1.288   3.256   3.582
 1995HOH      O 6189   3.368   1.263   2.609
 1995HOH     H1 6190   3.400   1.253   2.520
 1995HOH     H2 6191   3.277   1.290   2.599
 1996HOH      O 6192   1.509   1.799   0.886
 1996HOH     H1 6193   1.494   1.726   0.826
 1996HOH     H2 6194   1.440   1.792   0.952
 1997HOH      O 6195   1.835   2.828   0.359
 1997HOH     H1 6196   1.867   2.761   0.299
 1997HOH     H2 6197   1.887   2.817   0.438
 1998HOH      O 6198   0.830   2.070   2.769
 1998HOH     H1 6199   0.817   1.975   2.772
 1998HOH     H2 6200   0.745   2.105   2.743
 1999HOH      O 6201   1.727   3.556   2.694
 1999HOH     H1 6202   1.778   3.515   2.764
 1999HOH     H2 6203   1.690   3.483   2.645
 2000HOH      O 6204   1.498   4.025   0.962
 2000HOH     H1 6205   1.413   3.983   0.953
 2000HOH     H2 6206   1.560   3.963   0.925
 2001HOH      O 6207   1.599   2.685   3.279
 2001HOH     H1 6208   1.674   2.743   3.266
 2001HOH     H2 6209   1.636   2.604   3.313
 2002HOH      O 6210   1.520   1.740   3.434
 2002HOH     H1 6211   1.610   1.708   3.434
 2002HOH     H2 6212   1.468   1.667   3.400
 2003HOH      O 6213   3.705   0.361   0.318
 2003HOH     H1 6214   3.679   0.422   0.388
 2003HOH     H2 6215   3.640   0.292   0.322
 2004HOH      O 6216   2.477   2.092   0.562
 2004HOH     H1 6217   2.386   2.068   0.542
 2004HOH     H2 6218   2.469   2.164   0.624
 2005HOH      O 6219   3.733   2.168   2.853
 2005HOH     H1 6220   3.653   2.217   2.872
 2005HOH     H2 6221   3.709   2.076   2.868
 2006HOH      O 6222   1.372   3.120   3.400
 2006HOH     H1 6223   1.332   3.045   3.356
 2006HOH     H2 6224   1.319   3.195   3.371
 2007HOH      O 6225   2.107   1.750   1.279
 2007HOH     H1 6226   2.049   1.700   1.222
 2007HOH     H2 6227   2.101   1.840   1.248
 2008HOH      O 6228   0.869   0.224   0.327
 2008HOH     H1 6229   0.773   0.235   0.326
 2008HOH     H2 6230   0.892   0.230   0.419
 2009HOH      O 6231   2.962   0.327   1.832
 2009HOH     H1 6232   2.925   0.295   1.915
 2009HOH     H2 6233   2.941   0.421   1.831
 2010HOH      O 6234   1.890   3.750   0.464
 2010HOH     H1 6235   1.937   3.751   0.547
 2010HOH     H2 6236   1.799   3.771   0.488
 2011HOH      O 6237   2.808   3.213   3.852
 2011HOH     H1 6238   2.777   3.122   3.854
 2011HOH     H2 6239   2.824   3.230   3.760
 2012HOH      O 6240   3.983   1.858   0.235
 2012HOH     H1 6241   4.021   1.838   0.320
 2012HOH     H2 6242   3.957   1.950   0.242
 2013HOH      O 6243   1.741   3.400   1.335
 2013HOH     H1 6244   1.650   3.417   1.362
 2013HOH     H2 6245   1.735   3.384   1.241
 2014HOH      O 6246   1.433   1.052   3.860
 2014HOH     H1 6247   1.495   0.992   3.903
 2014HOH     H2 6248   1.381   0.997   3.802
 2015HOH      O 6249   2.160   0.649   3.781
 2015HOH     H1 6250   2.145   0.716   3.715
 2015HOH     H2 6251   2.240   0.604   3.753
 2016HOH      O 6252   0.042   3.359   3.819
 2016HOH     H1 6253   0.070   3.364   3.910
 2016HOH     H2 6254   0.012   3.269   3.808
 2017HOH      O 6255   2.364   1.651   0.747
 2017HOH     H1 6256   2.404   1.732   0.716
 2017HOH     H2 6257   2.274   1.674   0.767
 2018HOH      O 6258   2.548   3.579   3.745
 2018HOH     H1 6259   2.586   3.611   3.827
 2018HOH     H2 6260   2.483   3.515   3.773
 2019HOH      O 6261   0.681   1.456   1.074
 2019HOH     H1 6262   0.683   1.420   1.163
 2019HOH     H2 6263   0.772   1.449   1.044
 2020HOH      O 6264   3.710   2.719   2.843
 2020HOH     H1 6265   3.689   2.657   2.773
 2020HOH     H2 6266   3.806   2.726   2.842
 2021HOH      O 6267   1.919   3.576   1.681
 2021HOH     H1 6268   1.860   3.545   1.750
 2021HOH     H2 6269   1.983   3.630   1.727
 2022HOH      O 6270   0.628   3.238   0.524
 2022HOH     H1 6271   0.701   3.185   0.491
 2022HOH     H2 6272   0.622   3.214   0.617
 2023HOH      O 6273   0.300   0.980   1.477
 2023HOH     H1 6274   0.343   0.895   1.489
 2023HOH     H2 6275   0.262   1.000   1.562
 2024HOH      O 6276   0.273   1.244   2.206
 2024HOH     H1 6277   0.185   1.276   2.185
 2024HOH     H2 6278   0.262   1.196   2.288
 2025HOH      O 6279   2.066   1.214   3.305
 2025HOH     H1 6280   2.161   1.226   3.304
 2025HOH     H2 6281   2.044   1.186   3.216
 2026HOH      O 6282   3.309   2.753   3.612
 2026HOH     H1 6283   3.387   2.729   3.661
 2026HOH     H2 6284   3.263   2.670   3.599
 2027HOH      O 6285   2.148   2.698   0.075
 2027HOH     H1 6286   2.137   2.636   0.147
 2027HOH     H2 6287   2.207   2.654   0.014
 2028HOH      O 6288   1.419   0.583   2.321
 2028HOH     H1 6289   1.382   0.515   2.264
 2028HOH     H2 6290   1.496   0.614   2.273
 2029HOH      O 6291   0.828   0.310   0.033
 2029HOH     H1 6292   0.842   0.270   0.119
 2029HOH     H2 6293   0.787   0.240  -0.019
 2030HOH      O 6294   3.567   3.511   2.434
 2030HOH     H1 6295   3.607   3.457   2.502
 2030HOH     H2 6296   3.511   3.451   2.386
 2031HOH      O 6297   0.970   0.881   3.733
 2031HOH     H1 6298   0.883   0.859   3.698
 2031HOH     H2 6299   1.012   0.930   3.662
 2032HOH      O 6300   0.326   1.040   1.798
 2032HOH     H1 6301   0.287   1.112   1.749
 2032HOH     H2 6302   0.390   1.082   1.855
 2033HOH      O 6303   3.440   1.999   0.758
 2033HOH     H1 6304   3.411   1.959   0.840
 2033HOH     H2 6305   3.513   1.944   0.729
 2034HOH      O 6306   1.486   3.475   3.720
 2034HOH     H1 6307   1.574   3.500   3.693
 2034HOH     H2 6308   1.439   3.559   3.727
 2035HOH      O 6309   0.077   3.029   1.601
 2035HOH     H1 6310   0.162   3.023   1.558
 2035HOH     H2 6311   0.043   3.115   1.577
 2036HOH      O 6312   1.330   0.813   1.758
 2036HOH     H1 6313   1.352   0.765   1.678
 2036HOH     H2 6314   1.367   0.760   1.828
 2037HOH      O 6315   0.306   1.864   2.987
 2037HOH     H1 6316   0.373   1.892   2.925
 2037HOH     H2 6317   0.284   1.943   3.037
 2038HOH      O 6318   0.625   1.293   1.824
 2038HOH     H1 6319   0.648   1.235   1.751
 2038HOH     H2 6320   0.629   1.238   1.901
 2039HOH      O 6321   3.028   3.788   3.639
 2039HOH     H1 6322   2.967   3.860   3.622
 2039HOH     H2 6323   2.979   3.710   3.613
 2040HOH      O 6324   0.785   3.412   2.197
 2040HOH     H1 6325   0.741   3.446   2.119
 2040HOH     H2 6326   0.877   3.437   2.185
 2041HOH      O 6327   3.063   0.783   3.340
 2041HOH     H1 6328   3.097   0.695   3.359
 2041HOH     H2 6329   2.999   0.768   3.271
 2042HOH      O 6330   1.354   3.360   3.273
 2042HOH     H1 6331   1.404   3.345   3.193
 2042HOH     H2 6332   1.299   3.436   3.253
 2043HOH      O 6333   2.371   3.527   0.102
 2043HOH     H1 6334   2.312   3.552   0.174
 2043HOH     H2 6335   2.411   3.609   0.074
 2044HOH      O 6336   0.013   1.876   3.741
 2044HOH     H1 6337  -0.013   1.863   3.649
 2044HOH     H2 6338   0.101   1.839   3.746
 2045HOH      O 6339   1.939   0.951   1.786
 2045HOH     H1 6340   1.868   1.010   1.761
 2045HOH     H2 6341   1.903   0.897   1.856
 2046HOH      O 6342   3.496   3.659   3.324
 2046HOH     H1 6343   3.513   3.633   3.415
 2046HOH     H2 6344   3.401   3.669   3.320
 2047HOH      O 6345   3.965   0.532   3.196
 2047HOH     H1 6346   4.000   0.542   3.285
 2047HOH     H2 6347   3.890   0.474   3.206
 2048HOH      O 6348   1.040   0.767   0.765
 2048HOH     H1 6349   1.058   0.858   0.789
 2048HOH     H2 6350   1.124   0.734   0.734
 2049HOH      O 6351   0.952   3.205   0.676
 2049HOH     H1 6352   1.003   3.269   0.726
 2049HOH     H2 6353   0.919   3.143   0.741
 2050HOH      O 6354   0.932   3.594   3.788
 2050HOH     H1 6355   0.844   3.578   3.752
 2050HOH     H2 6356   0.957   3.678   3.750
 2051HOH      O 6357   0.090   0.426   0.776
 2051HOH     H1 6358   0.003   0.462   0.791
 2051HOH     H2 6359   0.150   0.494   0.806
 2052HOH      O 6360   2.493   1.124   2.674
 2052HOH     H1 6361   2.439   1.190   2.716
 2052HOH     H2 6362   2.525   1.166   2.594
 2053HOH      O 6363   2.907   0.439   3.799
 2053HOH     H1 6364   2.978   0.456   3.737
 2053HOH     H2 6365   2.906   0.344   3.808
 2054HOH      O 6366   0.211   0.048   1.457
 2054HOH     H1 6367   0.176   0.125   1.411
 2054HOH     H2 6368   0.259  -0.001   1.390
 2055HOH      O 6369   0.689   0.540   1.353
 2055HOH     H1 6370   0.607   0.584   1.330
 2055HOH     H2 6371   0.717   0.583   1.434
 2056HOH      O 6372   3.482   0.460   3.561
 2056HOH     H1 6373   3.555   0.509   3.521
 2056HOH     H2 6374   3.418   0.527   3.585
 2057HOH      O 6375   1.755   2.908   2.598
 2057HOH     H1 6376   1.833   2.931   2.649
 2057HOH     H2 6377   1.732   2.820   2.628
 2058HOH      O 6378   1.686   2.539   3.843
 2058HOH     H1 6379   1.742   2.601   3.795
 2058HOH     H2 6380   1.741   2.508   3.915
 2059HOH      O 6381   3.048   0.852   1.345
 2059HOH     H1 6382   3.091   0.773   1.314
 2059HOH     H2 6383   3.081   0.865   1.434
 2060HOH      O 6384   2.872   2.996   0.910
 2060HOH     H1 6385   2.875   2.911   0.866
 2060HOH     H2 6386   2.872   2.975   1.003
 2061HOH      O 6387   3.651   1.508   2.832
 2061HOH     H1 6388   3.690   1.542   2.912
 2061HOH     H2 6389   3.590   1.577   2.804
 2062HOH      O 6390   0.556   2.764   0.550
 2062HOH     H1 6391   0.626   2.703   0.573
 2062HOH     H2 6392   0.587   2.849   0.582
 2063HOH      O 6393   3.433   2.318   1.916
 2063HOH     H1 6394   3.447   2.384   1.848
 2063HOH     H2 6395   3.375   2.360   1.979
 2064HOH      O 6396   0.274   3.483   0.659
 2064HOH     H1 6397   0.265   3.481   0.754
 2064HOH     H2 6398   0.281   3.391   0.633
 2065HOH      O 6399   3.555   1.111   3.597
 2065HOH     H1 6400   3.503   1.031   3.594
 2065HOH     H2 6401   3.552   1.139   3.689
 2066HOH      O 6402   1.105   3.294   0.859
 2066HOH     H1 6403   1.171   3.225   0.856
 2066HOH     H2 6404   1.045   3.266   0.928
 2067HOH      O 6405   3.664   1.035   0.456
 2067HOH     H1 6406   3.730   1.021   0.387
 2067HOH     H2 6407   3.637   1.126   0.445
 2068HOH      O 6408   2.388   3.072   1.856
 2068HOH     H1 6409   2.337   3.125   1.917
 2068HOH     H2 6410   2.359   3.102   1.769
 2069HOH      O 6411   0.269   2.256   1.752
 2069HOH     H1 6412   0.295   2.347   1.747
 2069HOH     H2 6413   0.198   2.254   1.817
 2070HOH      O 6414   0.260   0.930   0.753
 2070HOH     H1 6415   0.267   0.922   0.658
 2070HOH     H2 6416   0.216   1.015   0.766
 2071HOH      O 6417   0.672   2.835   2.034
 2071HOH     H1 6418   0.620   2.876   1.964
 2071HOH     H2 6419   0.628   2.751   2.050
 2072HOH      O 6420   4.047   1.425   1.204
 2072HOH     H1 6421   4.043   1.333   1.177
 2072HOH     H2 6422   3.972   1.465   1.160
 2073HOH      O 6423   0.200   3.068   2.475
 2073HOH     H1 6424   0.252   3.064   2.395
 2073HOH     H2 6425   0.142   2.992   2.469
 2074HOH      O 6426   0.948   3.346   3.974
 2074HOH     H1 6427   0.917   3.364   4.063
 2074HOH     H2 6428   0.868   3.336   3.923
 2075HOH      O 6429   1.252   0.642   3.665
 2075HOH     H1 6430   1.257   0.736   3.650
 2075HOH     H2 6431   1.191   0.633   3.739
 2076HOH      O 6432   3.718   0.059   1.497
 2076HOH     H1 6433   3.722  -0.014   1.435
 2076HOH     H2 6434   3.725   0.018   1.583
 2077HOH      O 6435   2.440   1.252   1.804
 2077HOH     H1 6436   2.383   1.320   1.767
 2077HOH     H2 6437   2.515   1.249   1.743
 2078HOH      O 6438   3.626   1.239   2.705
 2078HOH     H1 6439   3.537   1.249   2.672
 2078HOH     H2 6440   3.643   1.319   2.754
 2079HOH      O 6441   2.169   2.439   1.372
 2079HOH     H1 6442   2.083   2.436   1.415
 2079HOH     H2 6443   2.150   2.464   1.282
 2080HOH      O 6444   1.390   0.857   1.262
 2080HOH     H1 6445   1.361   0.822   1.177
 2080HOH     H2 6446   1.484   0.870   1.252
 2081HOH      O 6447   3.372   2.769   0.611
 2081HOH     H1 6448   3.455   2.780   0.657
 2081HOH     H2 6449   3.315   2.725   0.675
 2082HOH      O 6450   3.724   3.785   2.723
 2082HOH     H1 6451   3.646   3.832   2.693
 2082HOH     H2 6452   3.757   3.837   2.797
 2083HOH      O 6453   0.827   2.849   0.135
 2083HOH     H1 6454   0.882   2.914   0.092
 2083HOH     H2 6455   0.762   2.825   0.070
 2084HOH      O 6456   0.754   0.392   0.749
 2084HOH     H1 6457   0.749   0.487   0.740
 2084HOH     H2 6458   0.713   0.373   0.833
 2085HOH      O 6459   0.780   2.587   0.538
 2085HOH     H1 6460   0.827   2.651   0.485
 2085HOH     H2 6461   0.842   2.562   0.606
 2086HOH      O 6462   1.464   3.476   2.145
 2086HOH     H1 6463   1.423   3.396   2.177
 2086HOH     H2 6464   1.522   3.503   2.216
 2087HOH      O 6465   1.913   3.730   2.420
 2087HOH     H1 6466   1.956   3.645   2.411
 2087HOH     H2 6467   1.961   3.788   2.362
 2088HOH      O 6468   2.227   2.688   0.595
 2088HOH     H1 6469   2.240   2.720   0.505
 2088HOH     H2 6470   2.306   2.639   0.615
 2089HOH      O 6471   1.633   0.388   3.942
 2089HOH     H1 6472   1.557   0.345   3.983
 2089HOH     H2 6473   1.702   0.380   4.008
 2090HOH      O 6474   1.866   0.427   2.209
 2090HOH     H1 6475   1.818   0.463   2.135
 2090HOH     H2 6476   1.923   0.361   2.170
 2091HOH      O 6477   0.561   2.456   3.990
 2091HOH     H1 6478   0.470   2.487   3.986
 2091HOH     H2 6479   0.614   2.535   3.986
 2092HOH      O 6480   0.607   2.006   2.146
 2092HOH     H1 6481   0.556   2.087   2.148
 2092HOH     H2 6482   0.683   2.027   2.090
 2093HOH      O 6483   0.232   2.429   2.300
 2093HOH     H1 6484   0.298   2.496   2.316
 2093HOH     H2 6485   0.270   2.349   2.338
 2094HOH      O 6486   3.591   1.357   1.449
 2094HOH     H1 6487   3.555   1.421   1.511
 2094HOH     H2 6488   3.676   1.393   1.423
 2095HOH      O 6489   0.597   0.400   0.494
 2095HOH     H1 6490   0.580   0.489   0.465
 2095HOH     H2 6491   0.643   0.411   0.577
 2096HOH      O 6492   0.726   1.212   3.866
 2096HOH     H1 6493   0.761   1.236   3.780
 2096HOH     H2 6494   0.715   1.295   3.912
 2097HOH      O 6495   3.852   2.266   0.922
 2097HOH     H1 6496   3.872   2.331   0.989
 2097HOH     H2 6497   3.848   2.316   0.841
 2098HOH      O 6498   0.259   2.970   3.518
 2098HOH     H1 6499   0.296   2.893   3.561
 2098HOH     H2 6500   0.170   2.976   3.551
 2099HOH      O 6501   2.734   1.998   0.008
 2099HOH     H1 6502   2.657   1.944   0.024
 2099HOH     H2 6503   2.709   2.085   0.040
 2100HOH      O 6504   0.797   1.787   1.232
 2100HOH     H1 6505   0.877   1.746   1.266
 2100HOH     H2 6506   0.728   1.724   1.254
 2101HOH      O 6507   2.066   1.668   0.519
 2101HOH     H1 6508   2.062   1.757   0.484
 2101HOH     H2 6509   2.143   1.630   0.478
 2102HOH      O 6510   1.162   0.410   3.986
 2102HOH     H1 6511   1.222   0.424   4.058
 2102HOH     H2 6512   1.156   0.495   3.942
 2103HOH      O 6513   3.986   3.582   2.982
 2103HOH     H1 6514   3.937   3.642   2.926
 2103HOH     H2 6515   3.943   3.589   3.068
 2104HOH      O 6516   3.942   0.477   2.769
 2104HOH     H1 6517   3.951   0.520   2.854
 2104HOH     H2 6518   3.872   0.525   2.725
 2105HOH      O 6519   0.927   3.556   2.996
 2105HOH     H1 6520   0.988   3.568   2.923
 2105HOH     H2 6521   0.855   3.505   2.959
 2106HOH      O 6522   0.430   3.726   1.320
 2106HOH     H1 6523   0.524   3.706   1.327
 2106HOH     H2 6524   0.387   3.641   1.322
 2107HOH      O 6525   2.125   2.863   1.310
 2107HOH     H1 6526   2.165   2.840   1.394
 2107HOH     H2 6527   2.045   2.911   1.334
 2108HOH      O 6528   1.782   0.379   0.142
 2108HOH     H1 6529   1.772   0.338   0.228
 2108HOH     H2 6530   1.843   0.451   0.157
 2109HOH      O 6531   2.948   4.058   2.256
 2109HOH     H1 6532   2.867   4.014   2.229
 2109HOH     H2 6533   3.017   3.993   2.243
   4.04076   4.04076   4.04076   0.00000   0.00000   0.00000   0.00000   0.00000   0.00000
