Generated with MDTraj, t= 23847.0
 6533
    1MOL     C1    1   3.920   3.161   1.173
    1MOL     C2    2   4.045   3.213   1.209
    1MOL     C3    3   4.056   3.349   1.234
    1MOL     C4    4   3.951   3.432   1.224
    1MOL     C5    5   3.829   3.381   1.186
    1MOL     C6    6   3.811   3.246   1.159
    1MOL     C7    7   3.966   3.579   1.253
    1MOL     C8    8   3.847   3.638   1.337
    1MOL     N1    9   3.874   3.763   1.419
    1MOL     C9   10   3.745   3.816   1.470
    1MOL    C10   11   3.946   3.869   1.340
    1MOL    C11   12   3.955   3.728   1.536
    1MOL     H1   13   3.770   3.862   1.566
    1MOL     H2   14   3.671   3.736   1.475
    1MOL     H3   15   3.707   3.885   1.394
    1MOL     H4   16   3.962   3.964   1.392
    1MOL     H5   17   3.887   3.896   1.253
    1MOL     H6   18   4.043   3.829   1.310
    1MOL     H7   19   4.038   3.663   1.509
    1MOL     H8   20   3.889   3.672   1.602
    1MOL     H9   21   3.987   3.821   1.584
    1MOL    H10   22   3.901   3.055   1.159
    1MOL    H11   23   4.125   3.141   1.228
    1MOL    H12   24   4.151   3.381   1.275
    1MOL    H13   25   3.736   3.438   1.183
    1MOL    H14   26   3.715   3.205   1.129
    1MOL    H15   27   4.061   3.597   1.303
    1MOL    H16   28   3.975   3.629   1.157
    1MOL    H17   29   3.766   3.660   1.268
    1MOL    H18   30   3.816   3.556   1.402
    2OCB     C1   31   3.847   1.741   1.047
    2OCB     C2   32   4.046   1.853   1.212
    2OCB     C3   33   3.875   1.690   1.170
    2OCB     C4   34   3.918   1.860   1.008
    2OCB     C5   35   4.009   1.917   1.094
    2OCB     C6   36   3.981   1.740   1.254
    2OCB     O1   37   4.142   1.919   1.284
    2OCB     C7   38   4.014   1.679   1.389
    2OCB     C8   39   4.097   1.999   1.394
    2OCB     O2   40   4.093   1.920   1.513
    2OCB     C9   41   3.984   1.862   1.552
    2OCB    C10   42   3.934   1.743   1.494
    2OCB    C11   43   3.805   1.701   1.523
    2OCB    C12   44   3.911   1.928   1.646
    2OCB    C13   45   3.732   1.771   1.622
    2OCB    C14   46   3.783   1.886   1.680
    2OCB     O3   47   3.713   1.969   1.761
    2OCB    C15   48   3.588   1.734   1.656
    2OCB    C16   49   3.486   1.806   1.569
    2OCB    C17   50   3.442   1.939   1.601
    2OCB    C18   51   3.620   2.062   1.704
    2OCB     O4   52   3.479   2.019   1.708
    2OCB     O5   53   3.893   1.928   0.892
    2OCB    C19   54   3.728   1.685   0.958
    2OCB    C20   55   3.600   1.766   0.997
    2OCB     O6   56   3.658   1.925   0.836
    2OCB    C21   57   3.564   1.878   0.921
    2OCB    C22   58   3.356   2.009   1.517
    2OCB    C23   59   3.308   1.958   1.397
    2OCB    C24   60   3.454   1.956   0.947
    2OCB    C25   61   3.367   1.924   1.052
    2OCB     O7   62   3.231   2.044   1.313
    2OCB     O8   63   3.266   2.018   1.081
    2OCB    C26   64   3.287   2.099   1.196
    2OCB    C27   65   3.504   1.724   1.096
    2OCB    C28   66   3.387   1.801   1.124
    2OCB    C29   67   3.437   1.755   1.444
    2OCB    C30   68   3.288   1.766   1.235
    2OCB    C31   69   3.346   1.829   1.360
    2OCB    C32   70   3.768   2.006   0.891
    2OCB    C33   71   3.562   1.575   1.659
    2OCB    C34   72   3.624   1.497   1.771
    2OCB    C35   73   3.553   1.359   1.773
    2OCB     O9   74   3.442   1.346   1.824
    2OCB    C36   75   4.003   1.522   1.378
    2OCB    C37   76   4.029   1.451   1.513
    2OCB    C38   77   4.058   1.303   1.515
    2OCB    O10   78   3.972   1.226   1.554
    2OCB    C39   79   3.709   1.534   0.965
    2OCB    C40   80   3.609   1.488   0.861
    2OCB    C41   81   3.617   1.331   0.840
    2OCB    O11   82   3.543   1.252   0.900
    2OCB    C42   83   3.237   1.617   1.234
    2OCB    C43   84   3.112   1.594   1.333
    2OCB    C44   85   3.053   1.451   1.337
    2OCB    O12   86   2.933   1.429   1.344
    2OCB    C45   87   4.181   2.126   1.405
    2OCB    C46   88   4.311   2.377   1.449
    2OCB    C47   89   4.215   2.172   1.536
    2OCB    C48   90   4.194   2.219   1.302
    2OCB    C49   91   4.273   2.335   1.322
    2OCB    C50   92   4.281   2.296   1.554
    2OCB    C51   93   3.790   2.136   0.810
    2OCB    C52   94   3.832   2.393   0.705
    2OCB    C53   95   3.690   2.203   0.737
    2OCB    C54   96   3.905   2.209   0.843
    2OCB    C55   97   3.920   2.336   0.787
    2OCB    C56   98   3.710   2.332   0.681
    2OCB    C57   99   3.246   2.245   1.175
    2OCB    C58  100   3.214   2.513   1.137
    2OCB    C59  101   3.232   2.328   1.286
    2OCB    C60  102   3.242   2.292   1.045
    2OCB    C61  103   3.227   2.431   1.026
    2OCB    C62  104   3.219   2.465   1.264
    2OCB    C63  105   3.636   2.207   1.763
    2OCB    C64  106   3.683   2.474   1.834
    2OCB    C65  107   3.535   2.301   1.747
    2OCB    C66  108   3.758   2.247   1.820
    2OCB    C67  109   3.783   2.378   1.851
    2OCB    C68  110   3.562   2.434   1.787
    2OCB    O13  111   4.033   2.418   0.815
    2OCB    O14  112   3.214   2.492   0.896
    2OCB    O15  113   3.216   2.560   1.368
    2OCB    O16  114   4.306   2.415   1.216
    2OCB    O17  115   4.310   2.339   1.684
    2OCB    O18  116   3.461   2.533   1.774
    2OCB    O19  117   3.899   2.413   1.921
    2OCB    C69  118   3.281   2.448   0.784
    2OCB    C70  119   3.392   2.372   0.532
    2OCB    C71  120   3.418   2.430   0.767
    2OCB    C72  121   3.204   2.428   0.666
    2OCB    C73  122   3.253   2.399   0.539
    2OCB    C74  123   3.475   2.396   0.642
    2OCB    O20  124   3.608   2.398   0.615
    2OCB    C75  125   4.286   2.380   1.082
    2OCB    C76  126   4.224   2.275   0.832
    2OCB    C77  127   4.370   2.281   1.022
    2OCB    C78  128   4.174   2.430   1.012
    2OCB    C79  129   4.147   2.379   0.887
    2OCB    C80  130   4.338   2.231   0.897
    2OCB    C81  131   3.224   2.522   1.500
    2OCB    C82  132   3.232   2.489   1.779
    2OCB    C83  133   3.106   2.503   1.575
    2OCB    C84  134   3.352   2.528   1.566
    2OCB    C85  135   3.347   2.521   1.704
    2OCB    C86  136   3.111   2.481   1.714
    2OCB    C87  137   2.987   2.438   1.798
    2OCB    O21  138   3.002   2.423   1.917
    2OCB    C88  139   4.185   2.062   2.087
    2OCB    O22  140   4.302   2.024   2.094
    2OCB    C89  141   4.429   2.128   0.825
    2OCB    O23  142   4.523   2.081   0.882
    2OCB    O24  143   3.629   1.265   1.736
    2OCB    O25  144   3.120   1.354   1.317
    2OCB    O26  145   3.700   1.282   0.762
    2OCB    C90  146   3.167   2.392   0.419
    2OCB    O27  147   3.224   2.374   0.314
    2OCB    O28  148   4.097   2.018   2.155
    2OCB    O29  149   2.885   2.408   1.739
    2OCB    O30  150   3.062   2.446   0.409
    2OCB    O31  151   4.398   2.092   0.710
    2OCB    O32  152   4.169   1.266   1.517
    2OCB    C91  153   4.224   2.303   1.791
    2OCB    C92  154   4.036   2.238   1.995
    2OCB    C93  155   4.107   2.369   1.800
    2OCB    C94  156   4.257   2.206   1.888
    2OCB    C95  157   4.159   2.173   1.987
    2OCB    C96  158   4.017   2.345   1.907
    2OCB    C97  159   4.071   2.490   1.710
    2OCB    C98  160   4.079   2.533   1.072
    2OCB    C99  161   3.511   2.450   0.889
    2OCB      C  162   3.476   2.550   1.478
    2OCB     H1  163   3.818   1.601   1.198
    2OCB     H2  164   4.066   2.005   1.065
    2OCB     H3  165   4.120   1.697   1.410
    2OCB     H4  166   3.997   2.041   1.371
    2OCB     H5  167   3.761   1.616   1.471
    2OCB     H6  168   3.951   2.019   1.690
    2OCB     H7  169   3.576   1.765   1.760
    2OCB     H8  170   3.648   2.081   1.600
    2OCB     H9  171   3.763   1.710   0.858
    2OCB    H10  172   3.336   2.115   1.533
    2OCB    H11  173   3.441   2.053   0.900
    2OCB    H12  174   3.396   2.108   1.203
    2OCB    H13  175   3.536   1.636   1.152
    2OCB    H14  176   3.481   1.662   1.408
    2OCB    H15  177   3.195   1.819   1.211
    2OCB    H16  178   3.744   2.045   0.991
    2OCB    H17  179   3.454   1.569   1.663
    2OCB    H18  180   3.586   1.529   1.562
    2OCB    H19  181   3.731   1.484   1.752
    2OCB    H20  182   3.609   1.555   1.863
    2OCB    H21  183   4.078   1.491   1.304
    2OCB    H22  184   3.908   1.484   1.341
    2OCB    H23  185   4.118   1.499   1.554
    2OCB    H24  186   3.946   1.467   1.583
    2OCB    H25  187   3.803   1.483   0.947
    2OCB    H26  188   3.677   1.496   1.062
    2OCB    H27  189   3.507   1.514   0.891
    2OCB    H28  190   3.635   1.531   0.764
    2OCB    H29  191   3.210   1.601   1.129
    2OCB    H30  192   3.319   1.555   1.270
    2OCB    H31  193   3.150   1.611   1.434
    2OCB    H32  194   3.029   1.665   1.328
    2OCB    H33  195   4.356   2.475   1.461
    2OCB    H34  196   4.198   2.115   1.627
    2OCB    H35  197   4.153   2.195   1.204
    2OCB    H36  198   3.851   2.495   0.673
    2OCB    H37  199   3.589   2.162   0.730
    2OCB    H38  200   3.980   2.167   0.909
    2OCB    H39  201   3.201   2.620   1.120
    2OCB    H40  202   3.240   2.292   1.388
    2OCB    H41  203   3.260   2.225   0.961
    2OCB    H42  204   3.702   2.579   1.859
    2OCB    H43  205   3.442   2.272   1.698
    2OCB    H44  206   3.840   2.176   1.827
    2OCB    H45  207   3.431   2.341   0.435
    2OCB    H46  208   3.099   2.454   0.679
    2OCB    H47  209   4.204   2.249   0.729
    2OCB    H48  210   4.463   2.250   1.069
    2OCB    H49  211   3.247   2.483   1.887
    2OCB    H50  212   3.017   2.498   1.512
    2OCB    H51  213   3.964   2.211   2.072
    2OCB    H52  214   4.353   2.155   1.878
    2OCB    H53  215   4.071   2.575   1.778
    2OCB    H54  216   4.137   2.516   1.627
    2OCB    H55  217   3.972   2.472   1.667
    2OCB    H56  218   4.070   2.626   1.014
    2OCB    H57  219   3.980   2.489   1.081
    2OCB    H58  220   4.120   2.550   1.171
    2OCB    H59  221   3.611   2.482   0.861
    2OCB    H60  222   3.463   2.527   0.950
    2OCB    H61  223   3.533   2.354   0.936
    2OCB    H62  224   3.536   2.628   1.525
    2OCB    H63  225   3.529   2.455   1.479
    2OCB    H64  226   3.450   2.584   1.378
    3Na+    Na+  227   2.803   2.351   1.955
    4Na+    Na+  228   0.722   2.293   0.221
    5Na+    Na+  229   0.409   2.859   0.817
    6Na+    Na+  230   3.865   2.291   0.128
    7Na+    Na+  231   3.462   0.877   1.730
    8Na+    Na+  232   3.107   1.258   1.106
    9Na+    Na+  233   3.077   2.457   0.166
   10HOH      O  234   2.859   3.814   1.963
   10HOH     H1  235   2.802   3.878   1.920
   10HOH     H2  236   2.831   3.816   2.055
   11HOH      O  237   2.353   2.652   3.987
   11HOH     H1  238   2.362   2.747   3.976
   11HOH     H2  239   2.336   2.641   4.081
   12HOH      O  240   2.330   0.619   3.391
   12HOH     H1  241   2.293   0.696   3.434
   12HOH     H2  242   2.336   0.553   3.460
   13HOH      O  243   2.931   2.769   3.946
   13HOH     H1  244   2.886   2.716   3.881
   13HOH     H2  245   3.024   2.754   3.929
   14HOH      O  246   2.758   0.256   3.380
   14HOH     H1  247   2.766   0.212   3.295
   14HOH     H2  248   2.770   0.186   3.445
   15HOH      O  249   1.853   0.044   0.030
   15HOH     H1  250   1.775   0.001   0.064
   15HOH     H2  251   1.925  -0.016   0.051
   16HOH      O  252   3.297   0.356   2.227
   16HOH     H1  253   3.345   0.372   2.145
   16HOH     H2  254   3.366   0.343   2.292
   17HOH      O  255   3.141   1.294   3.280
   17HOH     H1  256   3.165   1.216   3.330
   17HOH     H2  257   3.045   1.290   3.273
   18HOH      O  258   0.642   2.665   1.626
   18HOH     H1  259   0.672   2.627   1.543
   18HOH     H2  260   0.671   2.603   1.692
   19HOH      O  261   1.235   0.860   2.345
   19HOH     H1  262   1.169   0.835   2.409
   19HOH     H2  263   1.240   0.956   2.352
   20HOH      O  264   2.895   0.382   2.714
   20HOH     H1  265   2.887   0.467   2.670
   20HOH     H2  266   2.948   0.329   2.655
   21HOH      O  267   1.979   0.303   2.544
   21HOH     H1  268   1.984   0.207   2.538
   21HOH     H2  269   1.922   0.318   2.620
   22HOH      O  270   1.906   2.835   3.606
   22HOH     H1  271   1.936   2.756   3.563
   22HOH     H2  272   1.844   2.804   3.672
   23HOH      O  273   3.825   0.032   2.725
   23HOH     H1  274   3.822   0.118   2.767
   23HOH     H2  275   3.902   0.037   2.667
   24HOH      O  276   0.688   3.130   0.455
   24HOH     H1  277   0.768   3.112   0.406
   24HOH     H2  278   0.715   3.191   0.524
   25HOH      O  279   1.219   0.370   0.537
   25HOH     H1  280   1.245   0.285   0.502
   25HOH     H2  281   1.134   0.388   0.498
   26HOH      O  282   1.997   3.060   1.054
   26HOH     H1  283   1.939   3.010   0.996
   26HOH     H2  284   2.080   3.012   1.052
   27HOH      O  285   0.350   3.500   1.780
   27HOH     H1  286   0.328   3.581   1.827
   27HOH     H2  287   0.437   3.477   1.812
   28HOH      O  288   0.009   0.409   2.938
   28HOH     H1  289  -0.066   0.356   2.967
   28HOH     H2  290   0.084   0.373   2.987
   29HOH      O  291   1.243   0.777   0.013
   29HOH     H1  292   1.182   0.757   0.084
   29HOH     H2  293   1.264   0.691  -0.026
   30HOH      O  294   1.448   2.726   3.726
   30HOH     H1  295   1.437   2.686   3.640
   30HOH     H2  296   1.359   2.746   3.754
   31HOH      O  297   2.458   2.614   3.142
   31HOH     H1  298   2.439   2.579   3.229
   31HOH     H2  299   2.410   2.697   3.138
   32HOH      O  300   2.309   1.527   2.590
   32HOH     H1  301   2.303   1.449   2.534
   32HOH     H2  302   2.337   1.596   2.531
   33HOH      O  303   2.534   3.665   3.373
   33HOH     H1  304   2.447   3.705   3.373
   33HOH     H2  305   2.526   3.590   3.432
   34HOH      O  306   0.911   1.933   0.465
   34HOH     H1  307   0.950   1.866   0.521
   34HOH     H2  308   0.868   1.993   0.525
   35HOH      O  309   2.905   3.473   0.563
   35HOH     H1  310   2.835   3.533   0.589
   35HOH     H2  311   2.962   3.469   0.639
   36HOH      O  312   2.069   3.605   0.199
   36HOH     H1  313   2.002   3.633   0.261
   36HOH     H2  314   2.114   3.533   0.244
   37HOH      O  315   1.832   3.910   3.772
   37HOH     H1  316   1.800   3.840   3.829
   37HOH     H2  317   1.775   3.984   3.790
   38HOH      O  318   1.668   3.377   2.715
   38HOH     H1  319   1.623   3.297   2.687
   38HOH     H2  320   1.758   3.364   2.687
   39HOH      O  321   3.789   0.994   0.190
   39HOH     H1  322   3.764   0.931   0.122
   39HOH     H2  323   3.849   1.054   0.146
   40HOH      O  324   1.252   3.367   2.648
   40HOH     H1  325   1.169   3.368   2.696
   40HOH     H2  326   1.316   3.399   2.712
   41HOH      O  327   0.387   2.874   3.312
   41HOH     H1  328   0.420   2.954   3.352
   41HOH     H2  329   0.407   2.883   3.219
   42HOH      O  330   1.880   1.018   0.519
   42HOH     H1  331   1.935   1.056   0.451
   42HOH     H2  332   1.792   1.050   0.501
   43HOH      O  333   0.405   0.084   1.566
   43HOH     H1  334   0.377   0.087   1.474
   43HOH     H2  335   0.357   0.009   1.603
   44HOH      O  336   3.461   2.885   0.570
   44HOH     H1  337   3.419   2.806   0.536
   44HOH     H2  338   3.390   2.936   0.607
   45HOH      O  339   2.755   3.973   1.757
   45HOH     H1  340   2.838   4.019   1.759
   45HOH     H2  341   2.740   3.956   1.664
   46HOH      O  342   1.509   0.039   1.727
   46HOH     H1  343   1.422   0.011   1.754
   46HOH     H2  344   1.544   0.087   1.802
   47HOH      O  345   0.830   1.495   4.020
   47HOH     H1  346   0.857   1.580   3.985
   47HOH     H2  347   0.737   1.488   3.997
   48HOH      O  348   3.357   1.524   3.533
   48HOH     H1  349   3.367   1.430   3.549
   48HOH     H2  350   3.265   1.534   3.508
   49HOH      O  351   1.751   0.839   2.724
   49HOH     H1  352   1.741   0.751   2.688
   49HOH     H2  353   1.662   0.875   2.725
   50HOH      O  354   1.979   3.190   3.257
   50HOH     H1  355   1.913   3.240   3.305
   50HOH     H2  356   2.034   3.151   3.326
   51HOH      O  357   0.008   2.362   2.933
   51HOH     H1  358   0.063   2.323   3.001
   51HOH     H2  359  -0.055   2.293   2.910
   52HOH      O  360   0.517   0.237   3.477
   52HOH     H1  361   0.435   0.280   3.454
   52HOH     H2  362   0.506   0.210   3.568
   53HOH      O  363   0.740   3.741   3.940
   53HOH     H1  364   0.653   3.780   3.929
   53HOH     H2  365   0.725   3.664   3.995
   54HOH      O  366   0.182   0.383   0.648
   54HOH     H1  367   0.202   0.446   0.578
   54HOH     H2  368   0.088   0.391   0.661
   55HOH      O  369   1.029   0.068   3.149
   55HOH     H1  370   1.072   0.138   3.101
   55HOH     H2  371   1.098   0.033   3.206
   56HOH      O  372   2.319   1.071   3.728
   56HOH     H1  373   2.345   1.090   3.819
   56HOH     H2  374   2.396   1.026   3.691
   57HOH      O  375   4.015   2.517   2.345
   57HOH     H1  376   3.930   2.474   2.355
   57HOH     H2  377   4.069   2.453   2.298
   58HOH      O  378   2.303   3.243   2.348
   58HOH     H1  379   2.261   3.183   2.287
   58HOH     H2  380   2.243   3.247   2.423
   59HOH      O  381   2.196   2.290   1.135
   59HOH     H1  382   2.142   2.236   1.077
   59HOH     H2  383   2.286   2.265   1.115
   60HOH      O  384   2.376   2.258   2.742
   60HOH     H1  385   2.449   2.222   2.692
   60HOH     H2  386   2.405   2.345   2.768
   61HOH      O  387   3.552   3.817   1.774
   61HOH     H1  388   3.549   3.733   1.729
   61HOH     H2  389   3.465   3.856   1.758
   62HOH      O  390   1.515   2.564   1.220
   62HOH     H1  391   1.521   2.504   1.146
   62HOH     H2  392   1.421   2.581   1.229
   63HOH      O  393   3.848   0.620   1.930
   63HOH     H1  394   3.928   0.569   1.914
   63HOH     H2  395   3.853   0.693   1.868
   64HOH      O  396   3.487   3.145   0.289
   64HOH     H1  397   3.399   3.170   0.316
   64HOH     H2  398   3.529   3.116   0.369
   65HOH      O  399   0.480   3.708   3.522
   65HOH     H1  400   0.525   3.677   3.601
   65HOH     H2  401   0.409   3.646   3.509
   66HOH      O  402   0.649   2.788   0.815
   66HOH     H1  403   0.719   2.847   0.788
   66HOH     H2  404   0.650   2.718   0.749
   67HOH      O  405   2.330   3.060   0.243
   67HOH     H1  406   2.397   3.128   0.235
   67HOH     H2  407   2.323   3.022   0.156
   68HOH      O  408   1.138   2.577   2.918
   68HOH     H1  409   1.058   2.544   2.958
   68HOH     H2  410   1.179   2.500   2.879
   69HOH      O  411   2.564   3.470   0.860
   69HOH     H1  412   2.625   3.415   0.909
   69HOH     H2  413   2.565   3.435   0.771
   70HOH      O  414   0.776   0.162   3.185
   70HOH     H1  415   0.727   0.082   3.206
   70HOH     H2  416   0.866   0.132   3.174
   71HOH      O  417   2.538   1.728   1.466
   71HOH     H1  418   2.552   1.807   1.518
   71HOH     H2  419   2.621   1.713   1.421
   72HOH      O  420   3.611   3.757   3.187
   72HOH     H1  421   3.537   3.816   3.178
   72HOH     H2  422   3.637   3.737   3.096
   73HOH      O  423   2.401   2.043   0.878
   73HOH     H1  424   2.369   1.963   0.921
   73HOH     H2  425   2.487   2.019   0.844
   74HOH      O  426   3.462   2.468   0.228
   74HOH     H1  427   3.441   2.514   0.146
   74HOH     H2  428   3.377   2.438   0.260
   75HOH      O  429   3.434   1.662   4.043
   75HOH     H1  430   3.345   1.651   4.011
   75HOH     H2  431   3.479   1.711   3.975
   76HOH      O  432   2.215   1.591   3.862
   76HOH     H1  433   2.231   1.673   3.910
   76HOH     H2  434   2.270   1.598   3.784
   77HOH      O  435   1.970   1.552   2.483
   77HOH     H1  436   1.976   1.488   2.554
   77HOH     H2  437   1.917   1.508   2.416
   78HOH      O  438   3.435   3.100   3.489
   78HOH     H1  439   3.350   3.066   3.516
   78HOH     H2  440   3.444   3.182   3.538
   79HOH      O  441   2.052   3.578   2.071
   79HOH     H1  442   2.128   3.623   2.033
   79HOH     H2  443   2.057   3.599   2.164
   80HOH      O  444   1.220   0.531   1.651
   80HOH     H1  445   1.253   0.584   1.724
   80HOH     H2  446   1.280   0.457   1.647
   81HOH      O  447   0.428   2.734   0.185
   81HOH     H1  448   0.485   2.811   0.188
   81HOH     H2  449   0.344   2.764   0.220
   82HOH      O  450   0.742   3.130   1.147
   82HOH     H1  451   0.774   3.220   1.138
   82HOH     H2  452   0.815   3.075   1.117
   83HOH      O  453   0.331   3.133   3.830
   83HOH     H1  454   0.366   3.074   3.764
   83HOH     H2  455   0.370   3.218   3.810
   84HOH      O  456   2.054   0.853   1.042
   84HOH     H1  457   2.013   0.936   1.067
   84HOH     H2  458   2.147   0.866   1.060
   85HOH      O  459   2.458   2.844   2.838
   85HOH     H1  460   2.363   2.836   2.849
   85HOH     H2  461   2.489   2.880   2.921
   86HOH      O  462   1.091   1.303   0.546
   86HOH     H1  463   1.133   1.265   0.469
   86HOH     H2  464   1.069   1.392   0.520
   87HOH      O  465   3.880   0.846   1.791
   87HOH     H1  466   3.794   0.886   1.802
   87HOH     H2  467   3.935   0.916   1.756
   88HOH      O  468   0.460   3.966   1.234
   88HOH     H1  469   0.417   4.048   1.256
   88HOH     H2  470   0.548   3.975   1.270
   89HOH      O  471   2.739   0.757   0.671
   89HOH     H1  472   2.677   0.812   0.623
   89HOH     H2  473   2.741   0.674   0.622
   90HOH      O  474   3.518   1.319   2.920
   90HOH     H1  475   3.459   1.371   2.867
   90HOH     H2  476   3.491   1.336   3.010
   91HOH      O  477   1.184   0.324   3.061
   91HOH     H1  478   1.144   0.409   3.044
   91HOH     H2  479   1.273   0.333   3.028
   92HOH      O  480   0.439   1.711   2.619
   92HOH     H1  481   0.449   1.792   2.668
   92HOH     H2  482   0.346   1.705   2.600
   93HOH      O  483   1.074   1.546   0.866
   93HOH     H1  484   0.998   1.489   0.884
   93HOH     H2  485   1.145   1.506   0.917
   94HOH      O  486   4.009   0.282   1.923
   94HOH     H1  487   3.914   0.279   1.916
   94HOH     H2  488   4.039   0.307   1.835
   95HOH      O  489   0.616   3.315   2.780
   95HOH     H1  490   0.561   3.326   2.703
   95HOH     H2  491   0.683   3.383   2.771
   96HOH      O  492   2.503   3.252   2.067
   96HOH     H1  493   2.473   3.329   2.114
   96HOH     H2  494   2.584   3.279   2.025
   97HOH      O  495   0.310   1.514   2.894
   97HOH     H1  496   0.398   1.523   2.930
   97HOH     H2  497   0.320   1.460   2.816
   98HOH      O  498   3.321   3.912   3.911
   98HOH     H1  499   3.342   3.845   3.846
   98HOH     H2  500   3.230   3.935   3.894
   99HOH      O  501   2.134   2.678   3.249
   99HOH     H1  502   2.184   2.738   3.304
   99HOH     H2  503   2.107   2.731   3.174
  100HOH      O  504   2.958   2.669   3.262
  100HOH     H1  505   2.878   2.674   3.210
  100HOH     H2  506   2.944   2.595   3.321
  101HOH      O  507   2.724   2.696   3.113
  101HOH     H1  508   2.641   2.649   3.124
  101HOH     H2  509   2.698   2.783   3.081
  102HOH      O  510   3.676   3.996   2.357
  102HOH     H1  511   3.747   4.045   2.316
  102HOH     H2  512   3.719   3.921   2.398
  103HOH      O  513   1.438   2.210   0.371
  103HOH     H1  514   1.468   2.294   0.406
  103HOH     H2  515   1.506   2.185   0.308
  104HOH      O  516   1.668   0.678   2.078
  104HOH     H1  517   1.607   0.721   2.138
  104HOH     H2  518   1.686   0.593   2.119
  105HOH      O  519   1.959   3.897   2.413
  105HOH     H1  520   2.029   3.932   2.359
  105HOH     H2  521   1.879   3.933   2.374
  106HOH      O  522   2.333   3.114   2.675
  106HOH     H1  523   2.271   3.182   2.704
  106HOH     H2  524   2.277   3.046   2.637
  107HOH      O  525   2.726   0.985   3.019
  107HOH     H1  526   2.737   1.078   3.038
  107HOH     H2  527   2.670   0.953   3.090
  108HOH      O  528   0.176   0.418   1.376
  108HOH     H1  529   0.187   0.513   1.377
  108HOH     H2  530   0.096   0.404   1.324
  109HOH      O  531   0.286   1.476   3.174
  109HOH     H1  532   0.265   1.467   3.081
  109HOH     H2  533   0.372   1.434   3.183
  110HOH      O  534   0.044   3.852   2.566
  110HOH     H1  535   0.025   3.946   2.563
  110HOH     H2  536   0.018   3.820   2.480
  111HOH      O  537   1.375   1.857   1.024
  111HOH     H1  538   1.323   1.890   1.097
  111HOH     H2  539   1.373   1.762   1.033
  112HOH      O  540   3.265   3.176   0.437
  112HOH     H1  541   3.269   3.125   0.518
  112HOH     H2  542   3.173   3.172   0.411
  113HOH      O  543   2.700   2.003   0.196
  113HOH     H1  544   2.705   2.098   0.209
  113HOH     H2  545   2.790   1.976   0.176
  114HOH      O  546   3.386   1.212   2.503
  114HOH     H1  547   3.425   1.285   2.455
  114HOH     H2  548   3.306   1.249   2.542
  115HOH      O  549   3.771   2.290   2.715
  115HOH     H1  550   3.722   2.221   2.671
  115HOH     H2  551   3.738   2.289   2.805
  116HOH      O  552   2.113   0.349   1.702
  116HOH     H1  553   2.151   0.362   1.615
  116HOH     H2  554   2.165   0.405   1.759
  117HOH      O  555   1.984   0.504   0.729
  117HOH     H1  556   1.954   0.434   0.787
  117HOH     H2  557   1.951   0.478   0.642
  118HOH      O  558   1.197   2.473   0.037
  118HOH     H1  559   1.181   2.398   0.095
  118HOH     H2  560   1.292   2.485   0.039
  119HOH      O  561   0.847   2.007   1.115
  119HOH     H1  562   0.821   2.098   1.104
  119HOH     H2  563   0.859   1.996   1.209
  120HOH      O  564   0.037   0.467   3.752
  120HOH     H1  565  -0.042   0.422   3.782
  120HOH     H2  566   0.090   0.398   3.712
  121HOH      O  567   0.791   1.853   2.281
  121HOH     H1  568   0.871   1.892   2.246
  121HOH     H2  569   0.751   1.810   2.205
  122HOH      O  570   3.379   1.056   0.883
  122HOH     H1  571   3.344   1.029   0.968
  122HOH     H2  572   3.432   1.133   0.902
  123HOH      O  573   1.219   3.071   2.952
  123HOH     H1  574   1.134   3.088   2.912
  123HOH     H2  575   1.224   2.976   2.960
  124HOH      O  576   2.176   0.334   3.500
  124HOH     H1  577   2.268   0.330   3.476
  124HOH     H2  578   2.132   0.275   3.438
  125HOH      O  579   3.632   1.009   1.844
  125HOH     H1  580   3.624   1.032   1.937
  125HOH     H2  581   3.635   1.092   1.798
  126HOH      O  582   0.784   0.762   1.816
  126HOH     H1  583   0.850   0.828   1.794
  126HOH     H2  584   0.805   0.688   1.759
  127HOH      O  585   2.182   2.626   1.727
  127HOH     H1  586   2.143   2.599   1.644
  127HOH     H2  587   2.219   2.712   1.710
  128HOH      O  588   2.143   1.890   2.784
  128HOH     H1  589   2.144   1.964   2.845
  128HOH     H2  590   2.125   1.930   2.699
  129HOH      O  591   0.147   1.589   1.000
  129HOH     H1  592   0.141   1.506   1.047
  129HOH     H2  593   0.119   1.568   0.911
  130HOH      O  594   1.094   1.256   0.832
  130HOH     H1  595   1.147   1.178   0.850
  130HOH     H2  596   1.055   1.239   0.746
  131HOH      O  597   1.792   3.460   3.617
  131HOH     H1  598   1.787   3.521   3.691
  131HOH     H2  599   1.878   3.419   3.625
  132HOH      O  600   0.828   3.116   1.668
  132HOH     H1  601   0.880   3.141   1.744
  132HOH     H2  602   0.751   3.073   1.704
  133HOH      O  603   1.742   2.310   0.974
  133HOH     H1  604   1.651   2.330   0.954
  133HOH     H2  605   1.740   2.268   1.060
  134HOH      O  606   1.378   1.187   1.006
  134HOH     H1  607   1.399   1.095   1.025
  134HOH     H2  608   1.401   1.198   0.914
  135HOH      O  609   1.716   0.778   1.331
  135HOH     H1  610   1.719   0.743   1.242
  135HOH     H2  611   1.785   0.730   1.378
  136HOH      O  612   3.629   1.291   3.212
  136HOH     H1  613   3.587   1.332   3.288
  136HOH     H2  614   3.650   1.364   3.154
  137HOH      O  615   0.152   3.718   2.820
  137HOH     H1  616   0.191   3.755   2.740
  137HOH     H2  617   0.095   3.787   2.852
  138HOH      O  618   0.314   2.074   2.644
  138HOH     H1  619   0.230   2.030   2.661
  138HOH     H2  620   0.335   2.052   2.554
  139HOH      O  621   2.461   0.380   1.461
  139HOH     H1  622   2.524   0.309   1.451
  139HOH     H2  623   2.376   0.336   1.462
  140HOH      O  624   0.552   1.111   0.505
  140HOH     H1  625   0.492   1.067   0.445
  140HOH     H2  626   0.601   1.041   0.546
  141HOH      O  627   0.177   3.215   2.470
  141HOH     H1  628   0.096   3.180   2.507
  141HOH     H2  629   0.202   3.151   2.403
  142HOH      O  630   2.545   0.919   0.542
  142HOH     H1  631   2.493   0.851   0.499
  142HOH     H2  632   2.481   0.986   0.565
  143HOH      O  633   0.855   2.984   0.829
  143HOH     H1  634   0.920   3.009   0.763
  143HOH     H2  635   0.901   2.991   0.912
  144HOH      O  636   3.678   3.300   3.880
  144HOH     H1  637   3.672   3.290   3.975
  144HOH     H2  638   3.596   3.343   3.856
  145HOH      O  639   2.447   3.132   1.091
  145HOH     H1  640   2.487   3.211   1.127
  145HOH     H2  641   2.369   3.117   1.145
  146HOH      O  642   2.846   3.080   2.375
  146HOH     H1  643   2.752   3.098   2.368
  146HOH     H2  644   2.854   2.986   2.360
  147HOH      O  645   3.272   3.227   2.068
  147HOH     H1  646   3.365   3.237   2.047
  147HOH     H2  647   3.236   3.315   2.056
  148HOH      O  648   0.653   1.545   0.603
  148HOH     H1  649   0.705   1.474   0.566
  148HOH     H2  650   0.641   1.521   0.695
  149HOH      O  651   3.885   3.365   1.533
  149HOH     H1  652   3.813   3.305   1.553
  149HOH     H2  653   3.931   3.323   1.460
  150HOH      O  654   1.969   0.505   3.508
  150HOH     H1  655   1.920   0.431   3.543
  150HOH     H2  656   2.061   0.479   3.515
  151HOH      O  657   1.522   2.857   2.349
  151HOH     H1  658   1.467   2.935   2.357
  151HOH     H2  659   1.483   2.808   2.277
  152HOH      O  660   1.955   1.132   2.864
  152HOH     H1  661   2.033   1.146   2.918
  152HOH     H2  662   1.990   1.105   2.779
  153HOH      O  663   1.461   1.463   0.258
  153HOH     H1  664   1.472   1.368   0.256
  153HOH     H2  665   1.463   1.490   0.166
  154HOH      O  666   1.215   2.453   1.429
  154HOH     H1  667   1.285   2.412   1.378
  154HOH     H2  668   1.149   2.384   1.438
  155HOH      O  669   2.674   3.017   0.262
  155HOH     H1  670   2.732   2.995   0.189
  155HOH     H2  671   2.703   2.961   0.334
  156HOH      O  672   0.430   3.293   2.564
  156HOH     H1  673   0.404   3.382   2.587
  156HOH     H2  674   0.348   3.247   2.548
  157HOH      O  675   1.849   2.895   0.051
  157HOH     H1  676   1.792   2.879   0.126
  157HOH     H2  677   1.927   2.842   0.070
  158HOH      O  678   0.685   3.723   1.517
  158HOH     H1  679   0.675   3.644   1.465
  158HOH     H2  680   0.687   3.794   1.453
  159HOH      O  681   3.949   1.396   2.929
  159HOH     H1  682   3.882   1.377   2.863
  159HOH     H2  683   3.905   1.452   2.993
  160HOH      O  684   3.114   1.715   0.349
  160HOH     H1  685   3.069   1.656   0.289
  160HOH     H2  686   3.192   1.666   0.377
  161HOH      O  687   2.370   3.263   3.251
  161HOH     H1  688   2.379   3.176   3.290
  161HOH     H2  689   2.328   3.315   3.319
  162HOH      O  690   0.385   1.580   0.515
  162HOH     H1  691   0.353   1.641   0.582
  162HOH     H2  692   0.477   1.564   0.540
  163HOH      O  693   1.990   2.994   3.878
  163HOH     H1  694   1.931   3.048   3.826
  163HOH     H2  695   1.934   2.957   3.947
  164HOH      O  696   0.358   1.981   3.594
  164HOH     H1  697   0.444   2.005   3.628
  164HOH     H2  698   0.326   1.914   3.655
  165HOH      O  699   3.402   3.677   0.232
  165HOH     H1  700   3.448   3.669   0.315
  165HOH     H2  701   3.471   3.675   0.166
  166HOH      O  702   2.419   1.232   1.932
  166HOH     H1  703   2.328   1.204   1.921
  166HOH     H2  704   2.451   1.244   1.843
  167HOH      O  705   1.268   3.334   2.368
  167HOH     H1  706   1.358   3.303   2.361
  167HOH     H2  707   1.250   3.335   2.462
  168HOH      O  708   2.240   3.929   3.589
  168HOH     H1  709   2.291   3.853   3.619
  168HOH     H2  710   2.198   3.962   3.669
  169HOH      O  711   2.299   3.450   3.784
  169HOH     H1  712   2.343   3.437   3.868
  169HOH     H2  713   2.345   3.524   3.744
  170HOH      O  714   0.998   1.991   1.841
  170HOH     H1  715   1.003   1.905   1.881
  170HOH     H2  716   0.917   1.990   1.791
  171HOH      O  717   2.329   1.998   0.398
  171HOH     H1  718   2.333   1.972   0.490
  171HOH     H2  719   2.359   1.921   0.349
  172HOH      O  720   2.335   0.038   1.630
  172HOH     H1  721   2.361   0.102   1.696
  172HOH     H2  722   2.243   0.056   1.613
  173HOH      O  723   3.206   0.877   2.891
  173HOH     H1  724   3.147   0.929   2.836
  173HOH     H2  725   3.287   0.871   2.841
  174HOH      O  726   0.217   1.086   1.346
  174HOH     H1  727   0.163   1.151   1.391
  174HOH     H2  728   0.290   1.068   1.406
  175HOH      O  729   2.096   2.615   0.623
  175HOH     H1  730   2.064   2.661   0.701
  175HOH     H2  731   2.190   2.630   0.623
  176HOH      O  732   1.340   1.583   1.659
  176HOH     H1  733   1.387   1.582   1.575
  176HOH     H2  734   1.252   1.554   1.638
  177HOH      O  735   1.964   2.472   1.139
  177HOH     H1  736   2.044   2.423   1.118
  177HOH     H2  737   1.905   2.453   1.067
  178HOH      O  738   0.262   2.917   2.663
  178HOH     H1  739   0.346   2.920   2.616
  178HOH     H2  740   0.197   2.895   2.596
  179HOH      O  741   1.503   1.981   2.006
  179HOH     H1  742   1.571   2.048   1.994
  179HOH     H2  743   1.515   1.921   1.932
  180HOH      O  744   2.771   0.225   2.415
  180HOH     H1  745   2.799   0.196   2.328
  180HOH     H2  746   2.852   0.231   2.466
  181HOH      O  747   2.575   3.265   0.222
  181HOH     H1  748   2.617   3.182   0.239
  181HOH     H2  749   2.624   3.328   0.275
  182HOH      O  750   2.033   0.155   1.974
  182HOH     H1  751   2.070   0.132   2.060
  182HOH     H2  752   2.052   0.248   1.964
  183HOH      O  753   1.266   0.072   2.812
  183HOH     H1  754   1.200   0.002   2.819
  183HOH     H2  755   1.261   0.118   2.895
  184HOH      O  756   2.699   3.889   3.327
  184HOH     H1  757   2.644   3.811   3.340
  184HOH     H2  758   2.718   3.889   3.233
  185HOH      O  759   1.165   0.800   2.067
  185HOH     H1  760   1.084   0.848   2.052
  185HOH     H2  761   1.206   0.845   2.142
  186HOH      O  762   2.449   3.765   1.181
  186HOH     H1  763   2.365   3.758   1.226
  186HOH     H2  764   2.498   3.830   1.232
  187HOH      O  765   0.431   3.282   1.153
  187HOH     H1  766   0.496   3.253   1.217
  187HOH     H2  767   0.483   3.312   1.078
  188HOH      O  768   0.455   0.290   1.986
  188HOH     H1  769   0.404   0.310   1.907
  188HOH     H2  770   0.518   0.224   1.957
  189HOH      O  771   2.175   1.717   0.205
  189HOH     H1  772   2.199   1.716   0.112
  189HOH     H2  773   2.080   1.709   0.205
  190HOH      O  774   0.585   0.001   3.272
  190HOH     H1  775   0.555   0.033   3.357
  190HOH     H2  776   0.507   0.003   3.217
  191HOH      O  777   3.965   0.025   3.372
  191HOH     H1  778   3.988  -0.066   3.355
  191HOH     H2  779   4.042   0.062   3.416
  192HOH      O  780   1.379   0.284   3.481
  192HOH     H1  781   1.453   0.226   3.501
  192HOH     H2  782   1.377   0.347   3.553
  193HOH      O  783   2.565   1.414  -0.004
  193HOH     H1  784   2.493   1.366   0.037
  193HOH     H2  785   2.543   1.506   0.011
  194HOH      O  786   3.609   3.397   3.143
  194HOH     H1  787   3.615   3.464   3.074
  194HOH     H2  788   3.593   3.316   3.097
  195HOH      O  789   0.932   3.842   3.120
  195HOH     H1  790   1.023   3.814   3.127
  195HOH     H2  791   0.929   3.927   3.162
  196HOH      O  792   1.021   1.475   2.529
  196HOH     H1  793   0.937   1.438   2.502
  196HOH     H2  794   1.028   1.454   2.622
  197HOH      O  795   2.047   1.972   0.272
  197HOH     H1  796   2.060   1.955   0.365
  197HOH     H2  797   2.117   1.923   0.229
  198HOH      O  798   1.367   0.548   0.281
  198HOH     H1  799   1.441   0.488   0.273
  198HOH     H2  800   1.351   0.579   0.192
  199HOH      O  801   2.032   1.404   3.854
  199HOH     H1  802   2.062   1.334   3.796
  199HOH     H2  803   2.098   1.473   3.845
  200HOH      O  804   0.593   2.940   0.244
  200HOH     H1  805   0.580   3.026   0.284
  200HOH     H2  806   0.630   2.958   0.158
  201HOH      O  807   1.145   3.676   3.432
  201HOH     H1  808   1.232   3.651   3.403
  201HOH     H2  809   1.091   3.668   3.353
  202HOH      O  810   2.433   0.316   3.421
  202HOH     H1  811   2.477   0.239   3.458
  202HOH     H2  812   2.486   0.338   3.344
  203HOH      O  813   2.099   2.021   1.434
  203HOH     H1  814   2.123   2.010   1.526
  203HOH     H2  815   2.174   1.988   1.385
  204HOH      O  816   2.812   1.027   3.412
  204HOH     H1  817   2.896   0.985   3.394
  204HOH     H2  818   2.747   0.968   3.376
  205HOH      O  819   1.380   1.979   3.129
  205HOH     H1  820   1.328   1.905   3.098
  205HOH     H2  821   1.317   2.050   3.141
  206HOH      O  822   4.015   0.726   1.123
  206HOH     H1  823   4.038   0.815   1.148
  206HOH     H2  824   3.934   0.735   1.073
  207HOH      O  825   3.562   0.669   1.818
  207HOH     H1  826   3.590   0.586   1.780
  207HOH     H2  827   3.588   0.664   1.910
  208HOH      O  828   1.617   3.592   2.545
  208HOH     H1  829   1.637   3.532   2.616
  208HOH     H2  830   1.677   3.568   2.475
  209HOH      O  831   1.864   2.653   0.466
  209HOH     H1  832   1.787   2.659   0.522
  209HOH     H2  833   1.937   2.637   0.526
  210HOH      O  834   1.908   1.638   0.476
  210HOH     H1  835   1.828   1.625   0.527
  210HOH     H2  836   1.877   1.652   0.386
  211HOH      O  837   1.532   0.109   0.402
  211HOH     H1  838   1.441   0.121   0.374
  211HOH     H2  839   1.538   0.017   0.426
  212HOH      O  840   3.817   0.528   2.680
  212HOH     H1  841   3.787   0.583   2.753
  212HOH     H2  842   3.783   0.573   2.602
  213HOH      O  843   2.544   2.332   1.358
  213HOH     H1  844   2.594   2.294   1.430
  213HOH     H2  845   2.547   2.426   1.374
  214HOH      O  846   0.622   3.531   0.081
  214HOH     H1  847   0.705   3.523   0.129
  214HOH     H2  848   0.561   3.476   0.130
  215HOH      O  849   0.625   3.048   2.885
  215HOH     H1  850   0.669   3.023   2.804
  215HOH     H2  851   0.597   3.139   2.869
  216HOH      O  852   2.669   3.857   1.527
  216HOH     H1  853   2.659   3.800   1.451
  216HOH     H2  854   2.583   3.857   1.569
  217HOH      O  855   1.593   2.745   0.593
  217HOH     H1  856   1.675   2.793   0.604
  217HOH     H2  857   1.532   2.790   0.652
  218HOH      O  858   0.036   3.785   3.365
  218HOH     H1  859  -0.028   3.714   3.375
  218HOH     H2  860   0.115   3.740   3.334
  219HOH      O  861   2.745   3.859   3.740
  219HOH     H1  862   2.797   3.908   3.676
  219HOH     H2  863   2.805   3.845   3.814
  220HOH      O  864   0.330   2.708   2.814
  220HOH     H1  865   0.298   2.791   2.780
  220HOH     H2  866   0.283   2.642   2.762
  221HOH      O  867   1.014   3.863   1.118
  221HOH     H1  868   1.032   3.897   1.205
  221HOH     H2  869   1.090   3.888   1.066
  222HOH      O  870   3.231   1.935   2.493
  222HOH     H1  871   3.275   1.998   2.550
  222HOH     H2  872   3.140   1.967   2.489
  223HOH      O  873   2.320   2.606   0.930
  223HOH     H1  874   2.300   2.519   0.962
  223HOH     H2  875   2.236   2.651   0.926
  224HOH      O  876   2.564   2.634   1.347
  224HOH     H1  877   2.473   2.640   1.377
  224HOH     H2  878   2.565   2.680   1.264
  225HOH      O  879   3.751   2.171   3.303
  225HOH     H1  880   3.772   2.264   3.311
  225HOH     H2  881   3.678   2.157   3.363
  226HOH      O  882   1.093   0.155   0.765
  226HOH     H1  883   1.014   0.168   0.819
  226HOH     H2  884   1.068   0.187   0.678
  227HOH      O  885   0.823   3.944   3.450
  227HOH     H1  886   0.851   3.882   3.383
  227HOH     H2  887   0.898   3.952   3.509
  228HOH      O  888   2.722   0.764   2.300
  228HOH     H1  889   2.657   0.800   2.361
  228HOH     H2  890   2.806   0.785   2.339
  229HOH      O  891   0.642   2.254   1.644
  229HOH     H1  892   0.699   2.179   1.662
  229HOH     H2  893   0.581   2.222   1.577
  230HOH      O  894   3.332   2.826   3.387
  230HOH     H1  895   3.331   2.890   3.315
  230HOH     H2  896   3.308   2.877   3.465
  231HOH      O  897   1.852   0.286   3.646
  231HOH     H1  898   1.786   0.318   3.707
  231HOH     H2  899   1.810   0.211   3.603
  232HOH      O  900   3.679  -0.025   0.634
  232HOH     H1  901   3.612   0.042   0.646
  232HOH     H2  902   3.745   0.016   0.579
  233HOH      O  903   1.969   1.578   1.916
  233HOH     H1  904   1.927   1.594   2.001
  233HOH     H2  905   1.964   1.483   1.906
  234HOH      O  906   3.276   1.106   2.061
  234HOH     H1  907   3.259   1.186   2.011
  234HOH     H2  908   3.372   1.101   2.066
  235HOH      O  909   0.102   2.433   3.527
  235HOH     H1  910   0.053   2.462   3.450
  235HOH     H2  911   0.189   2.411   3.493
  236HOH      O  912   1.159   1.243   1.816
  236HOH     H1  913   1.095   1.238   1.746
  236HOH     H2  914   1.238   1.202   1.780
  237HOH      O  915   3.364   1.442   2.113
  237HOH     H1  916   3.389   1.534   2.115
  237HOH     H2  917   3.359   1.420   2.020
  238HOH      O  918   0.243   1.811   0.054
  238HOH     H1  919   0.285   1.755  -0.011
  238HOH     H2  920   0.224   1.892   0.007
  239HOH      O  921   0.654   3.137   3.157
  239HOH     H1  922   0.661   3.084   3.078
  239HOH     H2  923   0.661   3.228   3.126
  240HOH      O  924   1.649   3.259   3.218
  240HOH     H1  925   1.643   3.183   3.276
  240HOH     H2  926   1.718   3.313   3.257
  241HOH      O  927   3.174   2.653   2.617
  241HOH     H1  928   3.090   2.607   2.616
  241HOH     H2  929   3.211   2.633   2.703
  242HOH      O  930   0.324   1.361   1.369
  242HOH     H1  931   0.395   1.306   1.402
  242HOH     H2  932   0.246   1.328   1.414
  243HOH      O  933   0.774   2.721   0.290
  243HOH     H1  934   0.713   2.787   0.258
  243HOH     H2  935   0.850   2.729   0.233
  244HOH      O  936   1.333   1.127   2.724
  244HOH     H1  937   1.378   1.134   2.808
  244HOH     H2  938   1.401   1.102   2.662
  245HOH      O  939   1.325   1.738   0.349
  245HOH     H1  940   1.258   1.673   0.328
  245HOH     H2  941   1.383   1.693   0.410
  246HOH      O  942   0.515   0.285   3.153
  246HOH     H1  943   0.557   0.256   3.234
  246HOH     H2  944   0.521   0.210   3.094
  247HOH      O  945   1.191   1.969   0.796
  247HOH     H1  946   1.231   2.008   0.719
  247HOH     H2  947   1.265   1.938   0.848
  248HOH      O  948   2.932   2.305   1.000
  248HOH     H1  949   2.839   2.304   0.979
  248HOH     H2  950   2.975   2.287   0.917
  249HOH      O  951   0.922   3.331   2.429
  249HOH     H1  952   0.953   3.418   2.455
  249HOH     H2  953   0.827   3.340   2.426
  250HOH      O  954   0.213   2.893   0.271
  250HOH     H1  955   0.253   2.943   0.200
  250HOH     H2  956   0.199   2.958   0.340
  251HOH      O  957   3.671   3.246   2.720
  251HOH     H1  958   3.685   3.200   2.637
  251HOH     H2  959   3.670   3.339   2.696
  252HOH      O  960   3.704   3.786   2.765
  252HOH     H1  961   3.671   3.847   2.831
  252HOH     H2  962   3.784   3.827   2.733
  253HOH      O  963   3.760   1.499   3.108
  253HOH     H1  964   3.730   1.560   3.040
  253HOH     H2  965   3.772   1.554   3.186
  254HOH      O  966   2.022   3.414   3.747
  254HOH     H1  967   1.986   3.395   3.834
  254HOH     H2  968   2.114   3.436   3.764
  255HOH      O  969   0.737   3.958   1.266
  255HOH     H1  970   0.810   4.019   1.279
  255HOH     H2  971   0.743   3.933   1.173
  256HOH      O  972   3.667   1.723   2.967
  256HOH     H1  973   3.644   1.814   2.953
  256HOH     H2  974   3.717   1.698   2.890
  257HOH      O  975   2.241   1.741   1.051
  257HOH     H1  976   2.200   1.738   1.138
  257HOH     H2  977   2.334   1.729   1.069
  258HOH      O  978   0.664   0.721   2.054
  258HOH     H1  979   0.725   0.738   1.982
  258HOH     H2  980   0.578   0.722   2.012
  259HOH      O  981   1.098   1.989   3.574
  259HOH     H1  982   1.162   2.008   3.505
  259HOH     H2  983   1.051   2.072   3.586
  260HOH      O  984   1.072   1.880   1.028
  260HOH     H1  985   1.124   1.923   0.960
  260HOH     H2  986   0.999   1.940   1.045
  261HOH      O  987   0.483   1.608   0.975
  261HOH     H1  988   0.524   1.695   0.979
  261HOH     H2  989   0.390   1.625   0.988
  262HOH      O  990   2.194   2.823   1.349
  262HOH     H1  991   2.266   2.787   1.297
  262HOH     H2  992   2.212   2.794   1.438
  263HOH      O  993   0.967   0.470   0.432
  263HOH     H1  994   0.948   0.563   0.421
  263HOH     H2  995   0.913   0.443   0.506
  264HOH      O  996   1.768   3.795   1.407
  264HOH     H1  997   1.698   3.730   1.414
  264HOH     H2  998   1.786   3.820   1.498
  265HOH      O  999   3.037   3.758   3.846
  265HOH     H1 1000   3.070   3.726   3.930
  265HOH     H2 1001   2.992   3.840   3.868
  266HOH      O 1002   1.552   3.012   3.659
  266HOH     H1 1003   1.548   2.916   3.661
  266HOH     H2 1004   1.533   3.038   3.749
  267HOH      O 1005   1.684   1.731   2.648
  267HOH     H1 1006   1.622   1.801   2.667
  267HOH     H2 1007   1.758   1.774   2.607
  268HOH      O 1008   3.168   0.777   3.925
  268HOH     H1 1009   3.117   0.696   3.921
  268HOH     H2 1010   3.107   0.842   3.959
  269HOH      O 1011   1.664   2.611   3.421
  269HOH     H1 1012   1.709   2.572   3.346
  269HOH     H2 1013   1.637   2.537   3.475
  270HOH      O 1014   1.356   3.494   0.823
  270HOH     H1 1015   1.429   3.432   0.824
  270HOH     H2 1016   1.278   3.438   0.822
  271HOH      O 1017   3.827   0.191   2.218
  271HOH     H1 1018   3.820   0.247   2.296
  271HOH     H2 1019   3.917   0.160   2.219
  272HOH      O 1020   0.135   0.985   3.604
  272HOH     H1 1021   0.141   0.898   3.644
  272HOH     H2 1022   0.074   0.973   3.531
  273HOH      O 1023   0.418   0.028   2.631
  273HOH     H1 1024   0.499   0.078   2.621
  273HOH     H2 1025   0.439  -0.040   2.694
  274HOH      O 1026   1.547   3.247   3.928
  274HOH     H1 1027   1.546   3.322   3.988
  274HOH     H2 1028   1.565   3.285   3.842
  275HOH      O 1029   0.354   2.331   3.399
  275HOH     H1 1030   0.318   2.246   3.373
  275HOH     H2 1031   0.359   2.381   3.317
  276HOH      O 1032   2.789   3.045   0.877
  276HOH     H1 1033   2.863   2.997   0.840
  276HOH     H2 1034   2.829   3.104   0.941
  277HOH      O 1035   0.760   1.235   2.142
  277HOH     H1 1036   0.743   1.197   2.056
  277HOH     H2 1037   0.802   1.164   2.192
  278HOH      O 1038   2.892   2.569   0.083
  278HOH     H1 1039   2.820   2.580   0.145
  278HOH     H2 1040   2.886   2.645   0.025
  279HOH      O 1041   2.948   0.796   1.996
  279HOH     H1 1042   3.000   0.859   1.945
  279HOH     H2 1043   2.860   0.802   1.959
  280HOH      O 1044   3.249   3.030   0.659
  280HOH     H1 1045   3.162   2.991   0.670
  280HOH     H2 1046   3.258   3.090   0.734
  281HOH      O 1047   1.515   0.533   1.345
  281HOH     H1 1048   1.509   0.629   1.340
  281HOH     H2 1049   1.604   0.514   1.313
  282HOH      O 1050   4.059   0.397   2.663
  282HOH     H1 1051   3.987   0.456   2.640
  282HOH     H2 1052   4.057   0.392   2.759
  283HOH      O 1053   3.977   3.307   4.045
  283HOH     H1 1054   4.022   3.274   3.967
  283HOH     H2 1055   3.906   3.246   4.061
  284HOH      O 1056   2.927   1.914   2.855
  284HOH     H1 1057   2.843   1.869   2.863
  284HOH     H2 1058   2.958   1.923   2.945
  285HOH      O 1059   4.043   3.146   3.040
  285HOH     H1 1060   3.959   3.111   3.010
  285HOH     H2 1061   4.019   3.214   3.103
  286HOH      O 1062   1.883   2.390   2.400
  286HOH     H1 1063   1.805   2.342   2.372
  286HOH     H2 1064   1.951   2.324   2.407
  287HOH      O 1065   1.088   2.883   0.504
  287HOH     H1 1066   1.068   2.796   0.538
  287HOH     H2 1067   1.042   2.943   0.563
  288HOH      O 1068   1.211   2.926   0.874
  288HOH     H1 1069   1.216   2.976   0.793
  288HOH     H2 1070   1.265   2.976   0.936
  289HOH      O 1071   1.576   2.435   3.850
  289HOH     H1 1072   1.574   2.529   3.869
  289HOH     H2 1073   1.638   2.427   3.777
  290HOH      O 1074   1.045   3.556   2.512
  290HOH     H1 1075   1.075   3.622   2.575
  290HOH     H2 1076   1.123   3.503   2.495
  291HOH      O 1077   2.211   4.001   0.442
  291HOH     H1 1078   2.215   3.982   0.536
  291HOH     H2 1079   2.303   3.998   0.413
  292HOH      O 1080   0.230   3.099   2.876
  292HOH     H1 1081   0.227   3.029   2.810
  292HOH     H2 1082   0.146   3.093   2.921
  293HOH      O 1083   1.614   3.887   2.557
  293HOH     H1 1084   1.683   3.928   2.504
  293HOH     H2 1085   1.620   3.794   2.534
  294HOH      O 1086   2.473   0.100   0.790
  294HOH     H1 1087   2.515   0.072   0.872
  294HOH     H2 1088   2.516   0.182   0.768
  295HOH      O 1089   3.570   1.036   3.176
  295HOH     H1 1090   3.576   1.131   3.180
  295HOH     H2 1091   3.522   1.018   3.095
  296HOH      O 1092   1.858   0.426   0.078
  296HOH     H1 1093   1.896   0.458  -0.003
  296HOH     H2 1094   1.931   0.424   0.140
  297HOH      O 1095   1.558   0.072   3.557
  297HOH     H1 1096   1.563   0.034   3.645
  297HOH     H2 1097   1.649   0.080   3.530
  298HOH      O 1098   2.674   3.570   2.337
  298HOH     H1 1099   2.662   3.523   2.420
  298HOH     H2 1100   2.708   3.504   2.277
  299HOH      O 1101   1.214   3.644   3.034
  299HOH     H1 1102   1.193   3.660   2.942
  299HOH     H2 1103   1.204   3.549   3.044
  300HOH      O 1104   0.389   0.805   1.170
  300HOH     H1 1105   0.473   0.801   1.214
  300HOH     H2 1106   0.411   0.813   1.077
  301HOH      O 1107   0.595   1.470   2.927
  301HOH     H1 1108   0.570   1.437   3.013
  301HOH     H2 1109   0.636   1.395   2.884
  302HOH      O 1110   1.524   1.139   3.368
  302HOH     H1 1111   1.567   1.212   3.325
  302HOH     H2 1112   1.509   1.169   3.457
  303HOH      O 1113   2.048   2.949   0.560
  303HOH     H1 1114   2.079   2.891   0.491
  303HOH     H2 1115   2.128   2.987   0.597
  304HOH      O 1116   0.962   0.377   3.649
  304HOH     H1 1117   0.901   0.449   3.633
  304HOH     H2 1118   0.911   0.298   3.630
  305HOH      O 1119   3.768   0.980   3.645
  305HOH     H1 1120   3.779   0.894   3.604
  305HOH     H2 1121   3.774   1.042   3.572
  306HOH      O 1122   3.889   0.914   0.799
  306HOH     H1 1123   3.862   0.851   0.865
  306HOH     H2 1124   3.869   0.872   0.716
  307HOH      O 1125   0.997   2.016   2.641
  307HOH     H1 1126   0.922   2.075   2.646
  307HOH     H2 1127   0.976   1.955   2.571
  308HOH      O 1128   1.990   3.630   1.678
  308HOH     H1 1129   1.974   3.538   1.698
  308HOH     H2 1130   1.915   3.677   1.715
  309HOH      O 1131   1.621   2.138   0.187
  309HOH     H1 1132   1.694   2.079   0.207
  309HOH     H2 1133   1.586   2.107   0.104
  310HOH      O 1134   3.847   1.075   3.057
  310HOH     H1 1135   3.778   1.064   3.123
  310HOH     H2 1136   3.799   1.084   2.974
  311HOH      O 1137   3.659   2.104   2.551
  311HOH     H1 1138   3.643   2.093   2.457
  311HOH     H2 1139   3.572   2.093   2.591
  312HOH      O 1140   3.524   0.548   3.980
  312HOH     H1 1141   3.608   0.592   3.975
  312HOH     H2 1142   3.545   0.455   3.988
  313HOH      O 1143   0.401   1.386   2.645
  313HOH     H1 1144   0.453   1.462   2.618
  313HOH     H2 1145   0.347   1.365   2.569
  314HOH      O 1146   4.032   2.175   2.351
  314HOH     H1 1147   4.026   2.104   2.415
  314HOH     H2 1148   4.047   2.130   2.267
  315HOH      O 1149   0.324   2.664   0.495
  315HOH     H1 1150   0.366   2.628   0.417
  315HOH     H2 1151   0.230   2.648   0.482
  316HOH      O 1152   1.167   2.581   1.712
  316HOH     H1 1153   1.217   2.552   1.635
  316HOH     H2 1154   1.110   2.650   1.678
  317HOH      O 1155   2.168   0.932   0.072
  317HOH     H1 1156   2.110   0.856   0.080
  317HOH     H2 1157   2.135   0.993   0.138
  318HOH      O 1158   0.566   1.115   3.208
  318HOH     H1 1159   0.509   1.049   3.168
  318HOH     H2 1160   0.536   1.120   3.299
  319HOH      O 1161   1.860   1.637   0.186
  319HOH     H1 1162   1.802   1.562   0.176
  319HOH     H2 1163   1.913   1.637   0.106
  320HOH      O 1164   0.726   2.904   4.040
  320HOH     H1 1165   0.807   2.878   3.996
  320HOH     H2 1166   0.692   2.975   3.987
  321HOH      O 1167   1.171   1.404   2.764
  321HOH     H1 1168   1.179   1.444   2.850
  321HOH     H2 1169   1.223   1.324   2.770
  322HOH      O 1170   2.373   1.416   1.266
  322HOH     H1 1171   2.341   1.419   1.176
  322HOH     H2 1172   2.320   1.480   1.314
  323HOH      O 1173   3.034   3.437   1.069
  323HOH     H1 1174   3.071   3.510   1.117
  323HOH     H2 1175   3.026   3.367   1.134
  324HOH      O 1176   3.120   3.839   1.884
  324HOH     H1 1177   3.031   3.870   1.894
  324HOH     H2 1178   3.151   3.824   1.973
  325HOH      O 1179   2.409   3.808   1.672
  325HOH     H1 1180   2.347   3.740   1.646
  325HOH     H2 1181   2.375   3.888   1.633
  326HOH      O 1182   1.806   2.472   3.689
  326HOH     H1 1183   1.787   2.540   3.754
  326HOH     H2 1184   1.849   2.519   3.617
  327HOH      O 1185   4.006   1.347   3.530
  327HOH     H1 1186   4.088   1.397   3.525
  327HOH     H2 1187   4.011   1.301   3.614
  328HOH      O 1188   3.755   3.089   3.448
  328HOH     H1 1189   3.790   3.093   3.537
  328HOH     H2 1190   3.665   3.058   3.459
  329HOH      O 1191   1.236   3.755   2.197
  329HOH     H1 1192   1.246   3.850   2.205
  329HOH     H2 1193   1.278   3.720   2.276
  330HOH      O 1194   2.217   1.976   2.328
  330HOH     H1 1195   2.150   1.928   2.376
  330HOH     H2 1196   2.205   1.950   2.237
  331HOH      O 1197   3.999   0.451   3.429
  331HOH     H1 1198   4.045   0.522   3.474
  331HOH     H2 1199   3.976   0.487   3.344
  332HOH      O 1200   3.172   0.234   1.434
  332HOH     H1 1201   3.217   0.251   1.351
  332HOH     H2 1202   3.150   0.321   1.468
  333HOH      O 1203   3.238   3.209   3.033
  333HOH     H1 1204   3.195   3.162   2.962
  333HOH     H2 1205   3.171   3.267   3.068
  334HOH      O 1206   3.865   1.404   2.381
  334HOH     H1 1207   3.840   1.495   2.364
  334HOH     H2 1208   3.959   1.409   2.399
  335HOH      O 1209   4.021   0.218   1.216
  335HOH     H1 1210   3.934   0.180   1.210
  335HOH     H2 1211   4.007   0.313   1.207
  336HOH      O 1212   0.524   1.714   3.774
  336HOH     H1 1213   0.584   1.743   3.705
  336HOH     H2 1214   0.578   1.662   3.833
  337HOH      O 1215   1.893   2.912   1.357
  337HOH     H1 1216   1.967   2.902   1.297
  337HOH     H2 1217   1.842   2.832   1.345
  338HOH      O 1218   3.063   1.412   3.001
  338HOH     H1 1219   3.143   1.423   2.950
  338HOH     H2 1220   3.079   1.336   3.057
  339HOH      O 1221   1.734   2.023   3.890
  339HOH     H1 1222   1.793   2.036   3.816
  339HOH     H2 1223   1.785   2.048   3.967
  340HOH      O 1224   0.245   3.437   1.524
  340HOH     H1 1225   0.294   3.477   1.453
  340HOH     H2 1226   0.302   3.447   1.601
  341HOH      O 1227   1.085   2.209   1.370
  341HOH     H1 1228   1.029   2.136   1.394
  341HOH     H2 1229   1.036   2.256   1.302
  342HOH      O 1230   0.838   3.187   3.782
  342HOH     H1 1231   0.890   3.106   3.774
  342HOH     H2 1232   0.835   3.221   3.692
  343HOH      O 1233   1.487   1.177   0.732
  343HOH     H1 1234   1.447   1.115   0.671
  343HOH     H2 1235   1.457   1.263   0.701
  344HOH      O 1236   2.912   2.408   3.382
  344HOH     H1 1237   2.876   2.354   3.312
  344HOH     H2 1238   2.835   2.444   3.427
  345HOH      O 1239   3.471   2.888   0.159
  345HOH     H1 1240   3.479   2.960   0.221
  345HOH     H2 1241   3.385   2.900   0.119
  346HOH      O 1242   2.524   0.288   0.421
  346HOH     H1 1243   2.514   0.360   0.360
  346HOH     H2 1244   2.443   0.287   0.472
  347HOH      O 1245   1.379   0.917   3.564
  347HOH     H1 1246   1.438   0.969   3.508
  347HOH     H2 1247   1.348   0.847   3.507
  348HOH      O 1248   0.561   2.690   3.424
  348HOH     H1 1249   0.603   2.776   3.423
  348HOH     H2 1250   0.468   2.710   3.414
  349HOH      O 1251   1.698   1.463   2.703
  349HOH     H1 1252   1.794   1.459   2.705
  349HOH     H2 1253   1.678   1.555   2.690
  350HOH      O 1254   2.483   1.928   2.185
  350HOH     H1 1255   2.506   1.999   2.124
  350HOH     H2 1256   2.409   1.884   2.143
  351HOH      O 1257   0.139   1.149   0.332
  351HOH     H1 1258   0.081   1.110   0.397
  351HOH     H2 1259   0.185   1.218   0.380
  352HOH      O 1260   2.701   3.104   1.240
  352HOH     H1 1261   2.620   3.080   1.195
  352HOH     H2 1262   2.675   3.114   1.332
  353HOH      O 1263   2.826   0.134   3.152
  353HOH     H1 1264   2.806   0.049   3.114
  353HOH     H2 1265   2.860   0.185   3.079
  354HOH      O 1266   1.741   2.923   2.580
  354HOH     H1 1267   1.787   3.000   2.613
  354HOH     H2 1268   1.705   2.882   2.659
  355HOH      O 1269   2.047   2.298   1.551
  355HOH     H1 1270   1.998   2.298   1.468
  355HOH     H2 1271   2.139   2.294   1.525
  356HOH      O 1272   3.800   1.190   3.838
  356HOH     H1 1273   3.751   1.255   3.787
  356HOH     H2 1274   3.796   1.110   3.786
  357HOH      O 1275   0.267   3.543   3.536
  357HOH     H1 1276   0.202   3.499   3.481
  357HOH     H2 1277   0.216   3.574   3.611
  358HOH      O 1278   1.510   2.200   3.943
  358HOH     H1 1279   1.517   2.146   3.864
  358HOH     H2 1280   1.549   2.284   3.918
  359HOH      O 1281   1.479   3.507   0.293
  359HOH     H1 1282   1.473   3.445   0.365
  359HOH     H2 1283   1.430   3.584   0.323
  360HOH      O 1284   3.156   3.554   2.386
  360HOH     H1 1285   3.216   3.560   2.461
  360HOH     H2 1286   3.074   3.591   2.418
  361HOH      O 1287   0.431   2.992   1.486
  361HOH     H1 1288   0.343   2.977   1.451
  361HOH     H2 1289   0.489   2.944   1.427
  362HOH      O 1290   0.901   2.187   0.357
  362HOH     H1 1291   0.995   2.205   0.358
  362HOH     H2 1292   0.894   2.092   0.367
  363HOH      O 1293   3.559   2.119   0.426
  363HOH     H1 1294   3.590   2.058   0.493
  363HOH     H2 1295   3.466   2.097   0.414
  364HOH      O 1296   1.734   1.413   0.123
  364HOH     H1 1297   1.703   1.340   0.178
  364HOH     H2 1298   1.663   1.427   0.060
  365HOH      O 1299   2.121   1.620   2.770
  365HOH     H1 1300   2.140   1.712   2.787
  365HOH     H2 1301   2.167   1.601   2.688
  366HOH      O 1302   3.046   2.412   3.021
  366HOH     H1 1303   3.120   2.418   3.082
  366HOH     H2 1304   3.030   2.502   2.994
  367HOH      O 1305   2.829   1.892   1.285
  367HOH     H1 1306   2.812   1.809   1.239
  367HOH     H2 1307   2.889   1.939   1.227
  368HOH      O 1308   0.913   3.584   3.586
  368HOH     H1 1309   0.932   3.581   3.493
  368HOH     H2 1310   0.996   3.608   3.627
  369HOH      O 1311   1.719   2.729   1.254
  369HOH     H1 1312   1.635   2.687   1.272
  369HOH     H2 1313   1.729   2.723   1.159
  370HOH      O 1314   1.005   1.160   1.422
  370HOH     H1 1315   0.971   1.078   1.386
  370HOH     H2 1316   1.099   1.155   1.408
  371HOH      O 1317   3.613   2.246   3.873
  371HOH     H1 1318   3.704   2.237   3.903
  371HOH     H2 1319   3.588   2.158   3.846
  372HOH      O 1320   3.669   0.515   2.118
  372HOH     H1 1321   3.734   0.551   2.058
  372HOH     H2 1322   3.721   0.487   2.194
  373HOH      O 1323   2.098   0.063   1.401
  373HOH     H1 1324   2.006   0.080   1.421
  373HOH     H2 1325   2.112  -0.029   1.424
  374HOH      O 1326   0.694   2.979   3.396
  374HOH     H1 1327   0.775   2.953   3.352
  374HOH     H2 1328   0.677   3.068   3.365
  375HOH      O 1329   2.453   2.056   1.567
  375HOH     H1 1330   2.468   2.047   1.661
  375HOH     H2 1331   2.378   2.116   1.560
  376HOH      O 1332   0.584   1.386   3.551
  376HOH     H1 1333   0.621   1.404   3.638
  376HOH     H2 1334   0.640   1.434   3.491
  377HOH      O 1335   3.008   0.803   3.048
  377HOH     H1 1336   2.966   0.779   2.966
  377HOH     H2 1337   3.093   0.839   3.022
  378HOH      O 1338   3.179   0.287   0.274
  378HOH     H1 1339   3.143   0.237   0.348
  378HOH     H2 1340   3.121   0.363   0.267
  379HOH      O 1341   3.333   2.013   3.841
  379HOH     H1 1342   3.241   2.038   3.831
  379HOH     H2 1343   3.332   1.917   3.838
  380HOH      O 1344   2.351   3.926   0.668
  380HOH     H1 1345   2.341   3.888   0.755
  380HOH     H2 1346   2.387   4.013   0.684
  381HOH      O 1347   2.709   2.069   2.349
  381HOH     H1 1348   2.623   2.027   2.341
  381HOH     H2 1349   2.763   2.026   2.282
  382HOH      O 1350   3.298   0.847   1.948
  382HOH     H1 1351   3.291   0.932   1.991
  382HOH     H2 1352   3.354   0.796   2.007
  383HOH      O 1353   3.098   1.060   2.241
  383HOH     H1 1354   3.090   0.967   2.263
  383HOH     H2 1355   3.170   1.063   2.177
  384HOH      O 1356   0.642   0.906   1.249
  384HOH     H1 1357   0.731   0.941   1.241
  384HOH     H2 1358   0.591   0.978   1.283
  385HOH      O 1359   1.011   0.495   1.837
  385HOH     H1 1360   1.066   0.492   1.758
  385HOH     H2 1361   0.923   0.510   1.804
  386HOH      O 1362   0.778   1.343   1.452
  386HOH     H1 1363   0.781   1.432   1.487
  386HOH     H2 1364   0.829   1.348   1.371
  387HOH      O 1365   3.732   2.511   2.138
  387HOH     H1 1366   3.755   2.461   2.060
  387HOH     H2 1367   3.769   2.461   2.211
  388HOH      O 1368   3.764   0.616   0.012
  388HOH     H1 1369   3.795   0.544   0.067
  388HOH     H2 1370   3.842   0.648  -0.032
  389HOH      O 1371   2.458   1.655   1.717
  389HOH     H1 1372   2.516   1.599   1.768
  389HOH     H2 1373   2.496   1.656   1.629
  390HOH      O 1374   3.001   1.147   1.445
  390HOH     H1 1375   2.907   1.162   1.447
  390HOH     H2 1376   3.038   1.230   1.416
  391HOH      O 1377   2.952   3.058   3.503
  391HOH     H1 1378   2.913   3.140   3.534
  391HOH     H2 1379   2.920   3.049   3.413
  392HOH      O 1380   0.884   1.342   3.122
  392HOH     H1 1381   0.965   1.309   3.161
  392HOH     H2 1382   0.866   1.283   3.049
  393HOH      O 1383   2.915   2.556   0.871
  393HOH     H1 1384   2.870   2.620   0.925
  393HOH     H2 1385   2.958   2.498   0.934
  394HOH      O 1386   2.531   3.240   3.892
  394HOH     H1 1387   2.606   3.296   3.912
  394HOH     H2 1388   2.485   3.231   3.975
  395HOH      O 1389   0.534   0.562   4.047
  395HOH     H1 1390   0.605   0.605   3.998
  395HOH     H2 1391   0.454   0.598   4.009
  396HOH      O 1392   0.436   0.689   1.892
  396HOH     H1 1393   0.425   0.655   1.803
  396HOH     H2 1394   0.397   0.777   1.889
  397HOH      O 1395   2.899   0.634   2.627
  397HOH     H1 1396   2.945   0.680   2.556
  397HOH     H2 1397   2.892   0.698   2.697
  398HOH      O 1398   2.459   0.589   1.654
  398HOH     H1 1399   2.457   0.511   1.599
  398HOH     H2 1400   2.550   0.619   1.650
  399HOH      O 1401   3.066   1.671   2.819
  399HOH     H1 1402   3.149   1.664   2.866
  399HOH     H2 1403   3.040   1.762   2.828
  400HOH      O 1404   0.000   2.574   3.315
  400HOH     H1 1405   0.034   2.591   3.227
  400HOH     H2 1406   0.010   2.658   3.361
  401HOH      O 1407   2.900   1.467   0.604
  401HOH     H1 1408   2.925   1.434   0.518
  401HOH     H2 1409   2.936   1.556   0.606
  402HOH      O 1410   1.970   4.016   3.175
  402HOH     H1 1411   2.060   4.048   3.173
  402HOH     H2 1412   1.979   3.920   3.172
  403HOH      O 1413   3.802   3.926   0.907
  403HOH     H1 1414   3.759   3.929   0.821
  403HOH     H2 1415   3.881   3.873   0.892
  404HOH      O 1416   1.562   1.099   2.344
  404HOH     H1 1417   1.544   1.179   2.393
  404HOH     H2 1418   1.478   1.073   2.308
  405HOH      O 1419   1.956   0.668   1.986
  405HOH     H1 1420   1.995   0.582   1.970
  405HOH     H2 1421   1.872   0.648   2.027
  406HOH      O 1422   1.540   3.700   2.793
  406HOH     H1 1423   1.549   3.725   2.701
  406HOH     H2 1424   1.618   3.736   2.836
  407HOH      O 1425   2.496   2.139   2.020
  407HOH     H1 1426   2.506   2.084   1.942
  407HOH     H2 1427   2.496   2.228   1.986
  408HOH      O 1428   2.188   2.206   0.797
  408HOH     H1 1429   2.262   2.146   0.810
  408HOH     H2 1430   2.182   2.217   0.702
  409HOH      O 1431   0.636   2.299   2.908
  409HOH     H1 1432   0.545   2.284   2.883
  409HOH     H2 1433   0.667   2.214   2.938
  410HOH      O 1434   3.239   3.770   2.889
  410HOH     H1 1435   3.220   3.801   2.800
  410HOH     H2 1436   3.248   3.676   2.881
  411HOH      O 1437   3.804   3.331   2.422
  411HOH     H1 1438   3.804   3.263   2.354
  411HOH     H2 1439   3.865   3.297   2.489
  412HOH      O 1440   2.411   2.035   2.503
  412HOH     H1 1441   2.329   2.046   2.551
  412HOH     H2 1442   2.385   1.998   2.419
  413HOH      O 1443   0.372   2.827   3.690
  413HOH     H1 1444   0.349   2.882   3.615
  413HOH     H2 1445   0.291   2.783   3.714
  414HOH      O 1446   2.264   3.077   1.278
  414HOH     H1 1447   2.228   2.989   1.289
  414HOH     H2 1448   2.217   3.131   1.342
  415HOH      O 1449   1.355   0.795   0.849
  415HOH     H1 1450   1.302   0.758   0.920
  415HOH     H2 1451   1.395   0.719   0.807
  416HOH      O 1452   3.721   1.249   1.500
  416HOH     H1 1453   3.671   1.255   1.581
  416HOH     H2 1454   3.809   1.222   1.527
  417HOH      O 1455   3.016   2.677   0.487
  417HOH     H1 1456   3.022   2.585   0.458
  417HOH     H2 1457   3.106   2.703   0.503
  418HOH      O 1458   3.646   1.417   3.730
  418HOH     H1 1459   3.672   1.452   3.816
  418HOH     H2 1460   3.670   1.486   3.668
  419HOH      O 1461   4.020   3.765   2.301
  419HOH     H1 1462   4.102   3.785   2.256
  419HOH     H2 1463   3.953   3.773   2.234
  420HOH      O 1464   3.157   0.585   0.696
  420HOH     H1 1465   3.096   0.659   0.700
  420HOH     H2 1466   3.105   0.512   0.664
  421HOH      O 1467   0.549   2.444   1.830
  421HOH     H1 1468   0.517   2.391   1.903
  421HOH     H2 1469   0.577   2.381   1.765
  422HOH      O 1470   2.999   3.913   2.382
  422HOH     H1 1471   2.998   3.940   2.290
  422HOH     H2 1472   2.946   3.834   2.384
  423HOH      O 1473   3.500   0.998   3.782
  423HOH     H1 1474   3.422   1.019   3.732
  423HOH     H2 1475   3.568   0.984   3.717
  424HOH      O 1476   1.665   1.675   1.006
  424HOH     H1 1477   1.628   1.762   0.994
  424HOH     H2 1478   1.741   1.673   0.947
  425HOH      O 1479   0.082   0.798   0.510
  425HOH     H1 1480   0.044   0.884   0.528
  425HOH     H2 1481   0.022   0.758   0.447
  426HOH      O 1482   0.780   2.256   2.633
  426HOH     H1 1483   0.717   2.248   2.705
  426HOH     H2 1484   0.817   2.343   2.643
  427HOH      O 1485   0.461   3.463   0.302
  427HOH     H1 1486   0.374   3.421   0.300
  427HOH     H2 1487   0.447   3.544   0.350
  428HOH      O 1488   2.168   3.344   2.004
  428HOH     H1 1489   2.099   3.404   2.032
  428HOH     H2 1490   2.128   3.257   2.011
  429HOH      O 1491   0.662   3.394   2.456
  429HOH     H1 1492   0.659   3.395   2.360
  429HOH     H2 1493   0.596   3.330   2.481
  430HOH      O 1494   2.942   0.262   2.952
  430HOH     H1 1495   3.015   0.219   2.908
  430HOH     H2 1496   2.921   0.337   2.896
  431HOH      O 1497   2.270   0.787   3.693
  431HOH     H1 1498   2.337   0.810   3.629
  431HOH     H2 1499   2.248   0.871   3.735
  432HOH      O 1500   2.598   3.166   1.483
  432HOH     H1 1501   2.640   3.161   1.569
  432HOH     H2 1502   2.509   3.194   1.501
  433HOH      O 1503   0.835   3.415   1.260
  433HOH     H1 1504   0.824   3.371   1.345
  433HOH     H2 1505   0.891   3.490   1.280
  434HOH      O 1506   1.859   3.738   1.967
  434HOH     H1 1507   1.820   3.674   1.908
  434HOH     H2 1508   1.933   3.692   2.007
  435HOH      O 1509   0.584   0.077   1.901
  435HOH     H1 1510   0.535   0.059   1.821
  435HOH     H2 1511   0.571  -0.001   1.955
  436HOH      O 1512   0.595   2.369   0.038
  436HOH     H1 1513   0.517   2.410  -0.001
  436HOH     H2 1514   0.623   2.305  -0.028
  437HOH      O 1515   2.199   0.716   1.423
  437HOH     H1 1516   2.108   0.746   1.423
  437HOH     H2 1517   2.239   0.763   1.496
  438HOH      O 1518   2.513   0.698   2.916
  438HOH     H1 1519   2.449   0.640   2.873
  438HOH     H2 1520   2.482   0.705   3.006
  439HOH      O 1521   3.400   3.396   0.541
  439HOH     H1 1522   3.334   3.454   0.503
  439HOH     H2 1523   3.386   3.312   0.498
  440HOH      O 1524   3.206   0.985   1.101
  440HOH     H1 1525   3.224   1.000   1.194
  440HOH     H2 1526   3.131   0.926   1.101
  441HOH      O 1527   0.654   1.739   2.051
  441HOH     H1 1528   0.595   1.809   2.023
  441HOH     H2 1529   0.622   1.661   2.006
  442HOH      O 1530   2.527   2.838   3.718
  442HOH     H1 1531   2.569   2.847   3.804
  442HOH     H2 1532   2.466   2.912   3.714
  443HOH      O 1533   1.175   1.785   3.088
  443HOH     H1 1534   1.104   1.777   3.025
  443HOH     H2 1535   1.131   1.796   3.173
  444HOH      O 1536   2.311   1.336   2.393
  444HOH     H1 1537   2.228   1.321   2.348
  444HOH     H2 1538   2.354   1.250   2.391
  445HOH      O 1539   0.638   3.452   3.323
  445HOH     H1 1540   0.617   3.544   3.308
  445HOH     H2 1541   0.645   3.414   3.236
  446HOH      O 1542   1.455   1.313   1.349
  446HOH     H1 1543   1.538   1.291   1.307
  446HOH     H2 1544   1.432   1.399   1.314
  447HOH      O 1545   3.938  -0.008   1.649
  447HOH     H1 1546   4.008  -0.029   1.711
  447HOH     H2 1547   3.976   0.059   1.593
  448HOH      O 1548   3.417   3.371   1.253
  448HOH     H1 1549   3.386   3.361   1.163
  448HOH     H2 1550   3.450   3.461   1.257
  449HOH      O 1551   1.416   3.744   1.916
  449HOH     H1 1552   1.338   3.691   1.900
  449HOH     H2 1553   1.381   3.834   1.924
  450HOH      O 1554   0.272   0.097   1.077
  450HOH     H1 1555   0.363   0.102   1.047
  450HOH     H2 1556   0.222   0.073   0.999
  451HOH      O 1557   0.464   3.288   3.486
  451HOH     H1 1558   0.525   3.335   3.430
  451HOH     H2 1559   0.439   3.351   3.553
  452HOH      O 1560   1.135   1.460   1.292
  452HOH     H1 1561   1.172   1.515   1.223
  452HOH     H2 1562   1.118   1.376   1.249
  453HOH      O 1563   1.635   3.089   0.104
  453HOH     H1 1564   1.604   3.034   0.032
  453HOH     H2 1565   1.592   3.173   0.091
  454HOH      O 1566   0.175   0.550   2.117
  454HOH     H1 1567   0.199   0.571   2.026
  454HOH     H2 1568   0.245   0.492   2.147
  455HOH      O 1569   3.000   2.897   2.171
  455HOH     H1 1570   3.041   2.811   2.163
  455HOH     H2 1571   3.070   2.954   2.203
  456HOH      O 1572   1.931   0.956   3.550
  456HOH     H1 1573   1.988   0.903   3.494
  456HOH     H2 1574   1.842   0.931   3.525
  457HOH      O 1575   3.200   3.473   1.976
  457HOH     H1 1576   3.115   3.479   1.933
  457HOH     H2 1577   3.208   3.556   2.024
  458HOH      O 1578   0.319   1.815   1.618
  458HOH     H1 1579   0.302   1.763   1.539
  458HOH     H2 1580   0.361   1.895   1.585
  459HOH      O 1581   3.310   3.161   1.687
  459HOH     H1 1582   3.356   3.205   1.615
  459HOH     H2 1583   3.275   3.081   1.648
  460HOH      O 1584   2.370   0.185   2.630
  460HOH     H1 1585   2.306   0.145   2.571
  460HOH     H2 1586   2.432   0.228   2.572
  461HOH      O 1587   2.269   0.489   0.765
  461HOH     H1 1588   2.173   0.484   0.770
  461HOH     H2 1589   2.288   0.582   0.766
  462HOH      O 1590   1.653   1.049   1.278
  462HOH     H1 1591   1.657   0.959   1.311
  462HOH     H2 1592   1.620   1.042   1.189
  463HOH      O 1593   0.950   3.058   2.847
  463HOH     H1 1594   0.977   2.980   2.798
  463HOH     H2 1595   0.865   3.036   2.884
  464HOH      O 1596   0.452   2.884   3.058
  464HOH     H1 1597   0.469   2.947   2.988
  464HOH     H2 1598   0.458   2.799   3.015
  465HOH      O 1599   3.380   1.630   0.476
  465HOH     H1 1600   3.377   1.537   0.499
  465HOH     H2 1601   3.434   1.634   0.397
  466HOH      O 1602   1.247   2.219   1.089
  466HOH     H1 1603   1.204   2.230   1.004
  466HOH     H2 1604   1.175   2.223   1.152
  467HOH      O 1605   1.639   1.734   3.410
  467HOH     H1 1606   1.563   1.765   3.459
  467HOH     H2 1607   1.667   1.655   3.456
  468HOH      O 1608   1.191   3.599   1.853
  468HOH     H1 1609   1.104   3.633   1.872
  468HOH     H2 1610   1.189   3.509   1.885
  469HOH      O 1611   2.942   1.440   2.714
  469HOH     H1 1612   2.998   1.503   2.759
  469HOH     H2 1613   2.856   1.481   2.714
  470HOH      O 1614   1.256   1.028   1.659
  470HOH     H1 1615   1.291   1.108   1.620
  470HOH     H2 1616   1.167   1.021   1.624
  471HOH      O 1617   2.629   1.592   3.505
  471HOH     H1 1618   2.700   1.590   3.569
  471HOH     H2 1619   2.654   1.528   3.439
  472HOH      O 1620   2.117   3.960   0.114
  472HOH     H1 1621   2.212   3.967   0.123
  472HOH     H2 1622   2.092   3.890   0.174
  473HOH      O 1623   3.314   2.853   2.963
  473HOH     H1 1624   3.326   2.887   3.051
  473HOH     H2 1625   3.252   2.915   2.922
  474HOH      O 1626   0.512   3.872   3.923
  474HOH     H1 1627   0.452   3.843   3.854
  474HOH     H2 1628   0.464   3.941   3.969
  475HOH      O 1629   2.351   3.410   1.797
  475HOH     H1 1630   2.299   3.380   1.872
  475HOH     H2 1631   2.416   3.470   1.835
  476HOH      O 1632   2.751   2.459   2.824
  476HOH     H1 1633   2.797   2.462   2.741
  476HOH     H2 1634   2.820   2.452   2.890
  477HOH      O 1635   1.693   3.962   0.631
  477HOH     H1 1636   1.766   4.008   0.672
  477HOH     H2 1637   1.730   3.878   0.605
  478HOH      O 1638   3.543   4.021   2.676
  478HOH     H1 1639   3.608   4.085   2.647
  478HOH     H2 1640   3.582   3.982   2.755
  479HOH      O 1641   1.411   1.242   3.864
  479HOH     H1 1642   1.363   1.160   3.874
  479HOH     H2 1643   1.498   1.224   3.899
  480HOH      O 1644   1.349   1.457   3.280
  480HOH     H1 1645   1.443   1.468   3.291
  480HOH     H2 1646   1.337   1.439   3.187
  481HOH      O 1647   3.210   0.975   1.394
  481HOH     H1 1648   3.125   1.016   1.410
  481HOH     H2 1649   3.273   1.046   1.406
  482HOH      O 1650   1.203   0.637   2.930
  482HOH     H1 1651   1.149   0.701   2.977
  482HOH     H2 1652   1.140   0.578   2.888
  483HOH      O 1653   3.323   2.542   2.938
  483HOH     H1 1654   3.366   2.498   3.011
  483HOH     H2 1655   3.275   2.614   2.978
  484HOH      O 1656   1.151   1.478   1.941
  484HOH     H1 1657   1.147   1.387   1.912
  484HOH     H2 1658   1.208   1.521   1.877
  485HOH      O 1659   1.438   3.016   0.547
  485HOH     H1 1660   1.499   3.067   0.495
  485HOH     H2 1661   1.358   3.014   0.494
  486HOH      O 1662   2.250   1.139   1.312
  486HOH     H1 1663   2.254   1.203   1.383
  486HOH     H2 1664   2.272   1.189   1.233
  487HOH      O 1665   0.231   0.607   3.568
  487HOH     H1 1666   0.205   0.678   3.628
  487HOH     H2 1667   0.238   0.650   3.483
  488HOH      O 1668   2.463   1.159   2.593
  488HOH     H1 1669   2.473   1.095   2.663
  488HOH     H2 1670   2.527   1.131   2.527
  489HOH      O 1671   0.292   0.146   2.410
  489HOH     H1 1672   0.348   0.120   2.483
  489HOH     H2 1673   0.322   0.093   2.336
  490HOH      O 1674   2.479   2.511   2.893
  490HOH     H1 1675   2.573   2.505   2.876
  490HOH     H2 1676   2.473   2.555   2.978
  491HOH      O 1677   3.012   2.893   0.259
  491HOH     H1 1678   2.920   2.874   0.244
  491HOH     H2 1679   3.034   2.847   0.340
  492HOH      O 1680   3.673   0.876   3.990
  492HOH     H1 1681   3.626   0.797   4.015
  492HOH     H2 1682   3.623   0.911   3.916
  493HOH      O 1683   2.293   3.148   0.772
  493HOH     H1 1684   2.303   3.147   0.677
  493HOH     H2 1685   2.372   3.104   0.805
  494HOH      O 1686   3.472   1.920   2.351
  494HOH     H1 1687   3.403   1.951   2.409
  494HOH     H2 1688   3.453   1.962   2.267
  495HOH      O 1689   1.494   1.268   3.607
  495HOH     H1 1690   1.547   1.346   3.624
  495HOH     H2 1691   1.443   1.256   3.687
  496HOH      O 1692   1.248   1.413   2.373
  496HOH     H1 1693   1.200   1.439   2.294
  496HOH     H2 1694   1.199   1.452   2.445
  497HOH      O 1695   0.473   1.102   1.718
  497HOH     H1 1696   0.464   1.013   1.686
  497HOH     H2 1697   0.387   1.124   1.754
  498HOH      O 1698   0.137   1.856   3.059
  498HOH     H1 1699   0.114   1.777   3.011
  498HOH     H2 1700   0.142   1.828   3.151
  499HOH      O 1701   2.735   2.799   2.188
  499HOH     H1 1702   2.708   2.819   2.098
  499HOH     H2 1703   2.830   2.801   2.186
  500HOH      O 1704   2.987   1.747   1.840
  500HOH     H1 1705   3.036   1.685   1.894
  500HOH     H2 1706   3.047   1.821   1.828
  501HOH      O 1707   2.343   1.107   4.010
  501HOH     H1 1708   2.297   1.188   3.987
  501HOH     H2 1709   2.274   1.044   4.025
  502HOH      O 1710   2.208   2.431   3.843
  502HOH     H1 1711   2.168   2.398   3.923
  502HOH     H2 1712   2.254   2.511   3.870
  503HOH      O 1713   2.092   1.996   3.927
  503HOH     H1 1714   2.119   2.051   3.854
  503HOH     H2 1715   2.038   2.053   3.982
  504HOH      O 1716   3.445   0.248   0.285
  504HOH     H1 1717   3.469   0.335   0.317
  504HOH     H2 1718   3.354   0.258   0.257
  505HOH      O 1719   0.439   1.210   2.918
  505HOH     H1 1720   0.377   1.184   2.850
  505HOH     H2 1721   0.522   1.221   2.872
  506HOH      O 1722   2.513   2.729   2.595
  506HOH     H1 1723   2.487   2.753   2.684
  506HOH     H2 1724   2.509   2.633   2.593
  507HOH      O 1725   1.244   1.768   3.419
  507HOH     H1 1726   1.191   1.844   3.394
  507HOH     H2 1727   1.286   1.740   3.337
  508HOH      O 1728   1.046   2.669   1.027
  508HOH     H1 1729   0.966   2.626   1.056
  508HOH     H2 1730   1.023   2.762   1.024
  509HOH      O 1731   3.845   3.495   1.766
  509HOH     H1 1732   3.917   3.453   1.812
  509HOH     H2 1733   3.846   3.457   1.678
  510HOH      O 1734   3.759   1.829   0.208
  510HOH     H1 1735   3.854   1.838   0.199
  510HOH     H2 1736   3.724   1.903   0.158
  511HOH      O 1737   0.851   1.667   1.047
  511HOH     H1 1738   0.791   1.737   1.072
  511HOH     H2 1739   0.909   1.708   0.982
  512HOH      O 1740   2.646   0.542   2.510
  512HOH     H1 1741   2.695   0.489   2.446
  512HOH     H2 1742   2.714   0.588   2.559
  513HOH      O 1743   3.299   0.824   0.672
  513HOH     H1 1744   3.358   0.864   0.736
  513HOH     H2 1745   3.292   0.733   0.700
  514HOH      O 1746   2.611   1.428   3.275
  514HOH     H1 1747   2.587   1.432   3.182
  514HOH     H2 1748   2.695   1.383   3.276
  515HOH      O 1749   1.739   2.742   1.972
  515HOH     H1 1750   1.700   2.663   2.011
  515HOH     H2 1751   1.827   2.746   2.011
  516HOH      O 1752   3.469   1.885   0.580
  516HOH     H1 1753   3.512   1.851   0.658
  516HOH     H2 1754   3.385   1.840   0.577
  517HOH      O 1755   3.701   3.161   1.507
  517HOH     H1 1756   3.686   3.137   1.598
  517HOH     H2 1757   3.625   3.216   1.484
  518HOH      O 1758   1.899   3.874   0.269
  518HOH     H1 1759   1.815   3.887   0.225
  518HOH     H2 1760   1.914   3.955   0.318
  519HOH      O 1761   1.574   3.072   0.763
  519HOH     H1 1762   1.645   3.008   0.757
  519HOH     H2 1763   1.514   3.047   0.693
  520HOH      O 1764   0.209   0.538   3.199
  520HOH     H1 1765   0.255   0.474   3.145
  520HOH     H2 1766   0.167   0.596   3.136
  521HOH      O 1767   0.990   2.093   3.060
  521HOH     H1 1768   1.032   2.079   3.144
  521HOH     H2 1769   0.896   2.080   3.077
  522HOH      O 1770   2.491   1.561   0.510
  522HOH     H1 1771   2.409   1.571   0.463
  522HOH     H2 1772   2.552   1.620   0.464
  523HOH      O 1773   2.487   1.323   3.059
  523HOH     H1 1774   2.406   1.290   3.098
  523HOH     H2 1775   2.459   1.362   2.976
  524HOH      O 1776   0.206   2.089   0.038
  524HOH     H1 1777   0.184   2.124   0.125
  524HOH     H2 1778   0.209   2.166  -0.019
  525HOH      O 1779   3.482   3.301   1.493
  525HOH     H1 1780   3.499   3.390   1.522
  525HOH     H2 1781   3.445   3.312   1.405
  526HOH      O 1782   2.684   0.273   1.988
  526HOH     H1 1783   2.735   0.243   2.063
  526HOH     H2 1784   2.675   0.367   2.002
  527HOH      O 1785   2.456   0.318   3.098
  527HOH     H1 1786   2.420   0.238   3.059
  527HOH     H2 1787   2.545   0.323   3.063
  528HOH      O 1788   0.204   1.086   2.310
  528HOH     H1 1789   0.175   1.004   2.269
  528HOH     H2 1790   0.144   1.098   2.383
  529HOH      O 1791   2.016   1.736   3.986
  529HOH     H1 1792   2.027   1.814   3.932
  529HOH     H2 1793   2.008   1.664   3.924
  530HOH      O 1794   2.653   2.611   0.193
  530HOH     H1 1795   2.636   2.562   0.273
  530HOH     H2 1796   2.566   2.624   0.154
  531HOH      O 1797   0.829   3.782   2.561
  531HOH     H1 1798   0.893   3.835   2.514
  531HOH     H2 1799   0.746   3.799   2.517
  532HOH      O 1800   3.035   0.314   1.905
  532HOH     H1 1801   3.058   0.401   1.936
  532HOH     H2 1802   2.964   0.286   1.963
  533HOH      O 1803   3.584   0.274   4.023
  533HOH     H1 1804   3.664   0.223   4.013
  533HOH     H2 1805   3.530   0.223   4.083
  534HOH      O 1806   3.737   0.239   0.295
  534HOH     H1 1807   3.758   0.184   0.220
  534HOH     H2 1808   3.644   0.224   0.311
  535HOH      O 1809   0.986   3.231   1.857
  535HOH     H1 1810   1.038   3.151   1.860
  535HOH     H2 1811   1.035   3.293   1.912
  536HOH      O 1812   1.150   2.091   2.852
  536HOH     H1 1813   1.089   2.063   2.783
  536HOH     H2 1814   1.102   2.078   2.933
  537HOH      O 1815   1.458   0.911   1.087
  537HOH     H1 1816   1.432   0.871   1.169
  537HOH     H2 1817   1.403   0.869   1.021
  538HOH      O 1818   3.481   4.070   3.337
  538HOH     H1 1819   3.539   3.998   3.363
  538HOH     H2 1820   3.399   4.027   3.312
  539HOH      O 1821   2.569   2.943   3.094
  539HOH     H1 1822   2.601   3.022   3.052
  539HOH     H2 1823   2.503   2.974   3.157
  540HOH      O 1824   1.820   2.458   3.194
  540HOH     H1 1825   1.909   2.461   3.229
  540HOH     H2 1826   1.784   2.376   3.227
  541HOH      O 1827   1.818   1.240   3.459
  541HOH     H1 1828   1.801   1.237   3.553
  541HOH     H2 1829   1.843   1.151   3.436
  542HOH      O 1830   3.298   0.199   1.908
  542HOH     H1 1831   3.203   0.206   1.921
  542HOH     H2 1832   3.333   0.280   1.946
  543HOH      O 1833   0.694   2.016   3.623
  543HOH     H1 1834   0.745   2.052   3.550
  543HOH     H2 1835   0.706   1.921   3.616
  544HOH      O 1836   2.312   2.571   1.436
  544HOH     H1 1837   2.327   2.476   1.439
  544HOH     H2 1838   2.219   2.579   1.417
  545HOH      O 1839   1.775   0.134   3.072
  545HOH     H1 1840   1.836   0.065   3.096
  545HOH     H2 1841   1.697   0.087   3.041
  546HOH      O 1842   0.795   1.519   3.724
  546HOH     H1 1843   0.889   1.530   3.710
  546HOH     H2 1844   0.788   1.439   3.776
  547HOH      O 1845   3.925   3.044   1.922
  547HOH     H1 1846   3.952   3.027   1.832
  547HOH     H2 1847   3.922   2.958   1.963
  548HOH      O 1848   0.996   0.111   0.510
  548HOH     H1 1849   0.978   0.073   0.424
  548HOH     H2 1850   0.921   0.086   0.564
  549HOH      O 1851   3.449   0.418   2.008
  549HOH     H1 1852   3.523   0.457   2.053
  549HOH     H2 1853   3.480   0.402   1.919
  550HOH      O 1854   0.021   1.458   0.764
  550HOH     H1 1855   0.023   1.419   0.677
  550HOH     H2 1856  -0.021   1.543   0.751
  551HOH      O 1857   1.431   0.362   2.213
  551HOH     H1 1858   1.442   0.414   2.132
  551HOH     H2 1859   1.379   0.418   2.270
  552HOH      O 1860   0.295   2.240   3.861
  552HOH     H1 1861   0.387   2.215   3.848
  552HOH     H2 1862   0.289   2.328   3.824
  553HOH      O 1863   3.585   1.616   0.279
  553HOH     H1 1864   3.668   1.664   0.284
  553HOH     H2 1865   3.545   1.646   0.198
  554HOH      O 1866   0.948   0.380   1.484
  554HOH     H1 1867   0.876   0.338   1.437
  554HOH     H2 1868   0.989   0.310   1.534
  555HOH      O 1869   2.060   3.932   1.831
  555HOH     H1 1870   2.064   4.018   1.873
  555HOH     H2 1871   2.044   3.871   1.902
  556HOH      O 1872   3.158   1.281   2.673
  556HOH     H1 1873   3.156   1.187   2.691
  556HOH     H2 1874   3.068   1.310   2.689
  557HOH      O 1875   1.535   3.316   3.662
  557HOH     H1 1876   1.540   3.242   3.602
  557HOH     H2 1877   1.549   3.393   3.607
  558HOH      O 1878   3.639   3.969   2.959
  558HOH     H1 1879   3.699   4.027   3.007
  558HOH     H2 1880   3.555   3.980   3.002
  559HOH      O 1881   3.047   0.013   2.072
  559HOH     H1 1882   3.133  -0.000   2.110
  559HOH     H2 1883   3.062   0.011   1.977
  560HOH      O 1884   3.730   2.503   3.579
  560HOH     H1 1885   3.777   2.491   3.496
  560HOH     H2 1886   3.641   2.473   3.561
  561HOH      O 1887   1.706   2.299   0.606
  561HOH     H1 1888   1.776   2.282   0.669
  561HOH     H2 1889   1.684   2.212   0.571
  562HOH      O 1890   0.236   0.849   1.573
  562HOH     H1 1891   0.324   0.871   1.606
  562HOH     H2 1892   0.197   0.798   1.643
  563HOH      O 1893   1.364   3.926   3.080
  563HOH     H1 1894   1.388   3.944   3.171
  563HOH     H2 1895   1.367   3.831   3.074
  564HOH      O 1896   2.148   2.094   2.587
  564HOH     H1 1897   2.081   2.151   2.624
  564HOH     H2 1898   2.098   2.029   2.536
  565HOH      O 1899   1.596   0.887   0.259
  565HOH     H1 1900   1.620   0.812   0.204
  565HOH     H2 1901   1.518   0.923   0.216
  566HOH      O 1902   1.782   2.924   0.625
  566HOH     H1 1903   1.726   2.958   0.555
  566HOH     H2 1904   1.871   2.942   0.595
  567HOH      O 1905   0.703   3.418   3.054
  567HOH     H1 1906   0.776   3.479   3.049
  567HOH     H2 1907   0.687   3.392   2.963
  568HOH      O 1908   2.688   0.272   0.638
  568HOH     H1 1909   2.640   0.333   0.694
  568HOH     H2 1910   2.651   0.285   0.551
  569HOH      O 1911   1.478   0.837   2.229
  569HOH     H1 1912   1.401   0.825   2.285
  569HOH     H2 1913   1.450   0.900   2.163
  570HOH      O 1914   0.203   0.098   2.021
  570HOH     H1 1915   0.144   0.171   2.004
  570HOH     H2 1916   0.289   0.139   2.034
  571HOH      O 1917   1.040   3.311   2.814
  571HOH     H1 1918   0.962   3.351   2.778
  571HOH     H2 1919   1.016   3.219   2.829
  572HOH      O 1920   2.878   3.111   3.007
  572HOH     H1 1921   2.927   3.182   3.048
  572HOH     H2 1922   2.851   3.055   3.080
  573HOH      O 1923   1.185   2.440   3.812
  573HOH     H1 1924   1.256   2.376   3.805
  573HOH     H2 1925   1.180   2.460   3.905
  574HOH      O 1926   1.919   1.054   1.167
  574HOH     H1 1927   1.944   1.146   1.160
  574HOH     H2 1928   1.827   1.057   1.196
  575HOH      O 1929   1.776   1.311   3.743
  575HOH     H1 1930   1.737   1.294   3.829
  575HOH     H2 1931   1.868   1.329   3.762
  576HOH      O 1932   2.665   2.265  -0.012
  576HOH     H1 1933   2.659   2.264   0.083
  576HOH     H2 1934   2.644   2.356  -0.036
  577HOH      O 1935   1.218   0.488   3.617
  577HOH     H1 1936   1.140   0.437   3.637
  577HOH     H2 1937   1.204   0.521   3.528
  578HOH      O 1938   3.717   1.090   0.423
  578HOH     H1 1939   3.657   1.164   0.423
  578HOH     H2 1940   3.728   1.067   0.331
  579HOH      O 1941   0.700   3.380   2.158
  579HOH     H1 1942   0.671   3.292   2.135
  579HOH     H2 1943   0.761   3.404   2.089
  580HOH      O 1944   0.447   0.923   3.013
  580HOH     H1 1945   0.376   0.987   3.024
  580HOH     H2 1946   0.409   0.856   2.956
  581HOH      O 1947   1.845   0.078   1.092
  581HOH     H1 1948   1.907   0.152   1.096
  581HOH     H2 1949   1.804   0.086   1.006
  582HOH      O 1950   1.324   2.301   2.767
  582HOH     H1 1951   1.274   2.226   2.799
  582HOH     H2 1952   1.351   2.276   2.679
  583HOH      O 1953   0.613   1.887   0.979
  583HOH     H1 1954   0.566   1.948   0.922
  583HOH     H2 1955   0.624   1.935   1.061
  584HOH      O 1956   2.154   3.915   1.175
  584HOH     H1 1957   2.160   3.995   1.228
  584HOH     H2 1958   2.206   3.850   1.223
  585HOH      O 1959   1.043   3.204   2.235
  585HOH     H1 1960   0.987   3.248   2.299
  585HOH     H2 1961   1.131   3.210   2.273
  586HOH      O 1962   2.843   0.311   1.351
  586HOH     H1 1963   2.886   0.362   1.421
  586HOH     H2 1964   2.915   0.283   1.295
  587HOH      O 1965   2.913   1.578   0.213
  587HOH     H1 1966   2.868   1.577   0.129
  587HOH     H2 1967   2.906   1.489   0.246
  588HOH      O 1968   1.715   0.944   0.973
  588HOH     H1 1969   1.642   0.889   1.001
  588HOH     H2 1970   1.746   0.903   0.892
  589HOH      O 1971   2.722   3.424   3.205
  589HOH     H1 1972   2.717   3.451   3.113
  589HOH     H2 1973   2.736   3.505   3.253
  590HOH      O 1974   3.016   1.135   3.059
  590HOH     H1 1975   3.003   1.043   3.083
  590HOH     H2 1976   2.928   1.166   3.037
  591HOH      O 1977   3.552   3.200   2.977
  591HOH     H1 1978   3.470   3.151   2.984
  591HOH     H2 1979   3.567   3.209   2.883
  592HOH      O 1980   1.179   0.131   1.439
  592HOH     H1 1981   1.253   0.189   1.422
  592HOH     H2 1982   1.142   0.164   1.521
  593HOH      O 1983   0.913   2.802   3.871
  593HOH     H1 1984   0.880   2.712   3.872
  593HOH     H2 1985   0.930   2.820   3.778
  594HOH      O 1986   2.678   2.856   1.903
  594HOH     H1 1987   2.597   2.886   1.945
  594HOH     H2 1988   2.660   2.766   1.877
  595HOH      O 1989   3.423   0.200   1.591
  595HOH     H1 1990   3.358   0.212   1.522
  595HOH     H2 1991   3.400   0.117   1.632
  596HOH      O 1992   0.311   1.330   2.375
  596HOH     H1 1993   0.378   1.358   2.313
  596HOH     H2 1994   0.281   1.246   2.342
  597HOH      O 1995   0.513   2.853   0.586
  597HOH     H1 1996   0.553   2.899   0.512
  597HOH     H2 1997   0.449   2.794   0.546
  598HOH      O 1998   2.753   1.968   1.648
  598HOH     H1 1999   2.807   2.031   1.600
  598HOH     H2 2000   2.794   1.883   1.631
  599HOH      O 2001   0.157   2.972   1.457
  599HOH     H1 2002   0.078   2.931   1.422
  599HOH     H2 2003   0.172   2.928   1.540
  600HOH      O 2004   1.923   3.345   0.723
  600HOH     H1 2005   1.998   3.302   0.763
  600HOH     H2 2006   1.924   3.434   0.759
  601HOH      O 2007   3.282   2.047   2.030
  601HOH     H1 2008   3.242   1.980   2.085
  601HOH     H2 2009   3.376   2.041   2.048
  602HOH      O 2010   0.225   3.045   2.270
  602HOH     H1 2011   0.178   2.962   2.265
  602HOH     H2 2012   0.176   3.103   2.212
  603HOH      O 2013   0.168   1.600   2.302
  603HOH     H1 2014   0.216   1.538   2.357
  603HOH     H2 2015   0.236   1.650   2.257
  604HOH      O 2016   1.978   0.683   0.077
  604HOH     H1 2017   2.029   0.642   0.146
  604HOH     H2 2018   2.022   0.658  -0.004
  605HOH      O 2019   2.509   0.282   2.410
  605HOH     H1 2020   2.492   0.351   2.345
  605HOH     H2 2021   2.603   0.286   2.425
  606HOH      O 2022   2.465   0.060   1.379
  606HOH     H1 2023   2.398   0.051   1.446
  606HOH     H2 2024   2.539   0.102   1.423
  607HOH      O 2025   1.046   1.113   3.277
  607HOH     H1 2026   1.070   1.145   3.364
  607HOH     H2 2027   1.129   1.086   3.237
  608HOH      O 2028   1.811   1.377   2.339
  608HOH     H1 2029   1.775   1.299   2.381
  608HOH     H2 2030   1.739   1.441   2.343
  609HOH      O 2031   2.890   1.973   3.149
  609HOH     H1 2032   2.976   1.939   3.174
  609HOH     H2 2033   2.828   1.907   3.181
  610HOH      O 2034   1.120   0.309   1.037
  610HOH     H1 2035   1.210   0.285   1.015
  610HOH     H2 2036   1.091   0.363   0.963
  611HOH      O 2037   2.358   3.094   3.728
  611HOH     H1 2038   2.278   3.099   3.780
  611HOH     H2 2039   2.417   3.158   3.768
  612HOH      O 2040   3.521   3.774   2.074
  612HOH     H1 2041   3.466   3.696   2.078
  612HOH     H2 2042   3.559   3.773   1.986
  613HOH      O 2043   3.004   0.545   3.890
  613HOH     H1 2044   2.946   0.566   3.817
  613HOH     H2 2045   2.995   0.450   3.901
  614HOH      O 2046   0.580   2.578   2.898
  614HOH     H1 2047   0.492   2.592   2.864
  614HOH     H2 2048   0.596   2.485   2.886
  615HOH      O 2049   2.578   2.890   1.527
  615HOH     H1 2050   2.634   2.823   1.488
  615HOH     H2 2051   2.618   2.973   1.502
  616HOH      O 2052   2.784   0.533   2.019
  616HOH     H1 2053   2.827   0.617   2.002
  616HOH     H2 2054   2.842   0.489   2.082
  617HOH      O 2055   0.183   1.465   3.442
  617HOH     H1 2056   0.264   1.443   3.488
  617HOH     H2 2057   0.211   1.479   3.352
  618HOH      O 2058   3.772   2.250   1.210
  618HOH     H1 2059   3.804   2.180   1.267
  618HOH     H2 2060   3.694   2.213   1.169
  619HOH      O 2061   4.020   3.863   0.074
  619HOH     H1 2062   3.931   3.838   0.101
  619HOH     H2 2063   4.077   3.804   0.123
  620HOH      O 2064   2.381   1.460   2.875
  620HOH     H1 2065   2.352   1.476   2.786
  620HOH     H2 2066   2.388   1.547   2.915
  621HOH      O 2067   2.494   1.782   1.159
  621HOH     H1 2068   2.530   1.738   1.236
  621HOH     H2 2069   2.478   1.872   1.188
  622HOH      O 2070   0.688   0.445   0.779
  622HOH     H1 2071   0.600   0.431   0.814
  622HOH     H2 2072   0.674   0.471   0.688
  623HOH      O 2073   0.618   2.556   0.603
  623HOH     H1 2074   0.530   2.566   0.640
  623HOH     H2 2075   0.604   2.515   0.518
  624HOH      O 2076   2.849   0.372   0.274
  624HOH     H1 2077   2.814   0.370   0.185
  624HOH     H2 2078   2.911   0.444   0.275
  625HOH      O 2079   0.611   0.600   2.565
  625HOH     H1 2080   0.639   0.686   2.596
  625HOH     H2 2081   0.605   0.609   2.470
  626HOH      O 2082   0.419   3.202   0.517
  626HOH     H1 2083   0.450   3.238   0.600
  626HOH     H2 2084   0.497   3.159   0.480
  627HOH      O 2085   0.691   1.071   4.002
  627HOH     H1 2086   0.680   1.125   4.081
  627HOH     H2 2087   0.770   1.020   4.019
  628HOH      O 2088   1.855   3.405   3.362
  628HOH     H1 2089   1.815   3.465   3.424
  628HOH     H2 2090   1.947   3.431   3.358
  629HOH      O 2091   3.591   3.626   0.884
  629HOH     H1 2092   3.570   3.543   0.839
  629HOH     H2 2093   3.665   3.605   0.941
  630HOH      O 2094   0.908   2.645   0.538
  630HOH     H1 2095   0.893   2.674   0.448
  630HOH     H2 2096   0.823   2.613   0.567
  631HOH      O 2097   2.245   1.104   0.809
  631HOH     H1 2098   2.274   1.103   0.718
  631HOH     H2 2099   2.150   1.117   0.804
  632HOH      O 2100   1.625   0.807   3.657
  632HOH     H1 2101   1.632   0.802   3.562
  632HOH     H2 2102   1.531   0.814   3.675
  633HOH      O 2103   3.731   0.389   3.046
  633HOH     H1 2104   3.745   0.434   3.129
  633HOH     H2 2105   3.751   0.297   3.064
  634HOH      O 2106   3.880   2.740   0.162
  634HOH     H1 2107   3.860   2.793   0.240
  634HOH     H2 2108   3.900   2.805   0.094
  635HOH      O 2109   0.654   3.159   2.007
  635HOH     H1 2110   0.591   3.181   1.938
  635HOH     H2 2111   0.623   3.076   2.043
  636HOH      O 2112   0.780   2.959   2.324
  636HOH     H1 2113   0.828   3.007   2.256
  636HOH     H2 2114   0.803   3.004   2.405
  637HOH      O 2115   1.097   0.400   2.514
  637HOH     H1 2116   1.069   0.438   2.597
  637HOH     H2 2117   1.022   0.412   2.455
  638HOH      O 2118   3.889   1.445   0.123
  638HOH     H1 2119   3.909   1.352   0.123
  638HOH     H2 2120   3.920   1.477   0.208
  639HOH      O 2121   2.791   1.745   3.256
  639HOH     H1 2122   2.821   1.672   3.203
  639HOH     H2 2123   2.704   1.719   3.286
  640HOH      O 2124   3.345   0.178   3.844
  640HOH     H1 2125   3.437   0.167   3.868
  640HOH     H2 2126   3.297   0.152   3.922
  641HOH      O 2127   2.736   2.523   2.099
  641HOH     H1 2128   2.724   2.605   2.146
  641HOH     H2 2129   2.712   2.455   2.163
  642HOH      O 2130   0.764   1.307   0.510
  642HOH     H1 2131   0.833   1.264   0.460
  642HOH     H2 2132   0.690   1.246   0.508
  643HOH      O 2133   1.092   1.463   1.556
  643HOH     H1 2134   1.115   1.438   1.466
  643HOH     H2 2135   1.062   1.382   1.597
  644HOH      O 2136   3.514   2.740   2.613
  644HOH     H1 2137   3.551   2.781   2.691
  644HOH     H2 2138   3.536   2.647   2.622
  645HOH      O 2139   0.227   2.885   1.985
  645HOH     H1 2140   0.146   2.882   2.035
  645HOH     H2 2141   0.273   2.805   2.008
  646HOH      O 2142   0.924   3.047   0.265
  646HOH     H1 2143   0.921   2.955   0.290
  646HOH     H2 2144   0.961   3.046   0.176
  647HOH      O 2145   2.991   2.369   3.644
  647HOH     H1 2146   2.945   2.290   3.672
  647HOH     H2 2147   2.979   2.371   3.549
  648HOH      O 2148   1.669   3.067   0.404
  648HOH     H1 2149   1.727   3.143   0.410
  648HOH     H2 2150   1.622   3.080   0.322
  649HOH      O 2151   0.734   0.396   1.077
  649HOH     H1 2152   0.706   0.488   1.073
  649HOH     H2 2153   0.819   0.395   1.033
  650HOH      O 2154   0.921   1.250   0.088
  650HOH     H1 2155   0.909   1.339   0.055
  650HOH     H2 2156   0.840   1.232   0.136
  651HOH      O 2157   2.628   3.159   3.388
  651HOH     H1 2158   2.552   3.101   3.395
  651HOH     H2 2159   2.683   3.118   3.322
  652HOH      O 2160   1.562   0.183   1.936
  652HOH     H1 2161   1.621   0.180   2.011
  652HOH     H2 2162   1.564   0.275   1.908
  653HOH      O 2163   2.694   0.023   2.835
  653HOH     H1 2164   2.666   0.113   2.822
  653HOH     H2 2165   2.761   0.008   2.768
  654HOH      O 2166   1.307   3.371   1.636
  654HOH     H1 2167   1.349   3.296   1.594
  654HOH     H2 2168   1.296   3.344   1.727
  655HOH      O 2169   1.114   0.785   3.429
  655HOH     H1 2170   1.021   0.784   3.406
  655HOH     H2 2171   1.146   0.701   3.396
  656HOH      O 2172   2.773   1.325   0.175
  656HOH     H1 2173   2.735   1.241   0.204
  656HOH     H2 2174   2.713   1.355   0.107
  657HOH      O 2175   1.392   3.069   1.005
  657HOH     H1 2176   1.453   3.101   0.938
  657HOH     H2 2177   1.448   3.037   1.075
  658HOH      O 2178   0.537   2.161   0.323
  658HOH     H1 2179   0.480   2.093   0.287
  658HOH     H2 2180   0.551   2.135   0.414
  659HOH      O 2181   0.984   0.173   1.651
  659HOH     H1 2182   0.938   0.226   1.716
  659HOH     H2 2183   0.926   0.099   1.634
  660HOH      O 2184   0.359   0.757   2.811
  660HOH     H1 2185   0.394   0.792   2.729
  660HOH     H2 2186   0.377   0.663   2.807
  661HOH      O 2187   1.003   1.871   3.304
  661HOH     H1 2188   0.974   1.946   3.357
  661HOH     H2 2189   0.923   1.822   3.286
  662HOH      O 2190   1.315   3.606   3.888
  662HOH     H1 2191   1.221   3.588   3.890
  662HOH     H2 2192   1.353   3.544   3.950
  663HOH      O 2193   0.391   2.341   0.572
  663HOH     H1 2194   0.355   2.346   0.483
  663HOH     H2 2195   0.386   2.249   0.594
  664HOH      O 2196   0.644   3.624   1.262
  664HOH     H1 2197   0.673   3.697   1.208
  664HOH     H2 2198   0.687   3.547   1.224
  665HOH      O 2199   2.905   0.482   0.938
  665HOH     H1 2200   2.865   0.551   0.885
  665HOH     H2 2201   2.901   0.515   1.028
  666HOH      O 2202   3.379   1.103   0.495
  666HOH     H1 2203   3.457   1.067   0.537
  666HOH     H2 2204   3.372   1.056   0.412
  667HOH      O 2205   1.005   2.768   2.752
  667HOH     H1 2206   1.049   2.759   2.668
  667HOH     H2 2207   1.070   2.740   2.816
  668HOH      O 2208   2.825   1.552   3.026
  668HOH     H1 2209   2.908   1.505   3.022
  668HOH     H2 2210   2.831   1.618   2.956
  669HOH      O 2211   3.489   3.477   3.871
  669HOH     H1 2212   3.517   3.485   3.780
  669HOH     H2 2213   3.394   3.463   3.866
  670HOH      O 2214   2.555   3.341   0.595
  670HOH     H1 2215   2.632   3.286   0.587
  670HOH     H2 2216   2.481   3.280   0.598
  671HOH      O 2217   0.917   3.586   3.311
  671HOH     H1 2218   0.830   3.621   3.295
  671HOH     H2 2219   0.916   3.498   3.274
  672HOH      O 2220   3.233   2.372   3.307
  672HOH     H1 2221   3.210   2.280   3.298
  672HOH     H2 2222   3.157   2.412   3.349
  673HOH      O 2223   0.998   2.222   0.885
  673HOH     H1 2224   0.933   2.159   0.854
  673HOH     H2 2225   1.017   2.276   0.808
  674HOH      O 2226   1.033   0.552   2.107
  674HOH     H1 2227   1.031   0.528   2.014
  674HOH     H2 2228   1.086   0.632   2.109
  675HOH      O 2229   1.527   1.333   2.530
  675HOH     H1 2230   1.458   1.397   2.509
  675HOH     H2 2231   1.580   1.377   2.596
  676HOH      O 2232   2.684   3.706   1.078
  676HOH     H1 2233   2.719   3.755   1.004
  676HOH     H2 2234   2.596   3.741   1.091
  677HOH      O 2235   2.467   2.647   1.874
  677HOH     H1 2236   2.471   2.630   1.779
  677HOH     H2 2237   2.377   2.624   1.898
  678HOH      O 2238   1.618   3.500   1.153
  678HOH     H1 2239   1.588   3.413   1.129
  678HOH     H2 2240   1.604   3.504   1.248
  679HOH      O 2241   0.024   3.195   0.262
  679HOH     H1 2242   0.034   3.221   0.170
  679HOH     H2 2243  -0.030   3.116   0.258
  680HOH      O 2244   3.533   1.192   2.031
  680HOH     H1 2245   3.547   1.234   1.946
  680HOH     H2 2246   3.521   1.265   2.092
  681HOH      O 2247   2.543   3.719   2.893
  681HOH     H1 2248   2.564   3.743   2.983
  681HOH     H2 2249   2.459   3.674   2.899
  682HOH      O 2250   1.115   0.736   3.721
  682HOH     H1 2251   1.149   0.647   3.711
  682HOH     H2 2252   1.140   0.781   3.641
  683HOH      O 2253   1.144   0.697   1.043
  683HOH     H1 2254   1.132   0.776   1.096
  683HOH     H2 2255   1.133   0.625   1.105
  684HOH      O 2256   1.344   1.513   3.748
  684HOH     H1 2257   1.317   1.439   3.803
  684HOH     H2 2258   1.283   1.512   3.675
  685HOH      O 2259   3.717   3.501   2.674
  685HOH     H1 2260   3.681   3.588   2.684
  685HOH     H2 2261   3.795   3.513   2.621
  686HOH      O 2262   0.915   2.379   2.952
  686HOH     H1 2263   0.942   2.288   2.942
  686HOH     H2 2264   0.825   2.382   2.920
  687HOH      O 2265   1.217  -0.031   0.898
  687HOH     H1 2266   1.306   0.002   0.887
  687HOH     H2 2267   1.162   0.034   0.855
  688HOH      O 2268   0.055   1.064   2.000
  688HOH     H1 2269   0.028   1.078   1.909
  688HOH     H2 2270   0.065   1.152   2.036
  689HOH      O 2271   2.871   1.776   3.926
  689HOH     H1 2272   2.789   1.818   3.900
  689HOH     H2 2273   2.848   1.684   3.939
  690HOH      O 2274   1.611   3.340   0.766
  690HOH     H1 2275   1.608   3.244   0.772
  690HOH     H2 2276   1.702   3.359   0.743
  691HOH      O 2277   1.304   3.707   0.337
  691HOH     H1 2278   1.229   3.734   0.391
  691HOH     H2 2279   1.286   3.744   0.251
  692HOH      O 2280   1.857   0.220   1.683
  692HOH     H1 2281   1.861   0.171   1.601
  692HOH     H2 2282   1.936   0.274   1.682
  693HOH      O 2283   2.465   3.708   2.235
  693HOH     H1 2284   2.542   3.653   2.249
  693HOH     H2 2285   2.391   3.651   2.257
  694HOH      O 2286   2.235   0.248   2.892
  694HOH     H1 2287   2.140   0.244   2.876
  694HOH     H2 2288   2.274   0.206   2.815
  695HOH      O 2289   3.945   0.672   2.961
  695HOH     H1 2290   3.993   0.590   2.946
  695HOH     H2 2291   4.001   0.740   2.925
  696HOH      O 2292   1.482   0.556   0.687
  696HOH     H1 2293   1.488   0.507   0.605
  696HOH     H2 2294   1.564   0.605   0.691
  697HOH      O 2295   2.852   0.849   2.818
  697HOH     H1 2296   2.808   0.889   2.743
  697HOH     H2 2297   2.816   0.894   2.894
  698HOH      O 2298   0.446   0.022   3.021
  698HOH     H1 2299   0.351   0.009   3.018
  698HOH     H2 2300   0.480  -0.031   2.948
  699HOH      O 2301   2.915   1.893   2.243
  699HOH     H1 2302   2.864   1.877   2.164
  699HOH     H2 2303   2.885   1.825   2.304
  700HOH      O 2304   0.483   0.776   0.228
  700HOH     H1 2305   0.465   0.867   0.204
  700HOH     H2 2306   0.506   0.733   0.145
  701HOH      O 2307   2.977   1.762   0.979
  701HOH     H1 2308   2.886   1.735   0.964
  701HOH     H2 2309   2.970   1.851   1.012
  702HOH      O 2310   1.339   3.501   3.299
  702HOH     H1 2311   1.308   3.453   3.223
  702HOH     H2 2312   1.322   3.442   3.373
  703HOH      O 2313   0.618   2.488   0.333
  703HOH     H1 2314   0.532   2.500   0.293
  703HOH     H2 2315   0.663   2.571   0.317
  704HOH      O 2316   1.947   3.940   3.533
  704HOH     H1 2317   2.041   3.929   3.548
  704HOH     H2 2318   1.907   3.917   3.616
  705HOH      O 2319   1.765   1.995   0.503
  705HOH     H1 2320   1.858   1.974   0.511
  705HOH     H2 2321   1.738   1.951   0.422
  706HOH      O 2322   1.650   2.181   1.284
  706HOH     H1 2323   1.557   2.200   1.289
  706HOH     H2 2324   1.655   2.085   1.277
  707HOH      O 2325   0.209   3.833   2.216
  707HOH     H1 2326   0.257   3.804   2.293
  707HOH     H2 2327   0.240   3.923   2.202
  708HOH      O 2328   3.706   0.475   1.210
  708HOH     H1 2329   3.687   0.568   1.202
  708HOH     H2 2330   3.620   0.433   1.207
  709HOH      O 2331   3.278   0.755   1.642
  709HOH     H1 2332   3.219   0.806   1.699
  709HOH     H2 2333   3.239   0.763   1.555
  710HOH      O 2334   3.177   2.539   3.697
  710HOH     H1 2335   3.097   2.487   3.695
  710HOH     H2 2336   3.248   2.475   3.698
  711HOH      O 2337   0.976   1.177   2.762
  711HOH     H1 2338   0.981   1.089   2.799
  711HOH     H2 2339   1.039   1.228   2.812
  712HOH      O 2340   3.376   2.081   2.705
  712HOH     H1 2341   3.427   2.060   2.783
  712HOH     H2 2342   3.304   2.135   2.738
  713HOH      O 2343   2.130   0.547   1.218
  713HOH     H1 2344   2.143   0.597   1.299
  713HOH     H2 2345   2.206   0.569   1.164
  714HOH      O 2346   0.378   2.656   1.632
  714HOH     H1 2347   0.471   2.682   1.630
  714HOH     H2 2348   0.375   2.586   1.696
  715HOH      O 2349   3.799   2.497   0.040
  715HOH     H1 2350   3.718   2.521  -0.004
  715HOH     H2 2351   3.832   2.579   0.075
  716HOH      O 2352   2.348   2.388   3.289
  716HOH     H1 2353   2.265   2.388   3.242
  716HOH     H2 2354   2.402   2.323   3.244
  717HOH      O 2355   0.687   1.195   1.161
  717HOH     H1 2356   0.593   1.187   1.144
  717HOH     H2 2357   0.702   1.288   1.173
  718HOH      O 2358   0.957   2.453   1.844
  718HOH     H1 2359   1.038   2.488   1.807
  718HOH     H2 2360   0.896   2.450   1.770
  719HOH      O 2361   0.821   2.922   1.443
  719HOH     H1 2362   0.890   2.969   1.395
  719HOH     H2 2363   0.812   2.970   1.525
  720HOH      O 2364   0.546   3.254   0.746
  720HOH     H1 2365   0.549   3.185   0.812
  720HOH     H2 2366   0.638   3.269   0.724
  721HOH      O 2367   2.963   0.428   2.191
  721HOH     H1 2368   3.058   0.419   2.176
  721HOH     H2 2369   2.948   0.385   2.275
  722HOH      O 2370   2.692   3.895   0.068
  722HOH     H1 2371   2.780   3.932   0.083
  722HOH     H2 2372   2.635   3.944   0.127
  723HOH      O 2373   2.745   0.358   4.050
  723HOH     H1 2374   2.678   0.315   3.996
  723HOH     H2 2375   2.828   0.329   4.013
  724HOH      O 2376   0.631   2.214   3.279
  724HOH     H1 2377   0.630   2.307   3.258
  724HOH     H2 2378   0.551   2.201   3.332
  725HOH      O 2379   3.656   3.516   2.298
  725HOH     H1 2380   3.673   3.528   2.204
  725HOH     H2 2381   3.721   3.452   2.326
  726HOH      O 2382   1.545   1.987   2.351
  726HOH     H1 2383   1.495   1.907   2.338
  726HOH     H2 2384   1.530   2.037   2.270
  727HOH      O 2385   0.846   0.330   2.816
  727HOH     H1 2386   0.786   0.360   2.748
  727HOH     H2 2387   0.792   0.323   2.895
  728HOH      O 2388   0.515   0.828   1.633
  728HOH     H1 2389   0.507   0.765   1.562
  728HOH     H2 2390   0.596   0.804   1.678
  729HOH      O 2391   3.717   2.791   0.636
  729HOH     H1 2392   3.651   2.860   0.643
  729HOH     H2 2393   3.667   2.710   0.628
  730HOH      O 2394   3.296   0.931   0.252
  730HOH     H1 2395   3.329   0.848   0.218
  730HOH     H2 2396   3.311   0.994   0.182
  731HOH      O 2397   3.371   3.039   3.179
  731HOH     H1 2398   3.398   3.069   3.266
  731HOH     H2 2399   3.318   3.110   3.144
  732HOH      O 2400   1.181   3.441   0.568
  732HOH     H1 2401   1.156   3.412   0.481
  732HOH     H2 2402   1.115   3.506   0.592
  733HOH      O 2403   2.507   0.562   0.228
  733HOH     H1 2404   2.503   0.651   0.194
  733HOH     H2 2405   2.467   0.508   0.158
  734HOH      O 2406   3.885   2.749   1.221
  734HOH     H1 2407   3.961   2.741   1.163
  734HOH     H2 2408   3.828   2.676   1.197
  735HOH      O 2409   3.012   0.766   0.781
  735HOH     H1 2410   2.995   0.839   0.841
  735HOH     H2 2411   2.926   0.741   0.749
  736HOH      O 2412  -0.006   1.842   0.221
  736HOH     H1 2413  -0.008   1.792   0.139
  736HOH     H2 2414   0.053   1.793   0.277
  737HOH      O 2415   1.682   3.229   2.968
  737HOH     H1 2416   1.722   3.314   2.950
  737HOH     H2 2417   1.649   3.237   3.058
  738HOH      O 2418   2.907   2.335   1.276
  738HOH     H1 2419   2.915   2.342   1.181
  738HOH     H2 2420   2.914   2.425   1.308
  739HOH      O 2421   0.334   2.038   2.368
  739HOH     H1 2422   0.285   2.032   2.285
  739HOH     H2 2423   0.423   2.059   2.342
  740HOH      O 2424   2.525   0.402   0.802
  740HOH     H1 2425   2.440   0.435   0.774
  740HOH     H2 2426   2.541   0.446   0.886
  741HOH      O 2427   0.357   3.900   0.976
  741HOH     H1 2428   0.360   3.958   1.053
  741HOH     H2 2429   0.440   3.853   0.979
  742HOH      O 2430   4.008   1.116   3.971
  742HOH     H1 2431   3.928   1.158   3.940
  742HOH     H2 2432   4.053   1.183   4.022
  743HOH      O 2433   1.642   1.911   3.207
  743HOH     H1 2434   1.553   1.946   3.210
  743HOH     H2 2435   1.646   1.848   3.279
  744HOH      O 2436   2.081   1.722   1.271
  744HOH     H1 2437   2.054   1.635   1.241
  744HOH     H2 2438   2.113   1.708   1.360
  745HOH      O 2439   2.978   0.076   1.780
  745HOH     H1 2440   3.012   0.058   1.692
  745HOH     H2 2441   2.988   0.171   1.790
  746HOH      O 2442   3.659   2.638   0.340
  746HOH     H1 2443   3.625   2.714   0.291
  746HOH     H2 2444   3.602   2.566   0.314
  747HOH      O 2445   2.399   1.359   0.265
  747HOH     H1 2446   2.406   1.453   0.279
  747HOH     H2 2447   2.334   1.330   0.329
  748HOH      O 2448   0.711   2.896   1.802
  748HOH     H1 2449   0.658   2.841   1.744
  748HOH     H2 2450   0.655   2.911   1.878
  749HOH      O 2451   0.575   2.502   2.281
  749HOH     H1 2452   0.506   2.491   2.217
  749HOH     H2 2453   0.581   2.417   2.325
  750HOH      O 2454   3.157   0.148   2.831
  750HOH     H1 2455   3.113   0.095   2.765
  750HOH     H2 2456   3.236   0.181   2.788
  751HOH      O 2457   2.439   1.275   3.443
  751HOH     H1 2458   2.481   1.317   3.368
  751HOH     H2 2459   2.509   1.266   3.507
  752HOH      O 2460   3.784   1.982   3.052
  752HOH     H1 2461   3.862   2.005   3.002
  752HOH     H2 2462   3.792   2.034   3.133
  753HOH      O 2463   0.690   1.813   0.709
  753HOH     H1 2464   0.639   1.807   0.790
  753HOH     H2 2465   0.692   1.724   0.675
  754HOH      O 2466   1.415   3.135   1.548
  754HOH     H1 2467   1.370   3.051   1.552
  754HOH     H2 2468   1.506   3.113   1.570
  755HOH      O 2469   2.150   1.838   0.762
  755HOH     H1 2470   2.144   1.758   0.815
  755HOH     H2 2471   2.163   1.908   0.826
  756HOH      O 2472   0.880   2.420   0.074
  756HOH     H1 2473   0.939   2.354   0.037
  756HOH     H2 2474   0.847   2.467  -0.002
  757HOH      O 2475   2.507   0.962   2.793
  757HOH     H1 2476   2.588   0.994   2.832
  757HOH     H2 2477   2.501   0.871   2.822
  758HOH      O 2478   2.312   1.721   3.225
  758HOH     H1 2479   2.340   1.636   3.261
  758HOH     H2 2480   2.220   1.728   3.251
  759HOH      O 2481   0.299   3.052   3.536
  759HOH     H1 2482   0.208   3.080   3.530
  759HOH     H2 2483   0.350   3.131   3.518
  760HOH      O 2484   2.936   3.187   2.091
  760HOH     H1 2485   2.991   3.153   2.020
  760HOH     H2 2486   2.938   3.119   2.158
  761HOH      O 2487   0.007   1.312   2.083
  761HOH     H1 2488   0.069   1.386   2.086
  761HOH     H2 2489  -0.039   1.324   2.000
  762HOH      O 2490   3.816   0.294   2.807
  762HOH     H1 2491   3.832   0.366   2.746
  762HOH     H2 2492   3.761   0.332   2.876
  763HOH      O 2493   3.006   3.197   0.278
  763HOH     H1 2494   3.017   3.161   0.190
  763HOH     H2 2495   3.024   3.291   0.268
  764HOH      O 2496   0.799   3.339   0.631
  764HOH     H1 2497   0.850   3.378   0.702
  764HOH     H2 2498   0.780   3.412   0.573
  765HOH      O 2499   3.208   0.641   2.271
  765HOH     H1 2500   3.187   0.625   2.179
  765HOH     H2 2501   3.275   0.576   2.292
  766HOH      O 2502   2.247   3.684   0.521
  766HOH     H1 2503   2.179   3.744   0.491
  766HOH     H2 2504   2.286   3.727   0.597
  767HOH      O 2505   1.862   3.275   3.976
  767HOH     H1 2506   1.856   3.181   3.995
  767HOH     H2 2507   1.781   3.312   4.011
  768HOH      O 2508   2.792   1.167   2.125
  768HOH     H1 2509   2.747   1.087   2.095
  768HOH     H2 2510   2.885   1.145   2.117
  769HOH      O 2511   2.556   2.013   1.303
  769HOH     H1 2512   2.543   2.029   1.396
  769HOH     H2 2513   2.635   1.960   1.298
  770HOH      O 2514   0.987   1.913   1.355
  770HOH     H1 2515   1.026   1.865   1.281
  770HOH     H2 2516   1.018   1.868   1.433
  771HOH      O 2517   2.243   1.611   2.271
  771HOH     H1 2518   2.168   1.622   2.329
  771HOH     H2 2519   2.238   1.521   2.242
  772HOH      O 2520   1.912   1.340   1.078
  772HOH     H1 2521   1.830   1.382   1.106
  772HOH     H2 2522   1.904   1.332   0.983
  773HOH      O 2523   3.819   2.070   3.680
  773HOH     H1 2524   3.847   2.162   3.674
  773HOH     H2 2525   3.897   2.023   3.709
  774HOH      O 2526   1.938   1.793   3.035
  774HOH     H1 2527   1.984   1.723   2.989
  774HOH     H2 2528   1.924   1.861   2.968
  775HOH      O 2529   2.861   2.638   1.350
  775HOH     H1 2530   2.776   2.625   1.393
  775HOH     H2 2531   2.917   2.673   1.420
  776HOH      O 2532   3.383   3.790   1.444
  776HOH     H1 2533   3.346   3.749   1.523
  776HOH     H2 2534   3.370   3.884   1.457
  777HOH      O 2535   0.387   2.884   1.049
  777HOH     H1 2536   0.363   2.830   1.125
  777HOH     H2 2537   0.412   2.969   1.087
  778HOH      O 2538   3.770   0.618   2.408
  778HOH     H1 2539   3.737   0.707   2.400
  778HOH     H2 2540   3.864   0.625   2.393
  779HOH      O 2541   0.246   0.654   2.499
  779HOH     H1 2542   0.295   0.721   2.450
  779HOH     H2 2543   0.299   0.637   2.576
  780HOH      O 2544   3.211   2.311   2.781
  780HOH     H1 2545   3.259   2.394   2.786
  780HOH     H2 2546   3.164   2.306   2.864
  781HOH      O 2547   3.497   0.771   2.120
  781HOH     H1 2548   3.543   0.689   2.140
  781HOH     H2 2549   3.514   0.827   2.196
  782HOH      O 2550   1.624   0.388   3.212
  782HOH     H1 2551   1.575   0.438   3.146
  782HOH     H2 2552   1.636   0.302   3.172
  783HOH      O 2553   0.844   0.359   0.040
  783HOH     H1 2554   0.819   0.270   0.014
  783HOH     H2 2555   0.921   0.379  -0.012
  784HOH      O 2556   3.802   2.901   0.375
  784HOH     H1 2557   3.778   2.844   0.448
  784HOH     H2 2558   3.790   2.990   0.410
  785HOH      O 2559   4.014   2.094   3.309
  785HOH     H1 2560   4.020   2.023   3.374
  785HOH     H2 2561   3.920   2.100   3.289
  786HOH      O 2562   2.781   3.637   0.144
  786HOH     H1 2563   2.706   3.633   0.203
  786HOH     H2 2564   2.793   3.731   0.127
  787HOH      O 2565   3.853   1.748   3.828
  787HOH     H1 2566   3.920   1.737   3.760
  787HOH     H2 2567   3.805   1.665   3.828
  788HOH      O 2568   3.656   2.344   2.949
  788HOH     H1 2569   3.730   2.381   2.997
  788HOH     H2 2570   3.580   2.370   3.001
  789HOH      O 2571   3.217   2.659   0.139
  789HOH     H1 2572   3.285   2.663   0.072
  789HOH     H2 2573   3.182   2.748   0.141
  790HOH      O 2574   2.093   3.995   0.914
  790HOH     H1 2575   2.047   3.988   0.998
  790HOH     H2 2576   2.180   3.960   0.932
  791HOH      O 2577   3.812   0.484   0.753
  791HOH     H1 2578   3.843   0.444   0.672
  791HOH     H2 2579   3.780   0.410   0.806
  792HOH      O 2580   3.775   2.565   3.101
  792HOH     H1 2581   3.822   2.566   3.018
  792HOH     H2 2582   3.760   2.658   3.121
  793HOH      O 2583   1.884   2.023   2.155
  793HOH     H1 2584   1.930   2.083   2.213
  793HOH     H2 2585   1.858   1.950   2.212
  794HOH      O 2586   2.882   3.583   1.646
  794HOH     H1 2587   2.912   3.672   1.628
  794HOH     H2 2588   2.859   3.548   1.560
  795HOH      O 2589   2.194   0.364   3.779
  795HOH     H1 2590   2.154   0.288   3.822
  795HOH     H2 2591   2.161   0.360   3.689
  796HOH      O 2592   1.644   2.261   2.388
  796HOH     H1 2593   1.573   2.286   2.446
  796HOH     H2 2594   1.627   2.169   2.367
  797HOH      O 2595   2.234   3.086   3.991
  797HOH     H1 2596   2.165   3.042   3.943
  797HOH     H2 2597   2.189   3.130   4.063
  798HOH      O 2598   1.955   3.483   2.668
  798HOH     H1 2599   1.990   3.463   2.581
  798HOH     H2 2600   1.948   3.579   2.669
  799HOH      O 2601   2.602   2.510   3.902
  799HOH     H1 2602   2.513   2.545   3.909
  799HOH     H2 2603   2.651   2.580   3.858
  800HOH      O 2604   2.219   0.110   3.348
  800HOH     H1 2605   2.294   0.163   3.319
  800HOH     H2 2606   2.256   0.051   3.414
  801HOH      O 2607   2.579   2.204   3.498
  801HOH     H1 2608   2.552   2.263   3.428
  801HOH     H2 2609   2.558   2.250   3.579
  802HOH      O 2610   0.060   2.826   3.403
  802HOH     H1 2611  -0.007   2.873   3.353
  802HOH     H2 2612   0.143   2.865   3.375
  803HOH      O 2613   2.950   1.333   3.582
  803HOH     H1 2614   3.014   1.262   3.591
  803HOH     H2 2615   2.866   1.292   3.602
  804HOH      O 2616   1.821   3.702   0.668
  804HOH     H1 2617   1.735   3.698   0.709
  804HOH     H2 2618   1.879   3.654   0.727
  805HOH      O 2619   0.854   0.783   1.020
  805HOH     H1 2620   0.910   0.717   0.981
  805HOH     H2 2621   0.765   0.758   0.993
  806HOH      O 2622   0.072   0.674   1.721
  806HOH     H1 2623   0.050   0.585   1.692
  806HOH     H2 2624  -0.011   0.722   1.717
  807HOH      O 2625   2.205   0.631   3.897
  807HOH     H1 2626   2.245   0.679   3.825
  807HOH     H2 2627   2.216   0.539   3.874
  808HOH      O 2628   3.834   3.544   0.909
  808HOH     H1 2629   3.878   3.626   0.885
  808HOH     H2 2630   3.888   3.476   0.868
  809HOH      O 2631   4.053   3.970   2.889
  809HOH     H1 2632   3.960   3.978   2.867
  809HOH     H2 2633   4.095   4.038   2.836
  810HOH      O 2634   1.392   0.738   2.596
  810HOH     H1 2635   1.310   0.788   2.594
  810HOH     H2 2636   1.444   0.773   2.524
  811HOH      O 2637   1.533   2.851   2.793
  811HOH     H1 2638   1.477   2.848   2.871
  811HOH     H2 2639   1.513   2.770   2.746
  812HOH      O 2640   2.789   0.996   1.088
  812HOH     H1 2641   2.757   1.027   1.003
  812HOH     H2 2642   2.849   1.064   1.117
  813HOH      O 2643   0.876   0.858   3.800
  813HOH     H1 2644   0.902   0.928   3.859
  813HOH     H2 2645   0.956   0.806   3.788
  814HOH      O 2646   1.352   2.457   3.234
  814HOH     H1 2647   1.385   2.469   3.323
  814HOH     H2 2648   1.302   2.537   3.216
  815HOH      O 2649   2.877   3.688   2.467
  815HOH     H1 2650   2.837   3.673   2.552
  815HOH     H2 2651   2.808   3.668   2.403
  816HOH      O 2652   0.551   2.693   2.553
  816HOH     H1 2653   0.633   2.688   2.504
  816HOH     H2 2654   0.578   2.718   2.642
  817HOH      O 2655   1.189   3.238   1.111
  817HOH     H1 2656   1.269   3.188   1.093
  817HOH     H2 2657   1.194   3.258   1.204
  818HOH      O 2658   1.680   1.201   2.785
  818HOH     H1 2659   1.767   1.172   2.813
  818HOH     H2 2660   1.695   1.285   2.743
  819HOH      O 2661   1.337   3.906   2.585
  819HOH     H1 2662   1.332   3.996   2.617
  819HOH     H2 2663   1.427   3.896   2.555
  820HOH      O 2664   0.038   1.922   0.662
  820HOH     H1 2665   0.022   1.888   0.750
  820HOH     H2 2666  -0.045   1.959   0.635
  821HOH      O 2667   2.207   1.049   3.011
  821HOH     H1 2668   2.253   0.988   3.068
  821HOH     H2 2669   2.235   1.027   2.922
  822HOH      O 2670   0.279   3.733   3.169
  822HOH     H1 2671   0.278   3.639   3.149
  822HOH     H2 2672   0.325   3.773   3.096
  823HOH      O 2673   2.762   1.450   0.992
  823HOH     H1 2674   2.735   1.366   1.027
  823HOH     H2 2675   2.704   1.466   0.918
  824HOH      O 2676   2.135   2.890   2.556
  824HOH     H1 2677   2.088   2.939   2.489
  824HOH     H2 2678   2.121   2.798   2.532
  825HOH      O 2679   2.629   0.023   0.988
  825HOH     H1 2680   2.618  -0.021   1.073
  825HOH     H2 2681   2.654   0.112   1.011
  826HOH      O 2682   2.739   0.135   0.283
  826HOH     H1 2683   2.773   0.224   0.286
  826HOH     H2 2684   2.647   0.144   0.307
  827HOH      O 2685   2.121   3.477   3.393
  827HOH     H1 2686   2.090   3.512   3.477
  827HOH     H2 2687   2.176   3.402   3.418
  828HOH      O 2688   1.980   1.207   0.743
  828HOH     H1 2689   1.897   1.230   0.784
  828HOH     H2 2690   1.957   1.143   0.675
  829HOH      O 2691   1.039   0.688   0.663
  829HOH     H1 2692   1.107   0.693   0.596
  829HOH     H2 2693   1.004   0.777   0.668
  830HOH      O 2694   1.882   2.157   0.035
  830HOH     H1 2695   1.857   2.235  -0.014
  830HOH     H2 2696   1.859   2.177   0.126
  831HOH      O 2697   3.543   3.255   2.077
  831HOH     H1 2698   3.598   3.333   2.070
  831HOH     H2 2699   3.600   3.190   2.118
  832HOH      O 2700   2.349   2.868   0.674
  832HOH     H1 2701   2.411   2.917   0.729
  832HOH     H2 2702   2.378   2.885   0.585
  833HOH      O 2703   2.969   3.475   0.298
  833HOH     H1 2704   2.928   3.463   0.384
  833HOH     H2 2705   2.897   3.496   0.239
  834HOH      O 2706   3.002   3.168   3.972
  834HOH     H1 2707   3.095   3.161   3.949
  834HOH     H2 2708   2.964   3.224   3.905
  835HOH      O 2709   0.528   2.908   2.017
  835HOH     H1 2710   0.529   2.846   2.090
  835HOH     H2 2711   0.437   2.906   1.986
  836HOH      O 2712   1.633   1.576   2.420
  836HOH     H1 2713   1.553   1.622   2.393
  836HOH     H2 2714   1.639   1.595   2.514
  837HOH      O 2715   1.010   2.960   1.060
  837HOH     H1 2716   1.040   2.983   1.147
  837HOH     H2 2717   1.087   2.971   1.004
  838HOH      O 2718   2.244   0.985   0.528
  838HOH     H1 2719   2.183   0.942   0.468
  838HOH     H2 2720   2.244   1.077   0.501
  839HOH      O 2721   0.648   2.683   1.114
  839HOH     H1 2722   0.564   2.710   1.149
  839HOH     H2 2723   0.649   2.716   1.024
  840HOH      O 2724   0.871   1.465   1.975
  840HOH     H1 2725   0.839   1.395   2.033
  840HOH     H2 2726   0.966   1.454   1.975
  841HOH      O 2727   3.592   0.651   0.700
  841HOH     H1 2728   3.518   0.595   0.674
  841HOH     H2 2729   3.665   0.590   0.713
  842HOH      O 2730   0.113   0.043   0.126
  842HOH     H1 2731   0.070   0.118   0.084
  842HOH     H2 2732   0.052  -0.030   0.114
  843HOH      O 2733   0.049   1.641   2.872
  843HOH     H1 2734  -0.016   1.571   2.875
  843HOH     H2 2735   0.133   1.595   2.866
  844HOH      O 2736   2.925   0.053   0.701
  844HOH     H1 2737   2.844   0.104   0.695
  844HOH     H2 2738   2.987   0.110   0.745
  845HOH      O 2739   2.433   2.982   2.030
  845HOH     H1 2740   2.399   2.949   2.113
  845HOH     H2 2741   2.453   3.074   2.047
  846HOH      O 2742   3.149   2.304   2.102
  846HOH     H1 2743   3.165   2.216   2.067
  846HOH     H2 2744   3.114   2.353   2.027
  847HOH      O 2745   2.545   0.100   3.591
  847HOH     H1 2746   2.629   0.057   3.575
  847HOH     H2 2747   2.491   0.032   3.632
  848HOH      O 2748   0.964   3.075   3.310
  848HOH     H1 2749   0.979   3.009   3.242
  848HOH     H2 2750   0.996   3.034   3.391
  849HOH      O 2751   0.713   2.405   0.836
  849HOH     H1 2752   0.746   2.350   0.766
  849HOH     H2 2753   0.654   2.467   0.792
  850HOH      O 2754   0.719   1.276   2.780
  850HOH     H1 2755   0.808   1.259   2.811
  850HOH     H2 2756   0.710   1.221   2.702
  851HOH      O 2757   2.722   0.571   3.753
  851HOH     H1 2758   2.713   0.482   3.788
  851HOH     H2 2759   2.707   0.562   3.659
  852HOH      O 2760   3.163   3.508   1.323
  852HOH     H1 2761   3.252   3.480   1.301
  852HOH     H2 2762   3.120   3.427   1.353
  853HOH      O 2763   2.771   1.235   2.596
  853HOH     H1 2764   2.846   1.286   2.626
  853HOH     H2 2765   2.697   1.268   2.649
  854HOH      O 2766   0.583   2.958   1.273
  854HOH     H1 2767   0.628   3.033   1.233
  854HOH     H2 2768   0.653   2.910   1.317
  855HOH      O 2769   1.236   1.130   2.331
  855HOH     H1 2770   1.255   1.213   2.373
  855HOH     H2 2771   1.215   1.153   2.240
  856HOH      O 2772   1.817   0.990   0.098
  856HOH     H1 2773   1.757   0.953   0.163
  856HOH     H2 2774   1.808   0.932   0.022
  857HOH      O 2775   3.097   0.996   2.673
  857HOH     H1 2776   3.007   0.963   2.678
  857HOH     H2 2777   3.130   0.961   2.590
  858HOH      O 2778   0.769   0.170   3.563
  858HOH     H1 2779   0.808   0.101   3.510
  858HOH     H2 2780   0.694   0.200   3.511
  859HOH      O 2781   0.217   0.100   0.681
  859HOH     H1 2782   0.177   0.102   0.594
  859HOH     H2 2783   0.213   0.190   0.711
  860HOH      O 2784   3.220   1.487   1.801
  860HOH     H1 2785   3.293   1.425   1.799
  860HOH     H2 2786   3.259   1.569   1.830
  861HOH      O 2787   2.633   3.561   1.794
  861HOH     H1 2788   2.587   3.642   1.770
  861HOH     H2 2789   2.721   3.572   1.759
  862HOH      O 2790   1.093   0.793   0.276
  862HOH     H1 2791   1.001   0.795   0.300
  862HOH     H2 2792   1.139   0.773   0.357
  863HOH      O 2793   3.717   2.560   1.123
  863HOH     H1 2794   3.734   2.486   1.182
  863HOH     H2 2795   3.783   2.552   1.054
  864HOH      O 2796   1.148   1.247   1.106
  864HOH     H1 2797   1.232   1.205   1.089
  864HOH     H2 2798   1.109   1.258   1.020
  865HOH      O 2799   0.760   0.646   3.885
  865HOH     H1 2800   0.776   0.732   3.846
  865HOH     H2 2801   0.764   0.585   3.811
  866HOH      O 2802   2.629   2.571   0.476
  866HOH     H1 2803   2.536   2.581   0.494
  866HOH     H2 2804   2.667   2.543   0.559
  867HOH      O 2805   1.917   2.202   3.761
  867HOH     H1 2806   1.871   2.286   3.757
  867HOH     H2 2807   2.002   2.219   3.720
  868HOH      O 2808   1.281   2.804   2.964
  868HOH     H1 2809   1.336   2.785   3.040
  868HOH     H2 2810   1.230   2.724   2.950
  869HOH      O 2811   3.759   0.258   0.901
  869HOH     H1 2812   3.776   0.183   0.844
  869HOH     H2 2813   3.844   0.277   0.941
  870HOH      O 2814   2.105   2.779   0.845
  870HOH     H1 2815   2.162   2.854   0.832
  870HOH     H2 2816   2.019   2.817   0.864
  871HOH      O 2817   1.364   1.835   3.875
  871HOH     H1 2818   1.320   1.847   3.792
  871HOH     H2 2819   1.308   1.775   3.924
  872HOH      O 2820   0.906   1.003   1.168
  872HOH     H1 2821   0.894   0.930   1.106
  872HOH     H2 2822   0.849   1.072   1.134
  873HOH      O 2823   0.274   3.482   3.951
  873HOH     H1 2824   0.263   3.576   3.967
  873HOH     H2 2825   0.211   3.462   3.881
  874HOH      O 2826   0.532   2.432   3.565
  874HOH     H1 2827   0.510   2.522   3.542
  874HOH     H2 2828   0.463   2.379   3.524
  875HOH      O 2829   2.878   1.699   2.443
  875HOH     H1 2830   2.809   1.741   2.493
  875HOH     H2 2831   2.947   1.681   2.507
  876HOH      O 2832   3.292   3.145   2.516
  876HOH     H1 2833   3.335   3.225   2.487
  876HOH     H2 2834   3.200   3.170   2.529
  877HOH      O 2835   2.384   2.602   0.624
  877HOH     H1 2836   2.394   2.544   0.700
  877HOH     H2 2837   2.389   2.690   0.659
  878HOH      O 2838   0.490   2.020   1.194
  878HOH     H1 2839   0.474   2.058   1.107
  878HOH     H2 2840   0.446   1.935   1.191
  879HOH      O 2841   1.783   0.113   1.391
  879HOH     H1 2842   1.757   0.076   1.307
  879HOH     H2 2843   1.832   0.192   1.370
  880HOH      O 2844   0.979   1.768   2.903
  880HOH     H1 2845   0.883   1.776   2.904
  880HOH     H2 2846   1.004   1.794   2.814
  881HOH      O 2847   3.048   3.261   2.470
  881HOH     H1 2848   3.012   3.175   2.450
  881HOH     H2 2849   3.015   3.318   2.400
  882HOH      O 2850   3.244   2.759   3.861
  882HOH     H1 2851   3.223   2.685   3.804
  882HOH     H2 2852   3.333   2.783   3.838
  883HOH      O 2853   1.206   2.337   2.202
  883HOH     H1 2854   1.159   2.284   2.138
  883HOH     H2 2855   1.271   2.385   2.151
  884HOH      O 2856   2.986   2.835   0.711
  884HOH     H1 2857   2.940   2.775   0.770
  884HOH     H2 2858   2.978   2.794   0.625
  885HOH      O 2859   1.732   3.870   1.169
  885HOH     H1 2860   1.752   3.838   1.257
  885HOH     H2 2861   1.770   3.958   1.166
  886HOH      O 2862   1.244   2.017   2.439
  886HOH     H1 2863   1.156   2.005   2.475
  886HOH     H2 2864   1.293   1.939   2.467
  887HOH      O 2865   0.478   2.010   1.521
  887HOH     H1 2866   0.563   1.989   1.482
  887HOH     H2 2867   0.419   2.017   1.446
  888HOH      O 2868   1.642   2.442   0.200
  888HOH     H1 2869   1.609   2.352   0.206
  888HOH     H2 2870   1.611   2.484   0.280
  889HOH      O 2871   0.038   2.363   0.083
  889HOH     H1 2872   0.043   2.427   0.012
  889HOH     H2 2873   0.111   2.385   0.140
  890HOH      O 2874   1.844   1.904   1.450
  890HOH     H1 2875   1.921   1.961   1.449
  890HOH     H2 2876   1.802   1.920   1.365
  891HOH      O 2877   2.291   0.908   3.407
  891HOH     H1 2878   2.274   0.992   3.451
  891HOH     H2 2879   2.216   0.853   3.432
  892HOH      O 2880   2.378   2.301   0.309
  892HOH     H1 2881   2.347   2.213   0.288
  892HOH     H2 2882   2.332   2.323   0.390
  893HOH      O 2883   0.856   0.652   0.100
  893HOH     H1 2884   0.854   0.561   0.129
  893HOH     H2 2885   0.841   0.647   0.005
  894HOH      O 2886   3.122   1.898   0.776
  894HOH     H1 2887   3.086   1.862   0.857
  894HOH     H2 2888   3.195   1.840   0.755
  895HOH      O 2889   1.886   3.137   2.713
  895HOH     H1 2890   1.908   3.097   2.797
  895HOH     H2 2891   1.970   3.170   2.679
  896HOH      O 2892   3.401   3.914   3.064
  896HOH     H1 2893   3.335   3.977   3.094
  896HOH     H2 2894   3.352   3.855   3.006
  897HOH      O 2895   2.431   1.997   2.957
  897HOH     H1 2896   2.355   2.055   2.948
  897HOH     H2 2897   2.445   1.993   3.052
  898HOH      O 2898   0.997   1.708   3.698
  898HOH     H1 2899   1.030   1.790   3.662
  898HOH     H2 2900   0.971   1.729   3.788
  899HOH      O 2901   0.110   1.300   0.099
  899HOH     H1 2902   0.116   1.232   0.167
  899HOH     H2 2903   0.131   1.381   0.145
  900HOH      O 2904   2.516   3.009   0.855
  900HOH     H1 2905   2.605   3.031   0.828
  900HOH     H2 2906   2.504   3.057   0.937
  901HOH      O 2907   2.748   2.809   2.474
  901HOH     H1 2908   2.727   2.778   2.386
  901HOH     H2 2909   2.668   2.796   2.525
  902HOH      O 2910   0.999   0.134   1.261
  902HOH     H1 2911   1.046   0.171   1.186
  902HOH     H2 2912   1.067   0.120   1.327
  903HOH      O 2913   0.241   2.094   3.352
  903HOH     H1 2914   0.149   2.104   3.332
  903HOH     H2 2915   0.242   2.045   3.435
  904HOH      O 2916   3.108   3.736   2.630
  904HOH     H1 2917   3.036   3.727   2.568
  904HOH     H2 2918   3.176   3.783   2.581
  905HOH      O 2919   1.942   1.301   1.923
  905HOH     H1 2920   1.862   1.259   1.956
  905HOH     H2 2921   2.003   1.228   1.911
  906HOH      O 2922   0.186   0.810   2.214
  906HOH     H1 2923   0.221   0.725   2.190
  906HOH     H2 2924   0.115   0.826   2.153
  907HOH      O 2925   3.239   3.933   3.308
  907HOH     H1 2926   3.264   3.841   3.298
  907HOH     H2 2927   3.201   3.957   3.224
  908HOH      O 2928   2.639   3.979   1.230
  908HOH     H1 2929   2.710   4.007   1.287
  908HOH     H2 2930   2.560   4.016   1.269
  909HOH      O 2931   0.431   4.011   2.231
  909HOH     H1 2932   0.459   3.958   2.157
  909HOH     H2 2933   0.488   3.985   2.303
  910HOH      O 2934   0.248   1.557   3.938
  910HOH     H1 2935   0.170   1.526   3.984
  910HOH     H2 2936   0.301   1.478   3.926
  911HOH      O 2937   0.020   1.076   2.553
  911HOH     H1 2938   0.044   0.995   2.507
  911HOH     H2 2939  -0.044   1.118   2.496
  912HOH      O 2940   1.027   3.965   2.451
  912HOH     H1 2941   0.970   3.994   2.380
  912HOH     H2 2942   1.115   3.970   2.414
  913HOH      O 2943   0.874   1.849   0.183
  913HOH     H1 2944   0.894   1.895   0.265
  913HOH     H2 2945   0.792   1.804   0.201
  914HOH      O 2946   2.965   0.258   3.904
  914HOH     H1 2947   2.957   0.245   3.810
  914HOH     H2 2948   3.048   0.215   3.928
  915HOH      O 2949   2.339   2.631   0.245
  915HOH     H1 2950   2.309   2.547   0.278
  915HOH     H2 2951   2.359   2.682   0.323
  916HOH      O 2952   2.321   3.815   0.912
  916HOH     H1 2953   2.322   3.720   0.897
  916HOH     H2 2954   2.350   3.825   1.003
  917HOH      O 2955   3.338   1.467   2.769
  917HOH     H1 2956   3.312   1.538   2.710
  917HOH     H2 2957   3.275   1.397   2.751
  918HOH      O 2958   0.501   0.074   0.621
  918HOH     H1 2959   0.485   0.123   0.540
  918HOH     H2 2960   0.424   0.091   0.675
  919HOH      O 2961   1.356   3.209   3.287
  919HOH     H1 2962   1.346   3.249   3.200
  919HOH     H2 2963   1.450   3.207   3.301
  920HOH      O 2964   1.195   2.726   3.769
  920HOH     H1 2965   1.128   2.778   3.812
  920HOH     H2 2966   1.173   2.635   3.791
  921HOH      O 2967   1.939   0.688   2.461
  921HOH     H1 2968   1.847   0.663   2.457
  921HOH     H2 2969   1.981   0.617   2.510
  922HOH      O 2970   1.983   3.337   1.710
  922HOH     H1 2971   2.053   3.274   1.694
  922HOH     H2 2972   1.910   3.285   1.742
  923HOH      O 2973   2.760   1.356   1.526
  923HOH     H1 2974   2.812   1.397   1.457
  923HOH     H2 2975   2.819   1.355   1.602
  924HOH      O 2976   0.215   0.739   0.753
  924HOH     H1 2977   0.177   0.814   0.799
  924HOH     H2 2978   0.170   0.737   0.669
  925HOH      O 2979   2.023   0.952   2.650
  925HOH     H1 2980   1.944   0.915   2.691
  925HOH     H2 2981   2.002   0.954   2.556
  926HOH      O 2982   1.918   1.736   3.540
  926HOH     H1 2983   1.850   1.679   3.575
  926HOH     H2 2984   1.883   1.825   3.549
  927HOH      O 2985   0.686   0.440   2.015
  927HOH     H1 2986   0.597   0.424   1.984
  927HOH     H2 2987   0.692   0.535   2.022
  928HOH      O 2988   0.405   0.437   2.224
  928HOH     H1 2989   0.390   0.370   2.291
  928HOH     H2 2990   0.430   0.387   2.146
  929HOH      O 2991   2.921   3.985   3.937
  929HOH     H1 2992   2.978   4.041   3.883
  929HOH     H2 2993   2.918   4.029   4.022
  930HOH      O 2994   2.284   2.301   1.411
  930HOH     H1 2995   2.245   2.306   1.324
  930HOH     H2 2996   2.378   2.293   1.395
  931HOH      O 2997   3.244   1.437   0.845
  931HOH     H1 2998   3.276   1.382   0.917
  931HOH     H2 2999   3.150   1.417   0.840
  932HOH      O 3000   2.966   3.715   3.176
  932HOH     H1 3001   2.980   3.735   3.084
  932HOH     H2 3002   2.896   3.775   3.203
  933HOH      O 3003   2.033   1.181   3.679
  933HOH     H1 3004   2.123   1.156   3.661
  933HOH     H2 3005   1.980   1.109   3.645
  934HOH      O 3006   3.137   0.044   2.576
  934HOH     H1 3007   3.222   0.005   2.597
  934HOH     H2 3008   3.091  -0.025   2.528
  935HOH      O 3009   2.293   2.805   3.490
  935HOH     H1 3010   2.355   2.733   3.504
  935HOH     H2 3011   2.216   2.779   3.540
  936HOH      O 3012   2.209   1.498   1.760
  936HOH     H1 3013   2.164   1.574   1.795
  936HOH     H2 3014   2.299   1.527   1.746
  937HOH      O 3015   3.268   0.727   3.156
  937HOH     H1 3016   3.262   0.743   3.062
  937HOH     H2 3017   3.280   0.814   3.195
  938HOH      O 3018   1.001   2.271   3.697
  938HOH     H1 3019   1.068   2.334   3.725
  938HOH     H2 3020   0.923   2.325   3.684
  939HOH      O 3021   0.412   0.154   3.752
  939HOH     H1 3022   0.412   0.244   3.784
  939HOH     H2 3023   0.483   0.111   3.799
  940HOH      O 3024   3.614   2.244   0.176
  940HOH     H1 3025   3.607   2.206   0.264
  940HOH     H2 3026   3.575   2.331   0.185
  941HOH      O 3027   3.304   2.115   0.275
  941HOH     H1 3028   3.338   2.112   0.186
  941HOH     H2 3029   3.269   2.203   0.285
  942HOH      O 3030   2.238   1.587   0.446
  942HOH     H1 3031   2.212   1.642   0.372
  942HOH     H2 3032   2.156   1.546   0.475
  943HOH      O 3033   1.709   2.232   3.270
  943HOH     H1 3034   1.635   2.220   3.329
  943HOH     H2 3035   1.772   2.166   3.298
  944HOH      O 3036   3.324   0.426   3.162
  944HOH     H1 3037   3.373   0.406   3.242
  944HOH     H2 3038   3.300   0.518   3.171
  945HOH      O 3039   1.023   2.798   1.630
  945HOH     H1 3040   1.020   2.845   1.713
  945HOH     H2 3041   0.931   2.791   1.603
  946HOH      O 3042   1.754   2.702   3.820
  946HOH     H1 3043   1.667   2.739   3.835
  946HOH     H2 3044   1.812   2.753   3.877
  947HOH      O 3045   1.749   2.968   2.949
  947HOH     H1 3046   1.732   3.048   2.900
  947HOH     H2 3047   1.668   2.917   2.940
  948HOH      O 3048   2.118   1.533   3.032
  948HOH     H1 3049   2.124   1.547   2.938
  948HOH     H2 3050   2.179   1.461   3.050
  949HOH      O 3051   2.447   2.618   2.203
  949HOH     H1 3052   2.457   2.625   2.108
  949HOH     H2 3053   2.390   2.691   2.227
  950HOH      O 3054   3.897   1.923   2.610
  950HOH     H1 3055   3.886   1.828   2.608
  950HOH     H2 3056   3.808   1.958   2.606
  951HOH      O 3057   1.964   2.215   2.976
  951HOH     H1 3058   1.889   2.252   2.930
  951HOH     H2 3059   1.996   2.287   3.031
  952HOH      O 3060   0.589   3.058   0.916
  952HOH     H1 3061   0.602   3.068   1.010
  952HOH     H2 3062   0.677   3.059   0.879
  953HOH      O 3063   1.689   1.895   1.692
  953HOH     H1 3064   1.722   1.886   1.602
  953HOH     H2 3065   1.761   1.935   1.740
  954HOH      O 3066   0.728   0.891   2.883
  954HOH     H1 3067   0.797   0.950   2.914
  954HOH     H2 3068   0.648   0.928   2.920
  955HOH      O 3069   2.756   2.626   1.650
  955HOH     H1 3070   2.802   2.544   1.666
  955HOH     H2 3071   2.814   2.693   1.686
  956HOH      O 3072   0.591   3.431   1.834
  956HOH     H1 3073   0.586   3.338   1.810
  956HOH     H2 3074   0.682   3.443   1.860
  957HOH      O 3075   1.576   3.097   3.411
  957HOH     H1 3076   1.570   3.054   3.497
  957HOH     H2 3077   1.608   3.029   3.352
  958HOH      O 3078   3.335   3.887   2.597
  958HOH     H1 3079   3.380   3.828   2.536
  958HOH     H2 3080   3.405   3.929   2.646
  959HOH      O 3081   1.654   0.650   0.465
  959HOH     H1 3082   1.591   0.705   0.419
  959HOH     H2 3083   1.686   0.705   0.536
  960HOH      O 3084   1.229   2.984   3.225
  960HOH     H1 3085   1.261   3.067   3.259
  960HOH     H2 3086   1.242   2.990   3.130
  961HOH      O 3087   2.518   1.951   3.617
  961HOH     H1 3088   2.440   1.904   3.586
  961HOH     H2 3089   2.503   2.042   3.591
  962HOH      O 3090   2.906   0.647   1.477
  962HOH     H1 3091   2.873   0.728   1.517
  962HOH     H2 3092   2.948   0.600   1.549
  963HOH      O 3093   3.258   3.048   1.084
  963HOH     H1 3094   3.316   3.024   1.156
  963HOH     H2 3095   3.200   2.973   1.073
  964HOH      O 3096   2.634   1.202   3.872
  964HOH     H1 3097   2.588   1.146   3.934
  964HOH     H2 3098   2.620   1.291   3.904
  965HOH      O 3099   3.862   2.725   0.920
  965HOH     H1 3100   3.828   2.814   0.928
  965HOH     H2 3101   3.891   2.718   0.829
  966HOH      O 3102   2.944   3.364   3.748
  966HOH     H1 3103   2.913   3.453   3.761
  966HOH     H2 3104   2.902   3.335   3.667
  967HOH      O 3105   1.762   1.111   2.018
  967HOH     H1 3106   1.781   1.050   2.090
  967HOH     H2 3107   1.817   1.080   1.946
  968HOH      O 3108   3.592   1.036   0.716
  968HOH     H1 3109   3.637   1.121   0.717
  968HOH     H2 3110   3.520   1.046   0.777
  969HOH      O 3111   2.942   2.264   3.929
  969HOH     H1 3112   2.990   2.254   4.012
  969HOH     H2 3113   2.850   2.267   3.955
  970HOH      O 3114   2.732   1.692   0.416
  970HOH     H1 3115   2.786   1.666   0.342
  970HOH     H2 3116   2.794   1.731   0.479
  971HOH      O 3117   4.031   0.823   2.398
  971HOH     H1 3118   3.962   0.849   2.337
  971HOH     H2 3119   4.105   0.799   2.342
  972HOH      O 3120   1.401   3.866   1.293
  972HOH     H1 3121   1.451   3.903   1.366
  972HOH     H2 3122   1.454   3.884   1.215
  973HOH      O 3123   2.935   2.895   1.493
  973HOH     H1 3124   2.940   2.860   1.582
  973HOH     H2 3125   2.988   2.975   1.495
  974HOH      O 3126   3.630   3.788   0.402
  974HOH     H1 3127   3.570   3.854   0.371
  974HOH     H2 3128   3.611   3.780   0.496
  975HOH      O 3129   1.601   2.016   0.955
  975HOH     H1 3130   1.526   1.958   0.967
  975HOH     H2 3131   1.604   2.031   0.861
  976HOH      O 3132   0.096   1.718   0.436
  976HOH     H1 3133   0.181   1.685   0.465
  976HOH     H2 3134   0.074   1.786   0.499
  977HOH      O 3135   0.468   1.941   1.928
  977HOH     H1 3136   0.436   1.898   1.849
  977HOH     H2 3137   0.390   1.952   1.982
  978HOH      O 3138   1.431   2.430   3.575
  978HOH     H1 3139   1.406   2.366   3.642
  978HOH     H2 3140   1.356   2.489   3.568
  979HOH      O 3141   1.251   2.663   2.619
  979HOH     H1 3142   1.346   2.655   2.628
  979HOH     H2 3143   1.224   2.583   2.573
  980HOH      O 3144   0.589   2.471   3.208
  980HOH     H1 3145   0.510   2.434   3.168
  980HOH     H2 3146   0.568   2.563   3.223
  981HOH      O 3147   1.982   3.745   2.807
  981HOH     H1 3148   1.922   3.817   2.831
  981HOH     H2 3149   1.985   3.690   2.885
  982HOH      O 3150   2.744   2.455   0.684
  982HOH     H1 3151   2.802   2.520   0.723
  982HOH     H2 3152   2.703   2.411   0.759
  983HOH      O 3153   3.769   1.706   2.202
  983HOH     H1 3154   3.858   1.722   2.236
  983HOH     H2 3155   3.782   1.650   2.126
  984HOH      O 3156   2.063   0.912   2.058
  984HOH     H1 3157   2.146   0.880   2.023
  984HOH     H2 3158   2.003   0.838   2.048
  985HOH      O 3159   2.534   3.166   2.481
  985HOH     H1 3160   2.483   3.143   2.559
  985HOH     H2 3161   2.468   3.181   2.413
  986HOH      O 3162   2.237   1.670   1.479
  986HOH     H1 3163   2.331   1.690   1.476
  986HOH     H2 3164   2.221   1.643   1.569
  987HOH      O 3165   0.287   3.640   0.975
  987HOH     H1 3166   0.282   3.735   0.989
  987HOH     H2 3167   0.380   3.623   0.964
  988HOH      O 3168   0.189   2.850   1.696
  988HOH     H1 3169   0.252   2.783   1.669
  988HOH     H2 3170   0.189   2.846   1.792
  989HOH      O 3171   0.654   0.309   1.574
  989HOH     H1 3172   0.697   0.285   1.492
  989HOH     H2 3173   0.570   0.265   1.572
  990HOH      O 3174   0.084   2.546   3.909
  990HOH     H1 3175   0.073   2.585   3.822
  990HOH     H2 3176   0.179   2.544   3.923
  991HOH      O 3177   0.815   3.511   2.719
  991HOH     H1 3178   0.869   3.544   2.647
  991HOH     H2 3179   0.856   3.546   2.798
  992HOH      O 3180   1.094   0.121   0.109
  992HOH     H1 3181   1.030   0.114   0.038
  992HOH     H2 3182   1.101   0.216   0.125
  993HOH      O 3183   1.584   1.473   3.948
  993HOH     H1 3184   1.602   1.566   3.940
  993HOH     H2 3185   1.494   1.463   3.916
  994HOH      O 3186   2.195   2.450   2.905
  994HOH     H1 3187   2.290   2.459   2.904
  994HOH     H2 3188   2.166   2.486   2.821
  995HOH      O 3189   3.925   3.907   0.459
  995HOH     H1 3190   3.991   3.857   0.507
  995HOH     H2 3191   3.851   3.848   0.452
  996HOH      O 3192   0.047   0.743   3.729
  996HOH     H1 3193  -0.016   0.768   3.796
  996HOH     H2 3194   0.048   0.648   3.730
  997HOH      O 3195   0.774   2.449   3.644
  997HOH     H1 3196   0.817   2.482   3.564
  997HOH     H2 3197   0.685   2.429   3.616
  998HOH      O 3198   0.993   3.716   0.461
  998HOH     H1 3199   0.983   3.785   0.396
  998HOH     H2 3200   0.919   3.727   0.520
  999HOH      O 3201   3.279   2.715   0.439
  999HOH     H1 3202   3.307   2.624   0.454
  999HOH     H2 3203   3.293   2.729   0.345
 1000HOH      O 3204   2.682   0.865   1.797
 1000HOH     H1 3205   2.600   0.893   1.756
 1000HOH     H2 3206   2.665   0.871   1.891
 1001HOH      O 3207   0.841   3.379   0.971
 1001HOH     H1 3208   0.846   3.428   1.053
 1001HOH     H2 3209   0.759   3.408   0.930
 1002HOH      O 3210   0.585   1.188   2.536
 1002HOH     H1 3211   0.508   1.236   2.569
 1002HOH     H2 3212   0.632   1.251   2.483
 1003HOH      O 3213   2.461   2.367   3.705
 1003HOH     H1 3214   2.525   2.394   3.772
 1003HOH     H2 3215   2.377   2.371   3.750
 1004HOH      O 3216   2.777   3.901   3.040
 1004HOH     H1 3217   2.828   3.845   2.981
 1004HOH     H2 3218   2.738   3.967   2.983
 1005HOH      O 3219   3.266   3.987   0.978
 1005HOH     H1 3220   3.260   3.906   1.029
 1005HOH     H2 3221   3.195   4.041   1.012
 1006HOH      O 3222   0.561   3.851   2.043
 1006HOH     H1 3223   0.601   3.798   2.112
 1006HOH     H2 3224   0.591   3.810   1.962
 1007HOH      O 3225   3.660   3.072   2.272
 1007HOH     H1 3226   3.595   3.026   2.324
 1007HOH     H2 3227   3.741   3.022   2.285
 1008HOH      O 3228   3.793   0.067   0.037
 1008HOH     H1 3229   3.767  -0.016   0.077
 1008HOH     H2 3230   3.817   0.043  -0.052
 1009HOH      O 3231   3.325   1.700   2.953
 1009HOH     H1 3232   3.385   1.673   3.023
 1009HOH     H2 3233   3.378   1.696   2.874
 1010HOH      O 3234   0.809   2.490   1.070
 1010HOH     H1 3235   0.792   2.473   0.977
 1010HOH     H2 3236   0.727   2.528   1.102
 1011HOH      O 3237   0.225   0.677   1.369
 1011HOH     H1 3238   0.251   0.728   1.292
 1011HOH     H2 3239   0.214   0.742   1.438
 1012HOH      O 3240   0.125   1.219   3.791
 1012HOH     H1 3241   0.058   1.165   3.832
 1012HOH     H2 3242   0.145   1.174   3.709
 1013HOH      O 3243   3.277   3.703   1.693
 1013HOH     H1 3244   3.250   3.611   1.683
 1013HOH     H2 3245   3.218   3.738   1.760
 1014HOH      O 3246   3.767   2.999   2.580
 1014HOH     H1 3247   3.833   2.963   2.520
 1014HOH     H2 3248   3.685   2.996   2.530
 1015HOH      O 3249   3.236   3.929   0.200
 1015HOH     H1 3250   3.217   3.917   0.293
 1015HOH     H2 3251   3.278   3.847   0.174
 1016HOH      O 3252   2.738   0.312   1.734
 1016HOH     H1 3253   2.728   0.286   1.826
 1016HOH     H2 3254   2.809   0.375   1.735
 1017HOH      O 3255   0.489   2.247   2.013
 1017HOH     H1 3256   0.580   2.222   1.995
 1017HOH     H2 3257   0.449   2.169   2.052
 1018HOH      O 3258   0.434   0.965   2.613
 1018HOH     H1 3259   0.354   1.012   2.640
 1018HOH     H2 3260   0.498   1.035   2.598
 1019HOH      O 3261   1.852   0.638   1.534
 1019HOH     H1 3262   1.917   0.663   1.600
 1019HOH     H2 3263   1.777   0.606   1.584
 1020HOH      O 3264   0.476   1.069   3.842
 1020HOH     H1 3265   0.548   1.099   3.897
 1020HOH     H2 3266   0.509   0.990   3.800
 1021HOH      O 3267   3.598   1.707   2.510
 1021HOH     H1 3268   3.564   1.772   2.447
 1021HOH     H2 3269   3.519   1.668   2.547
 1022HOH      O 3270   1.871   0.730   0.864
 1022HOH     H1 3271   1.934   0.774   0.921
 1022HOH     H2 3272   1.919   0.654   0.830
 1023HOH      O 3273   1.387   2.716   0.806
 1023HOH     H1 3274   1.338   2.634   0.800
 1023HOH     H2 3275   1.324   2.779   0.840
 1024HOH      O 3276   1.144   1.226   2.999
 1024HOH     H1 3277   1.217   1.182   3.043
 1024HOH     H2 3278   1.160   1.319   3.012
 1025HOH      O 3279   0.952   0.841   1.472
 1025HOH     H1 3280   1.028   0.783   1.469
 1025HOH     H2 3281   0.887   0.799   1.415
 1026HOH      O 3282   1.765   0.937   2.238
 1026HOH     H1 3283   1.715   1.015   2.264
 1026HOH     H2 3284   1.708   0.864   2.261
 1027HOH      O 3285   3.987   0.828   2.083
 1027HOH     H1 3286   3.975   0.921   2.060
 1027HOH     H2 3287   3.926   0.781   2.027
 1028HOH      O 3288   2.088   1.444   3.516
 1028HOH     H1 3289   2.080   1.540   3.520
 1028HOH     H2 3290   2.011   1.416   3.467
 1029HOH      O 3291   0.564   2.195   3.771
 1029HOH     H1 3292   0.584   2.270   3.714
 1029HOH     H2 3293   0.633   2.131   3.751
 1030HOH      O 3294   1.574   0.390   0.204
 1030HOH     H1 3295   1.612   0.319   0.256
 1030HOH     H2 3296   1.647   0.423   0.152
 1031HOH      O 3297   2.304   1.828   4.004
 1031HOH     H1 3298   2.389   1.872   4.000
 1031HOH     H2 3299   2.241   1.895   3.977
 1032HOH      O 3300   1.166   1.137   2.049
 1032HOH     H1 3301   1.095   1.073   2.045
 1032HOH     H2 3302   1.152   1.193   1.973
 1033HOH      O 3303   0.344   3.217   3.132
 1033HOH     H1 3304   0.292   3.180   3.061
 1033HOH     H2 3305   0.424   3.164   3.134
 1034HOH      O 3306   0.919   0.734   3.212
 1034HOH     H1 3307   0.918   0.639   3.200
 1034HOH     H2 3308   0.827   0.759   3.223
 1035HOH      O 3309   0.267   3.694   1.990
 1035HOH     H1 3310   0.229   3.741   2.064
 1035HOH     H2 3311   0.283   3.606   2.024
 1036HOH      O 3312   2.668   1.503   2.743
 1036HOH     H1 3313   2.587   1.493   2.792
 1036HOH     H2 3314   2.656   1.584   2.692
 1037HOH      O 3315   2.429   0.570   1.263
 1037HOH     H1 3316   2.477   0.506   1.315
 1037HOH     H2 3317   2.390   0.628   1.328
 1038HOH      O 3318   3.450   3.383   1.813
 1038HOH     H1 3319   3.375   3.422   1.857
 1038HOH     H2 3320   3.462   3.299   1.857
 1039HOH      O 3321   3.505   2.796   3.794
 1039HOH     H1 3322   3.500   2.700   3.790
 1039HOH     H2 3323   3.536   2.822   3.708
 1040HOH      O 3324   3.133   0.539   3.615
 1040HOH     H1 3325   3.145   0.514   3.523
 1040HOH     H2 3326   3.213   0.508   3.658
 1041HOH      O 3327   3.916   2.581   2.862
 1041HOH     H1 3328   3.976   2.508   2.879
 1041HOH     H2 3329   3.929   2.601   2.769
 1042HOH      O 3330   0.176   1.239   0.781
 1042HOH     H1 3331   0.111   1.308   0.790
 1042HOH     H2 3332   0.126   1.158   0.795
 1043HOH      O 3333   2.721   1.323   2.330
 1043HOH     H1 3334   2.768   1.286   2.405
 1043HOH     H2 3335   2.750   1.272   2.255
 1044HOH      O 3336   3.041   0.459   1.641
 1044HOH     H1 3337   3.054   0.373   1.682
 1044HOH     H2 3338   3.110   0.514   1.680
 1045HOH      O 3339   1.400   0.267   3.992
 1045HOH     H1 3340   1.486   0.288   3.957
 1045HOH     H2 3341   1.410   0.275   4.087
 1046HOH      O 3342   0.806   2.735   2.981
 1046HOH     H1 3343   0.870   2.721   2.911
 1046HOH     H2 3344   0.725   2.697   2.946
 1047HOH      O 3345   2.721   3.445   1.440
 1047HOH     H1 3346   2.667   3.383   1.489
 1047HOH     H2 3347   2.728   3.406   1.352
 1048HOH      O 3348   2.085   2.337   0.550
 1048HOH     H1 3349   2.096   2.431   0.565
 1048HOH     H2 3350   2.018   2.311   0.613
 1049HOH      O 3351   2.528   2.933   3.994
 1049HOH     H1 3352   2.498   3.023   3.980
 1049HOH     H2 3353   2.619   2.942   4.022
 1050HOH      O 3354   0.897   3.051   2.083
 1050HOH     H1 3355   0.822   3.103   2.053
 1050HOH     H2 3356   0.952   3.114   2.130
 1051HOH      O 3357   1.525   2.823   3.087
 1051HOH     H1 3358   1.588   2.767   3.040
 1051HOH     H2 3359   1.558   2.826   3.177
 1052HOH      O 3360   2.314   0.541   2.796
 1052HOH     H1 3361   2.318   0.452   2.830
 1052HOH     H2 3362   2.225   0.570   2.816
 1053HOH      O 3363   3.100   2.285   2.524
 1053HOH     H1 3364   3.123   2.281   2.617
 1053HOH     H2 3365   3.082   2.195   2.499
 1054HOH      O 3366   0.817   1.070   3.051
 1054HOH     H1 3367   0.746   1.081   3.114
 1054HOH     H2 3368   0.897   1.092   3.100
 1055HOH      O 3369   1.291   2.193   3.722
 1055HOH     H1 3370   1.226   2.202   3.652
 1055HOH     H2 3371   1.346   2.120   3.693
 1056HOH      O 3372   2.025   0.436   2.302
 1056HOH     H1 3373   2.052   0.403   2.387
 1056HOH     H2 3374   2.057   0.526   2.300
 1057HOH      O 3375   2.713   2.780   3.532
 1057HOH     H1 3376   2.784   2.801   3.593
 1057HOH     H2 3377   2.633   2.789   3.584
 1058HOH      O 3378   3.475   0.339   2.434
 1058HOH     H1 3379   3.455   0.254   2.396
 1058HOH     H2 3380   3.481   0.322   2.528
 1059HOH      O 3381   3.114   0.599   3.347
 1059HOH     H1 3382   3.047   0.543   3.311
 1059HOH     H2 3383   3.138   0.658   3.275
 1060HOH      O 3384   2.677   1.482   1.825
 1060HOH     H1 3385   2.731   1.457   1.900
 1060HOH     H2 3386   2.740   1.501   1.755
 1061HOH      O 3387   3.066   0.292   2.459
 1061HOH     H1 3388   3.137   0.341   2.417
 1061HOH     H2 3389   3.110   0.217   2.499
 1062HOH      O 3390   3.506   0.247   0.962
 1062HOH     H1 3391   3.497   0.287   1.049
 1062HOH     H2 3392   3.600   0.249   0.944
 1063HOH      O 3393   1.455   0.689   3.424
 1063HOH     H1 3394   1.414   0.698   3.338
 1063HOH     H2 3395   1.529   0.630   3.409
 1064HOH      O 3396   2.023   0.722   1.719
 1064HOH     H1 3397   1.984   0.722   1.806
 1064HOH     H2 3398   2.103   0.670   1.729
 1065HOH      O 3399   1.652   1.134   3.946
 1065HOH     H1 3400   1.678   1.115   4.036
 1065HOH     H2 3401   1.679   1.057   3.896
 1066HOH      O 3402   3.809   2.437   3.322
 1066HOH     H1 3403   3.767   2.478   3.246
 1066HOH     H2 3404   3.897   2.475   3.324
 1067HOH      O 3405   1.041   1.745   0.707
 1067HOH     H1 3406   1.044   1.663   0.756
 1067HOH     H2 3407   1.105   1.802   0.750
 1068HOH      O 3408   2.045   3.324   2.452
 1068HOH     H1 3409   2.063   3.347   2.361
 1068HOH     H2 3410   1.957   3.288   2.451
 1069HOH      O 3411   3.732   4.005   1.851
 1069HOH     H1 3412   3.803   4.003   1.786
 1069HOH     H2 3413   3.661   3.955   1.809
 1070HOH      O 3414   1.394   4.026   0.040
 1070HOH     H1 3415   1.328   3.960   0.018
 1070HOH     H2 3416   1.343   4.107   0.050
 1071HOH      O 3417   3.397   0.461   0.626
 1071HOH     H1 3418   3.408   0.452   0.531
 1071HOH     H2 3419   3.313   0.506   0.636
 1072HOH      O 3420   0.224   1.203   1.787
 1072HOH     H1 3421   0.189   1.239   1.705
 1072HOH     H2 3422   0.210   1.272   1.852
 1073HOH      O 3423   3.519   4.009   0.300
 1073HOH     H1 3424   3.537   4.022   0.207
 1073HOH     H2 3425   3.476   4.090   0.328
 1074HOH      O 3426   0.020   3.162   3.538
 1074HOH     H1 3427   0.012   3.237   3.479
 1074HOH     H2 3428  -0.023   3.090   3.492
 1075HOH      O 3429   2.993   2.034   2.473
 1075HOH     H1 3430   2.941   2.087   2.533
 1075HOH     H2 3431   2.928   1.988   2.420
 1076HOH      O 3432   0.673   0.051   3.796
 1076HOH     H1 3433   0.629  -0.022   3.752
 1076HOH     H2 3434   0.696   0.111   3.725
 1077HOH      O 3435   3.717   1.930   3.461
 1077HOH     H1 3436   3.623   1.940   3.474
 1077HOH     H2 3437   3.757   1.977   3.534
 1078HOH      O 3438   3.764   1.981   2.197
 1078HOH     H1 3439   3.758   1.896   2.241
 1078HOH     H2 3440   3.839   2.023   2.237
 1079HOH      O 3441   1.502   0.896   1.580
 1079HOH     H1 3442   1.436   0.937   1.636
 1079HOH     H2 3443   1.573   0.873   1.640
 1080HOH      O 3444   0.110   0.965   0.857
 1080HOH     H1 3445   0.116   0.966   0.952
 1080HOH     H2 3446   0.017   0.958   0.839
 1081HOH      O 3447   1.870   2.019   3.347
 1081HOH     H1 3448   1.958   2.018   3.311
 1081HOH     H2 3449   1.817   1.971   3.284
 1082HOH      O 3450   1.631   0.771   1.797
 1082HOH     H1 3451   1.638   0.746   1.889
 1082HOH     H2 3452   1.616   0.688   1.751
 1083HOH      O 3453   0.920   1.264   1.685
 1083HOH     H1 3454   0.847   1.290   1.741
 1083HOH     H2 3455   0.880   1.254   1.598
 1084HOH      O 3456   2.563   3.149   2.869
 1084HOH     H1 3457   2.496   3.114   2.811
 1084HOH     H2 3458   2.644   3.140   2.820
 1085HOH      O 3459   0.488   3.258   1.560
 1085HOH     H1 3460   0.398   3.287   1.546
 1085HOH     H2 3461   0.487   3.164   1.541
 1086HOH      O 3462   1.530   3.860   0.410
 1086HOH     H1 3463   1.548   3.836   0.500
 1086HOH     H2 3464   1.442   3.825   0.392
 1087HOH      O 3465   2.076   0.555   0.315
 1087HOH     H1 3466   2.026   0.543   0.396
 1087HOH     H2 3467   2.118   0.471   0.300
 1088HOH      O 3468   1.926   3.321   2.177
 1088HOH     H1 3469   1.915   3.226   2.173
 1088HOH     H2 3470   1.884   3.354   2.098
 1089HOH      O 3471   0.638   0.115   2.467
 1089HOH     H1 3472   0.671   0.168   2.395
 1089HOH     H2 3473   0.631   0.027   2.431
 1090HOH      O 3474   0.017   1.012   1.686
 1090HOH     H1 3475   0.110   0.994   1.672
 1090HOH     H2 3476  -0.001   1.090   1.633
 1091HOH      O 3477   3.973   3.563   2.584
 1091HOH     H1 3478   4.020   3.530   2.507
 1091HOH     H2 3479   4.031   3.629   2.621
 1092HOH      O 3480   0.141   3.673   0.204
 1092HOH     H1 3481   0.098   3.670   0.289
 1092HOH     H2 3482   0.153   3.581   0.180
 1093HOH      O 3483   0.849   2.466   3.201
 1093HOH     H1 3484   0.871   2.467   3.108
 1093HOH     H2 3485   0.755   2.446   3.203
 1094HOH      O 3486   3.059   3.413   2.819
 1094HOH     H1 3487   2.980   3.363   2.797
 1094HOH     H2 3488   3.087   3.451   2.736
 1095HOH      O 3489   3.626   3.839   3.433
 1095HOH     H1 3490   3.702   3.794   3.469
 1095HOH     H2 3491   3.607   3.792   3.351
 1096HOH      O 3492   1.770   3.927   2.845
 1096HOH     H1 3493   1.751   3.928   2.751
 1096HOH     H2 3494   1.692   3.966   2.886
 1097HOH      O 3495   0.898   2.114   3.382
 1097HOH     H1 3496   0.953   2.193   3.382
 1097HOH     H2 3497   0.810   2.146   3.362
 1098HOH      O 3498   3.022   3.310   1.447
 1098HOH     H1 3499   3.051   3.241   1.507
 1098HOH     H2 3500   2.987   3.263   1.371
 1099HOH      O 3501   3.930   2.328   3.668
 1099HOH     H1 3502   3.858   2.389   3.653
 1099HOH     H2 3503   4.008   2.374   3.637
 1100HOH      O 3504   2.686   0.496   2.993
 1100HOH     H1 3505   2.672   0.446   2.913
 1100HOH     H2 3506   2.630   0.574   2.983
 1101HOH      O 3507   3.356   0.747   1.340
 1101HOH     H1 3508   3.346   0.831   1.387
 1101HOH     H2 3509   3.445   0.719   1.361
 1102HOH      O 3510   2.797   2.043   3.565
 1102HOH     H1 3511   2.747   2.091   3.499
 1102HOH     H2 3512   2.741   2.042   3.642
 1103HOH      O 3513   1.365   1.978   0.559
 1103HOH     H1 3514   1.385   2.050   0.499
 1103HOH     H2 3515   1.334   1.908   0.501
 1104HOH      O 3516   1.283   2.099   0.013
 1104HOH     H1 3517   1.297   2.015   0.056
 1104HOH     H2 3518   1.371   2.129  -0.011
 1105HOH      O 3519   3.886   0.424   0.153
 1105HOH     H1 3520   3.941   0.369   0.097
 1105HOH     H2 3521   3.830   0.362   0.200
 1106HOH      O 3522   3.917   0.650   3.246
 1106HOH     H1 3523   3.850   0.719   3.250
 1106HOH     H2 3524   3.930   0.635   3.152
 1107HOH      O 3525   2.162   0.348   0.138
 1107HOH     H1 3526   2.188   0.295   0.062
 1107HOH     H2 3527   2.175   0.290   0.213
 1108HOH      O 3528   3.684   0.011   3.799
 1108HOH     H1 3529   3.620  -0.057   3.781
 1108HOH     H2 3530   3.701   0.052   3.713
 1109HOH      O 3531   1.639   2.529   2.137
 1109HOH     H1 3532   1.626   2.557   2.227
 1109HOH     H2 3533   1.706   2.461   2.142
 1110HOH      O 3534   0.673   3.594   3.722
 1110HOH     H1 3535   0.753   3.582   3.670
 1110HOH     H2 3536   0.697   3.660   3.787
 1111HOH      O 3537   2.652   2.265   0.262
 1111HOH     H1 3538   2.712   2.285   0.333
 1111HOH     H2 3539   2.566   2.294   0.294
 1112HOH      O 3540   3.850   2.159   3.984
 1112HOH     H1 3541   3.935   2.140   3.943
 1112HOH     H2 3542   3.794   2.086   3.958
 1113HOH      O 3543   1.531   3.105   2.564
 1113HOH     H1 3544   1.507   3.122   2.655
 1113HOH     H2 3545   1.559   3.014   2.564
 1114HOH      O 3546   1.303   1.050   3.208
 1114HOH     H1 3547   1.373   1.109   3.236
 1114HOH     H2 3548   1.344   0.995   3.141
 1115HOH      O 3549   3.493   2.976   2.483
 1115HOH     H1 3550   3.492   2.898   2.540
 1115HOH     H2 3551   3.409   3.018   2.498
 1116HOH      O 3552   4.037   0.889   3.406
 1116HOH     H1 3553   3.959   0.835   3.389
 1116HOH     H2 3554   4.090   0.879   3.327
 1117HOH      O 3555   0.063   0.276   0.961
 1117HOH     H1 3556   0.060   0.241   1.050
 1117HOH     H2 3557   0.080   0.369   0.973
 1118HOH      O 3558   0.560   0.633   1.463
 1118HOH     H1 3559   0.532   0.548   1.428
 1118HOH     H2 3560   0.650   0.642   1.432
 1119HOH      O 3561   1.333   0.359   0.801
 1119HOH     H1 3562   1.400   0.413   0.759
 1119HOH     H2 3563   1.264   0.351   0.734
 1120HOH      O 3564   1.159   3.939   3.835
 1120HOH     H1 3565   1.118   3.939   3.748
 1120HOH     H2 3566   1.211   4.020   3.837
 1121HOH      O 3567   1.114   3.405   2.053
 1121HOH     H1 3568   1.109   3.332   2.115
 1121HOH     H2 3569   1.076   3.479   2.102
 1122HOH      O 3570   2.139   3.276   2.743
 1122HOH     H1 3571   2.090   3.354   2.716
 1122HOH     H2 3572   2.150   3.285   2.837
 1123HOH      O 3573   3.195   3.742   2.147
 1123HOH     H1 3574   3.178   3.694   2.229
 1123HOH     H2 3575   3.268   3.800   2.169
 1124HOH      O 3576   0.714   1.564   1.639
 1124HOH     H1 3577   0.668   1.488   1.676
 1124HOH     H2 3578   0.764   1.600   1.713
 1125HOH      O 3579   1.189   1.078   3.634
 1125HOH     H1 3580   1.255   1.011   3.616
 1125HOH     H2 3581   1.223   1.157   3.591
 1126HOH      O 3582   2.319   2.847   1.638
 1126HOH     H1 3583   2.317   2.899   1.719
 1126HOH     H2 3584   2.406   2.862   1.602
 1127HOH      O 3585   0.599   2.082   2.279
 1127HOH     H1 3586   0.629   2.122   2.197
 1127HOH     H2 3587   0.658   2.008   2.293
 1128HOH      O 3588   0.045   3.164   0.866
 1128HOH     H1 3589   0.071   3.223   0.937
 1128HOH     H2 3590  -0.038   3.200   0.835
 1129HOH      O 3591   2.204   3.691   2.649
 1129HOH     H1 3592   2.130   3.738   2.688
 1129HOH     H2 3593   2.239   3.637   2.720
 1130HOH      O 3594   3.868   1.392   0.565
 1130HOH     H1 3595   3.834   1.372   0.653
 1130HOH     H2 3596   3.801   1.359   0.505
 1131HOH      O 3597   0.154   0.564   0.959
 1131HOH     H1 3598   0.093   0.626   0.999
 1131HOH     H2 3599   0.200   0.615   0.892
 1132HOH      O 3600   1.816   0.099   3.422
 1132HOH     H1 3601   1.830   0.085   3.328
 1132HOH     H2 3602   1.858   0.024   3.464
 1133HOH      O 3603   0.390   0.724   3.854
 1133HOH     H1 3604   0.317   0.780   3.881
 1133HOH     H2 3605   0.452   0.785   3.813
 1134HOH      O 3606   1.448   2.464   1.699
 1134HOH     H1 3607   1.526   2.410   1.693
 1134HOH     H2 3608   1.387   2.413   1.753
 1135HOH      O 3609   1.337   2.236   1.846
 1135HOH     H1 3610   1.257   2.212   1.894
 1135HOH     H2 3611   1.390   2.283   1.910
 1136HOH      O 3612   0.435   3.619   2.873
 1136HOH     H1 3613   0.378   3.544   2.858
 1136HOH     H2 3614   0.489   3.593   2.947
 1137HOH      O 3615   0.833   0.099   4.028
 1137HOH     H1 3616   0.770   0.042   4.072
 1137HOH     H2 3617   0.798   0.109   3.939
 1138HOH      O 3618   1.605   1.919   0.702
 1138HOH     H1 3619   1.516   1.941   0.674
 1138HOH     H2 3620   1.661   1.947   0.630
 1139HOH      O 3621   3.040   0.138   3.435
 1139HOH     H1 3622   3.122   0.126   3.482
 1139HOH     H2 3623   3.059   0.109   3.346
 1140HOH      O 3624   0.504   3.191   2.270
 1140HOH     H1 3625   0.479   3.170   2.360
 1140HOH     H2 3626   0.445   3.138   2.216
 1141HOH      O 3627   1.458   1.228   2.993
 1141HOH     H1 3628   1.512   1.178   2.932
 1141HOH     H2 3629   1.521   1.275   3.047
 1142HOH      O 3630   1.052   2.431   0.648
 1142HOH     H1 3631   1.075   2.475   0.566
 1142HOH     H2 3632   0.958   2.446   0.658
 1143HOH      O 3633   1.059   1.237   3.811
 1143HOH     H1 3634   0.967   1.223   3.790
 1143HOH     H2 3635   1.106   1.177   3.754
 1144HOH      O 3636   3.174   3.564   0.127
 1144HOH     H1 3637   3.255   3.594   0.166
 1144HOH     H2 3638   3.117   3.544   0.202
 1145HOH      O 3639   2.869   1.252   1.163
 1145HOH     H1 3640   2.889   1.314   1.233
 1145HOH     H2 3641   2.774   1.242   1.166
 1146HOH      O 3642   3.980   2.920   0.696
 1146HOH     H1 3643   3.905   2.884   0.648
 1146HOH     H2 3644   3.948   3.002   0.733
 1147HOH      O 3645   0.845   0.074   2.740
 1147HOH     H1 3646   0.841   0.168   2.760
 1147HOH     H2 3647   0.857   0.071   2.645
 1148HOH      O 3648   1.994   2.601   3.474
 1148HOH     H1 3649   2.033   2.628   3.391
 1148HOH     H2 3650   2.035   2.517   3.495
 1149HOH      O 3651   3.213   3.442   3.926
 1149HOH     H1 3652   3.120   3.444   3.905
 1149HOH     H2 3653   3.219   3.484   4.012
 1150HOH      O 3654   3.775   3.098   3.728
 1150HOH     H1 3655   3.750   3.180   3.772
 1150HOH     H2 3656   3.807   3.042   3.799
 1151HOH      O 3657   1.391   2.267   2.485
 1151HOH     H1 3658   1.322   2.332   2.498
 1151HOH     H2 3659   1.345   2.189   2.453
 1152HOH      O 3660   0.180   2.207   0.291
 1152HOH     H1 3661   0.085   2.193   0.287
 1152HOH     H2 3662   0.207   2.162   0.371
 1153HOH      O 3663   1.742   0.890   3.879
 1153HOH     H1 3664   1.835   0.867   3.874
 1153HOH     H2 3665   1.706   0.864   3.795
 1154HOH      O 3666   1.312   2.680   2.253
 1154HOH     H1 3667   1.243   2.620   2.279
 1154HOH     H2 3668   1.307   2.682   2.157
 1155HOH      O 3669   3.920   3.505   0.202
 1155HOH     H1 3670   3.941   3.450   0.127
 1155HOH     H2 3671   3.828   3.528   0.189
 1156HOH      O 3672   2.817   2.990   4.058
 1156HOH     H1 3673   2.866   3.065   4.024
 1156HOH     H2 3674   2.868   2.913   4.029
 1157HOH      O 3675   0.090   3.728   0.547
 1157HOH     H1 3676   0.061   3.645   0.585
 1157HOH     H2 3677   0.148   3.766   0.612
 1158HOH      O 3678   0.822   3.319   3.543
 1158HOH     H1 3679   0.835   3.412   3.524
 1158HOH     H2 3680   0.761   3.289   3.475
 1159HOH      O 3681   3.347   1.096   3.022
 1159HOH     H1 3682   3.361   1.188   3.003
 1159HOH     H2 3683   3.274   1.071   2.965
 1160HOH      O 3684   3.734   1.958   1.305
 1160HOH     H1 3685   3.691   1.892   1.250
 1160HOH     H2 3686   3.791   1.907   1.363
 1161HOH      O 3687   1.487   1.663   1.441
 1161HOH     H1 3688   1.581   1.667   1.459
 1161HOH     H2 3689   1.453   1.746   1.475
 1162HOH      O 3690   0.723   2.139   2.012
 1162HOH     H1 3691   0.716   2.100   1.925
 1162HOH     H2 3692   0.792   2.089   2.055
 1163HOH      O 3693   1.662   2.855   3.323
 1163HOH     H1 3694   1.751   2.880   3.349
 1163HOH     H2 3695   1.655   2.764   3.352
 1164HOH      O 3696   1.190   2.728   3.269
 1164HOH     H1 3697   1.102   2.737   3.232
 1164HOH     H2 3698   1.226   2.817   3.266
 1165HOH      O 3699   2.151   3.643   3.098
 1165HOH     H1 3700   2.182   3.637   3.189
 1165HOH     H2 3701   2.055   3.639   3.106
 1166HOH      O 3702   3.294   0.509   1.750
 1166HOH     H1 3703   3.378   0.466   1.732
 1166HOH     H2 3704   3.313   0.602   1.747
 1167HOH      O 3705   0.698   2.554   1.382
 1167HOH     H1 3706   0.722   2.597   1.300
 1167HOH     H2 3707   0.641   2.482   1.356
 1168HOH      O 3708   3.762   0.134   1.231
 1168HOH     H1 3709   3.688   0.108   1.176
 1168HOH     H2 3710   3.722   0.188   1.300
 1169HOH      O 3711   3.514   3.071   3.779
 1169HOH     H1 3712   3.591   3.069   3.721
 1169HOH     H2 3713   3.499   2.979   3.802
 1170HOH      O 3714   0.287   3.253   0.298
 1170HOH     H1 3715   0.336   3.234   0.378
 1170HOH     H2 3716   0.197   3.227   0.318
 1171HOH      O 3717   3.244   2.796   1.906
 1171HOH     H1 3718   3.198   2.712   1.913
 1171HOH     H2 3719   3.288   2.807   1.990
 1172HOH      O 3720   3.385   0.431   3.747
 1172HOH     H1 3721   3.362   0.340   3.769
 1172HOH     H2 3722   3.414   0.470   3.829
 1173HOH      O 3723   3.559   0.385   1.743
 1173HOH     H1 3724   3.525   0.298   1.722
 1173HOH     H2 3725   3.650   0.370   1.768
 1174HOH      O 3726   0.711   1.096   1.912
 1174HOH     H1 3727   0.767   1.081   1.836
 1174HOH     H2 3728   0.622   1.095   1.877
 1175HOH      O 3729   2.390   3.142   1.792
 1175HOH     H1 3730   2.480   3.112   1.776
 1175HOH     H2 3731   2.398   3.237   1.800
 1176HOH      O 3732   0.262   0.570   0.459
 1176HOH     H1 3733   0.179   0.570   0.411
 1176HOH     H2 3734   0.303   0.653   0.435
 1177HOH      O 3735   0.703   2.060   3.073
 1177HOH     H1 3736   0.671   2.116   3.144
 1177HOH     H2 3737   0.720   1.976   3.114
 1178HOH      O 3738   0.653   1.229   0.193
 1178HOH     H1 3739   0.642   1.214   0.286
 1178HOH     H2 3740   0.630   1.322   0.181
 1179HOH      O 3741   1.503   2.109   1.648
 1179HOH     H1 3742   1.595   2.108   1.675
 1179HOH     H2 3743   1.455   2.134   1.726
 1180HOH      O 3744   1.490   1.566   0.518
 1180HOH     H1 3745   1.439   1.510   0.578
 1180HOH     H2 3746   1.482   1.523   0.433
 1181HOH      O 3747   2.750   1.106   0.843
 1181HOH     H1 3748   2.695   1.054   0.785
 1181HOH     H2 3749   2.801   1.161   0.783
 1182HOH      O 3750   0.055   2.902   0.036
 1182HOH     H1 3751   0.128   2.956   0.006
 1182HOH     H2 3752   0.096   2.824   0.073
 1183HOH      O 3753   0.342   2.453   2.098
 1183HOH     H1 3754   0.380   2.370   2.070
 1183HOH     H2 3755   0.280   2.429   2.167
 1184HOH      O 3756   2.503   1.473   2.258
 1184HOH     H1 3757   2.594   1.446   2.270
 1184HOH     H2 3758   2.451   1.398   2.288
 1185HOH      O 3759   0.234   1.105   2.719
 1185HOH     H1 3760   0.197   1.152   2.793
 1185HOH     H2 3761   0.165   1.108   2.652
 1186HOH      O 3762   0.410   2.469   2.552
 1186HOH     H1 3763   0.443   2.559   2.547
 1186HOH     H2 3764   0.458   2.423   2.483
 1187HOH      O 3765   0.836   1.010   2.290
 1187HOH     H1 3766   0.755   0.964   2.312
 1187HOH     H2 3767   0.874   1.034   2.374
 1188HOH      O 3768   0.934   3.766   1.852
 1188HOH     H1 3769   0.944   3.783   1.758
 1188HOH     H2 3770   0.935   3.852   1.893
 1189HOH      O 3771   2.053   0.194   3.904
 1189HOH     H1 3772   1.982   0.174   3.965
 1189HOH     H2 3773   2.075   0.110   3.863
 1190HOH      O 3774   2.651   3.401   2.540
 1190HOH     H1 3775   2.710   3.364   2.607
 1190HOH     H2 3776   2.603   3.326   2.507
 1191HOH      O 3777   3.506   0.956   3.482
 1191HOH     H1 3778   3.479   0.865   3.494
 1191HOH     H2 3779   3.565   0.953   3.406
 1192HOH      O 3780   2.984   3.149   0.532
 1192HOH     H1 3781   2.992   3.155   0.436
 1192HOH     H2 3782   2.970   3.240   0.560
 1193HOH      O 3783   0.329   1.635   1.392
 1193HOH     H1 3784   0.337   1.540   1.400
 1193HOH     H2 3785   0.417   1.665   1.370
 1194HOH      O 3786   1.955   0.036   0.426
 1194HOH     H1 3787   2.046   0.007   0.425
 1194HOH     H2 3788   1.927   0.023   0.516
 1195HOH      O 3789   0.155   3.972   1.520
 1195HOH     H1 3790   0.200   3.913   1.460
 1195HOH     H2 3791   0.153   4.056   1.474
 1196HOH      O 3792   1.154   2.926   2.386
 1196HOH     H1 3793   1.230   2.961   2.337
 1196HOH     H2 3794   1.151   2.834   2.363
 1197HOH      O 3795   2.066   0.977   1.651
 1197HOH     H1 3796   2.044   0.973   1.558
 1197HOH     H2 3797   2.073   0.886   1.678
 1198HOH      O 3798   3.331   4.011   1.748
 1198HOH     H1 3799   3.240   3.983   1.737
 1198HOH     H2 3800   3.327   4.089   1.802
 1199HOH      O 3801   2.157   1.120   1.874
 1199HOH     H1 3802   2.132   1.036   1.913
 1199HOH     H2 3803   2.167   1.102   1.781
 1200HOH      O 3804   0.133   1.861   2.673
 1200HOH     H1 3805   0.040   1.875   2.652
 1200HOH     H2 3806   0.132   1.796   2.743
 1201HOH      O 3807   0.864   3.626   2.966
 1201HOH     H1 3808   0.804   3.685   2.920
 1201HOH     H2 3809   0.920   3.684   3.017
 1202HOH      O 3810   1.678   3.468   0.079
 1202HOH     H1 3811   1.591   3.491   0.112
 1202HOH     H2 3812   1.732   3.460   0.158
 1203HOH      O 3813   2.120   3.863   1.551
 1203HOH     H1 3814   2.080   3.777   1.539
 1203HOH     H2 3815   2.112   3.881   1.644
 1204HOH      O 3816   1.404   1.609   1.179
 1204HOH     H1 3817   1.402   1.636   1.270
 1204HOH     H2 3818   1.493   1.631   1.149
 1205HOH      O 3819   1.705   0.802   0.674
 1205HOH     H1 3820   1.741   0.887   0.649
 1205HOH     H2 3821   1.776   0.759   0.722
 1206HOH      O 3822   2.214   2.589   2.000
 1206HOH     H1 3823   2.163   2.615   1.924
 1206HOH     H2 3824   2.154   2.595   2.073
 1207HOH      O 3825   3.787   1.751   3.227
 1207HOH     H1 3826   3.774   1.810   3.153
 1207HOH     H2 3827   3.783   1.808   3.304
 1208HOH      O 3828   2.892   2.665   2.641
 1208HOH     H1 3829   2.852   2.729   2.581
 1208HOH     H2 3830   2.863   2.580   2.608
 1209HOH      O 3831   1.100   0.768   2.580
 1209HOH     H1 3832   1.088   0.844   2.638
 1209HOH     H2 3833   1.094   0.692   2.638
 1210HOH      O 3834   1.851   2.881   0.901
 1210HOH     H1 3835   1.780   2.830   0.941
 1210HOH     H2 3836   1.815   2.910   0.817
 1211HOH      O 3837   3.063   3.430   0.793
 1211HOH     H1 3838   3.057   3.442   0.888
 1211HOH     H2 3839   3.150   3.462   0.770
 1212HOH      O 3840   0.895   1.673   1.806
 1212HOH     H1 3841   0.867   1.601   1.863
 1212HOH     H2 3842   0.980   1.699   1.840
 1213HOH      O 3843   0.405   1.076   1.129
 1213HOH     H1 3844   0.367   1.130   1.199
 1213HOH     H2 3845   0.377   0.987   1.150
 1214HOH      O 3846   2.778   3.617   2.724
 1214HOH     H1 3847   2.758   3.565   2.803
 1214HOH     H2 3848   2.723   3.695   2.732
 1215HOH      O 3849   0.381   2.538   0.773
 1215HOH     H1 3850   0.295   2.514   0.808
 1215HOH     H2 3851   0.406   2.463   0.717
 1216HOH      O 3852   1.278   0.696   0.502
 1216HOH     H1 3853   1.308   0.661   0.418
 1216HOH     H2 3854   1.295   0.625   0.565
 1217HOH      O 3855   4.011   0.129   2.533
 1217HOH     H1 3856   4.033   0.112   2.442
 1217HOH     H2 3857   3.981   0.221   2.534
 1218HOH      O 3858   0.428   1.115   2.189
 1218HOH     H1 3859   0.346   1.096   2.233
 1218HOH     H2 3860   0.496   1.076   2.245
 1219HOH      O 3861   3.444   3.001   1.306
 1219HOH     H1 3862   3.501   2.952   1.246
 1219HOH     H2 3863   3.467   2.967   1.392
 1220HOH      O 3864   0.383   0.474   1.094
 1220HOH     H1 3865   0.292   0.487   1.067
 1220HOH     H2 3866   0.430   0.464   1.011
 1221HOH      O 3867   0.057   3.224   3.806
 1221HOH     H1 3868   0.039   3.183   3.721
 1221HOH     H2 3869   0.150   3.205   3.821
 1222HOH      O 3870   3.736   0.343   3.412
 1222HOH     H1 3871   3.693   0.404   3.471
 1222HOH     H2 3872   3.826   0.374   3.406
 1223HOH      O 3873   3.846   2.759   2.079
 1223HOH     H1 3874   3.762   2.794   2.049
 1223HOH     H2 3875   3.827   2.669   2.105
 1224HOH      O 3876   1.159   1.126   0.080
 1224HOH     H1 3877   1.179   1.106  -0.011
 1224HOH     H2 3878   1.077   1.176   0.077
 1225HOH      O 3879   0.752   0.242   1.328
 1225HOH     H1 3880   0.714   0.317   1.282
 1225HOH     H2 3881   0.820   0.210   1.268
 1226HOH      O 3882   3.192   3.839   0.459
 1226HOH     H1 3883   3.096   3.838   0.468
 1226HOH     H2 3884   3.224   3.876   0.541
 1227HOH      O 3885   0.981   2.923   1.874
 1227HOH     H1 3886   0.889   2.916   1.848
 1227HOH     H2 3887   0.979   2.961   1.962
 1228HOH      O 3888   2.649   2.264   0.920
 1228HOH     H1 3889   2.566   2.287   0.961
 1228HOH     H2 3890   2.638   2.173   0.893
 1229HOH      O 3891   0.836   0.231   0.854
 1229HOH     H1 3892   0.796   0.162   0.800
 1229HOH     H2 3893   0.791   0.311   0.826
 1230HOH      O 3894   1.409   1.032   2.053
 1230HOH     H1 3895   1.323   1.072   2.039
 1230HOH     H2 3896   1.471   1.101   2.028
 1231HOH      O 3897   3.931   2.937   1.425
 1231HOH     H1 3898   3.906   2.871   1.361
 1231HOH     H2 3899   3.854   2.993   1.434
 1232HOH      O 3900   1.765   3.386   1.983
 1232HOH     H1 3901   1.726   3.472   1.998
 1232HOH     H2 3902   1.708   3.344   1.919
 1233HOH      O 3903   2.951   2.657   2.958
 1233HOH     H1 3904   2.867   2.669   3.002
 1233HOH     H2 3905   2.930   2.658   2.865
 1234HOH      O 3906   1.209   1.681  -0.009
 1234HOH     H1 3907   1.206   1.592   0.026
 1234HOH     H2 3908   1.137   1.727   0.034
 1235HOH      O 3909   0.103   3.976   1.829
 1235HOH     H1 3910   0.169   3.969   1.760
 1235HOH     H2 3911   0.140   4.039   1.891
 1236HOH      O 3912   1.978   3.590   0.837
 1236HOH     H1 3913   1.935   3.585   0.922
 1236HOH     H2 3914   2.070   3.608   0.857
 1237HOH      O 3915   1.283   1.842   2.692
 1237HOH     H1 3916   1.376   1.866   2.695
 1237HOH     H2 3917   1.243   1.892   2.763
 1238HOH      O 3918   0.349   0.408   3.825
 1238HOH     H1 3919   0.368   0.433   3.915
 1238HOH     H2 3920   0.339   0.492   3.779
 1239HOH      O 3921   1.375   1.889   1.501
 1239HOH     H1 3922   1.309   1.863   1.564
 1239HOH     H2 3923   1.408   1.973   1.534
 1240HOH      O 3924   1.062   3.548   3.943
 1240HOH     H1 3925   0.981   3.498   3.943
 1240HOH     H2 3926   1.040   3.630   3.988
 1241HOH      O 3927   1.162   0.965   1.152
 1241HOH     H1 3928   1.204   0.998   1.231
 1241HOH     H2 3929   1.068   0.977   1.168
 1242HOH      O 3930   1.087   3.891   3.565
 1242HOH     H1 3931   1.112   3.820   3.507
 1242HOH     H2 3932   1.143   3.964   3.539
 1243HOH      O 3933   3.647   1.978   3.857
 1243HOH     H1 3934   3.586   1.911   3.828
 1243HOH     H2 3935   3.716   1.979   3.790
 1244HOH      O 3936   3.878   3.430   3.716
 1244HOH     H1 3937   3.933   3.353   3.703
 1244HOH     H2 3938   3.819   3.405   3.788
 1245HOH      O 3939   1.042   0.495   2.774
 1245HOH     H1 3940   0.970   0.559   2.776
 1245HOH     H2 3941   1.002   0.413   2.802
 1246HOH      O 3942   1.003   3.623   1.293
 1246HOH     H1 3943   1.094   3.593   1.293
 1246HOH     H2 3944   1.010   3.718   1.288
 1247HOH      O 3945   2.603   0.336   2.785
 1247HOH     H1 3946   2.528   0.307   2.734
 1247HOH     H2 3947   2.666   0.368   2.720
 1248HOH      O 3948   2.708   3.450   2.929
 1248HOH     H1 3949   2.744   3.386   2.869
 1248HOH     H2 3950   2.622   3.415   2.952
 1249HOH      O 3951   2.345   3.909   2.562
 1249HOH     H1 3952   2.368   3.908   2.655
 1249HOH     H2 3953   2.280   3.839   2.552
 1250HOH      O 3954   2.480  -0.021   0.384
 1250HOH     H1 3955   2.500   0.066   0.419
 1250HOH     H2 3956   2.457  -0.005   0.292
 1251HOH      O 3957   1.325   1.454   0.957
 1251HOH     H1 3958   1.340   1.360   0.971
 1251HOH     H2 3959   1.372   1.496   1.029
 1252HOH      O 3960   2.203   0.656   2.305
 1252HOH     H1 3961   2.173   0.742   2.278
 1252HOH     H2 3962   2.250   0.671   2.387
 1253HOH      O 3963   1.545   0.021   2.924
 1253HOH     H1 3964   1.485   0.062   2.861
 1253HOH     H2 3965   1.488  -0.025   2.985
 1254HOH      O 3966   0.885   1.996   0.733
 1254HOH     H1 3967   0.974   1.965   0.748
 1254HOH     H2 3968   0.831   1.917   0.738
 1255HOH      O 3969   0.950   0.503   0.839
 1255HOH     H1 3970   0.984   0.563   0.773
 1255HOH     H2 3971   0.859   0.489   0.814
 1256HOH      O 3972   2.922   3.560   1.915
 1256HOH     H1 3973   2.900   3.652   1.931
 1256HOH     H2 3974   2.936   3.553   1.821
 1257HOH      O 3975   2.193   1.186   3.446
 1257HOH     H1 3976   2.139   1.249   3.495
 1257HOH     H2 3977   2.282   1.220   3.455
 1258HOH      O 3978   1.620   3.576   1.450
 1258HOH     H1 3979   1.653   3.493   1.483
 1258HOH     H2 3980   1.545   3.596   1.505
 1259HOH      O 3981   1.744   3.194   2.421
 1259HOH     H1 3982   1.667   3.164   2.470
 1259HOH     H2 3983   1.719   3.279   2.387
 1260HOH      O 3984   0.819   2.446   1.607
 1260HOH     H1 3985   0.814   2.443   1.512
 1260HOH     H2 3986   0.762   2.375   1.636
 1261HOH      O 3987   2.313   1.003   2.328
 1261HOH     H1 3988   2.222   0.972   2.325
 1261HOH     H2 3989   2.342   0.998   2.237
 1262HOH      O 3990   3.889   3.412   3.170
 1262HOH     H1 3991   3.930   3.419   3.084
 1262HOH     H2 3992   3.795   3.420   3.153
 1263HOH      O 3993   0.399   1.913   0.281
 1263HOH     H1 3994   0.318   1.936   0.325
 1263HOH     H2 3995   0.374   1.845   0.218
 1264HOH      O 3996   1.326   1.597   2.612
 1264HOH     H1 3997   1.320   1.685   2.648
 1264HOH     H2 3998   1.259   1.547   2.661
 1265HOH      O 3999   2.979   1.758   0.593
 1265HOH     H1 4000   3.027   1.819   0.651
 1265HOH     H2 4001   3.026   1.764   0.510
 1266HOH      O 4002   2.255   2.087   3.368
 1266HOH     H1 4003   2.196   2.053   3.301
 1266HOH     H2 4004   2.301   2.159   3.325
 1267HOH      O 4005   0.821   0.268   1.851
 1267HOH     H1 4006   0.750   0.221   1.894
 1267HOH     H2 4007   0.794   0.360   1.854
 1268HOH      O 4008   3.326   1.218   1.374
 1268HOH     H1 4009   3.253   1.279   1.380
 1268HOH     H2 4010   3.398   1.269   1.337
 1269HOH      O 4011   1.878   0.846   2.960
 1269HOH     H1 4012   1.833   0.862   2.877
 1269HOH     H2 4013   1.904   0.932   2.991
 1270HOH      O 4014   0.323   1.762   2.154
 1270HOH     H1 4015   0.308   1.856   2.167
 1270HOH     H2 4016   0.283   1.743   2.069
 1271HOH      O 4017   0.065   0.071   0.462
 1271HOH     H1 4018  -0.002   0.010   0.431
 1271HOH     H2 4019   0.107   0.103   0.383
 1272HOH      O 4020   2.278   3.164   0.498
 1272HOH     H1 4021   2.291   3.121   0.413
 1272HOH     H2 4022   2.244   3.250   0.476
 1273HOH      O 4023   3.344   1.067   4.062
 1273HOH     H1 4024   3.272   1.087   4.003
 1273HOH     H2 4025   3.421   1.065   4.006
 1274HOH      O 4026   3.011   1.257   2.406
 1274HOH     H1 4027   3.055   1.201   2.343
 1274HOH     H2 4028   2.999   1.201   2.483
 1275HOH      O 4029   3.965   0.221   3.795
 1275HOH     H1 4030   4.035   0.155   3.793
 1275HOH     H2 4031   3.900   0.189   3.733
 1276HOH      O 4032   0.415   2.927   2.464
 1276HOH     H1 4033   0.468   2.849   2.443
 1276HOH     H2 4034   0.361   2.940   2.386
 1277HOH      O 4035   2.165   2.028   1.727
 1277HOH     H1 4036   2.074   2.002   1.738
 1277HOH     H2 4037   2.210   1.993   1.804
 1278HOH      O 4038   2.834   1.394   2.022
 1278HOH     H1 4039   2.820   1.307   2.059
 1278HOH     H2 4040   2.844   1.451   2.098
 1279HOH      O 4041   3.885   0.359   2.413
 1279HOH     H1 4042   3.822   0.430   2.417
 1279HOH     H2 4043   3.964   0.398   2.377
 1280HOH      O 4044   2.775   2.117   1.913
 1280HOH     H1 4045   2.839   2.084   1.850
 1280HOH     H2 4046   2.756   2.041   1.969
 1281HOH      O 4047   2.790   2.738   1.097
 1281HOH     H1 4048   2.825   2.682   1.166
 1281HOH     H2 4049   2.699   2.710   1.088
 1282HOH      O 4050   2.825   2.615   3.762
 1282HOH     H1 4051   2.869   2.653   3.686
 1282HOH     H2 4052   2.818   2.521   3.741
 1283HOH      O 4053   1.903   2.675   2.852
 1283HOH     H1 4054   1.855   2.620   2.914
 1283HOH     H2 4055   1.859   2.760   2.856
 1284HOH      O 4056   0.685   1.657   2.463
 1284HOH     H1 4057   0.738   1.735   2.452
 1284HOH     H2 4058   0.619   1.681   2.527
 1285HOH      O 4059   0.920   4.024   0.281
 1285HOH     H1 4060   0.836   4.006   0.240
 1285HOH     H2 4061   0.971   4.069   0.214
 1286HOH      O 4062   0.348   0.049   0.310
 1286HOH     H1 4063   0.361   0.138   0.345
 1286HOH     H2 4064   0.292   0.062   0.233
 1287HOH      O 4065   1.665   0.530   3.442
 1287HOH     H1 4066   1.757   0.537   3.466
 1287HOH     H2 4067   1.666   0.483   3.358
 1288HOH      O 4068   1.043   2.090   3.903
 1288HOH     H1 4069   1.130   2.113   3.937
 1288HOH     H2 4070   1.045   2.119   3.812
 1289HOH      O 4071   2.226   1.254   0.492
 1289HOH     H1 4072   2.157   1.303   0.448
 1289HOH     H2 4073   2.271   1.318   0.547
 1290HOH      O 4074   3.078   2.080   3.783
 1290HOH     H1 4075   3.036   2.071   3.697
 1290HOH     H2 4076   3.024   2.144   3.829
 1291HOH      O 4077   1.261   1.006   3.892
 1291HOH     H1 4078   1.266   0.924   3.941
 1291HOH     H2 4079   1.216   0.982   3.811
 1292HOH      O 4080   0.769   4.003   1.677
 1292HOH     H1 4081   0.678   3.974   1.670
 1292HOH     H2 4082   0.820   3.935   1.632
 1293HOH      O 4083   3.360   0.694   0.104
 1293HOH     H1 4084   3.429   0.636   0.072
 1293HOH     H2 4085   3.302   0.705   0.028
 1294HOH      O 4086   2.200   1.189   2.679
 1294HOH     H1 4087   2.167   1.112   2.633
 1294HOH     H2 4088   2.292   1.194   2.654
 1295HOH      O 4089   0.122   0.820   0.053
 1295HOH     H1 4090   0.174   0.879  -0.002
 1295HOH     H2 4091   0.035   0.820   0.014
 1296HOH      O 4092   0.339   1.777   1.157
 1296HOH     H1 4093   0.254   1.804   1.124
 1296HOH     H2 4094   0.321   1.737   1.242
 1297HOH      O 4095   3.316   1.681   0.730
 1297HOH     H1 4096   3.332   1.661   0.638
 1297HOH     H2 4097   3.312   1.595   0.773
 1298HOH      O 4098   3.806   1.627   2.682
 1298HOH     H1 4099   3.738   1.641   2.616
 1298HOH     H2 4100   3.803   1.533   2.700
 1299HOH      O 4101   0.189   1.341   1.109
 1299HOH     H1 4102   0.267   1.324   1.055
 1299HOH     H2 4103   0.224   1.361   1.196
 1300HOH      O 4104   3.499   0.610   2.438
 1300HOH     H1 4105   3.591   0.633   2.423
 1300HOH     H2 4106   3.494   0.517   2.417
 1301HOH      O 4107   2.557   2.375   1.883
 1301HOH     H1 4108   2.525   2.465   1.874
 1301HOH     H2 4109   2.562   2.343   1.793
 1302HOH      O 4110   1.707   0.362   1.035
 1302HOH     H1 4111   1.625   0.313   1.036
 1302HOH     H2 4112   1.727   0.378   1.127
 1303HOH      O 4113   3.087   3.991   1.554
 1303HOH     H1 4114   3.096   4.056   1.485
 1303HOH     H2 4115   3.081   3.907   1.508
 1304HOH      O 4116   2.523   3.878   3.907
 1304HOH     H1 4117   2.576   3.869   3.827
 1304HOH     H2 4118   2.586   3.865   3.978
 1305HOH      O 4119   2.356   0.664   2.543
 1305HOH     H1 4120   2.432   0.610   2.523
 1305HOH     H2 4121   2.326   0.633   2.628
 1306HOH      O 4122   3.538   1.398   2.364
 1306HOH     H1 4123   3.612   1.457   2.379
 1306HOH     H2 4124   3.491   1.437   2.291
 1307HOH      O 4125   0.359   2.570   3.990
 1307HOH     H1 4126   0.425   2.637   3.967
 1307HOH     H2 4127   0.365   2.563   4.085
 1308HOH      O 4128   2.059   0.552   3.159
 1308HOH     H1 4129   2.153   0.540   3.177
 1308HOH     H2 4130   2.026   0.463   3.147
 1309HOH      O 4131   0.381   3.904   1.788
 1309HOH     H1 4132   0.337   3.855   1.857
 1309HOH     H2 4133   0.455   3.848   1.763
 1310HOH      O 4134   3.158   1.878   3.147
 1310HOH     H1 4135   3.140   1.787   3.170
 1310HOH     H2 4136   3.233   1.874   3.088
 1311HOH      O 4137   2.060   1.719   3.327
 1311HOH     H1 4138   1.994   1.692   3.263
 1311HOH     H2 4139   2.012   1.725   3.410
 1312HOH      O 4140   1.172   3.339   3.547
 1312HOH     H1 4141   1.188   3.351   3.641
 1312HOH     H2 4142   1.080   3.365   3.536
 1313HOH      O 4143   3.465   0.435   2.919
 1313HOH     H1 4144   3.546   0.445   2.970
 1313HOH     H2 4145   3.399   0.409   2.983
 1314HOH      O 4146   0.713   3.512   0.428
 1314HOH     H1 4147   0.637   3.464   0.395
 1314HOH     H2 4148   0.770   3.522   0.352
 1315HOH      O 4149   1.674   2.949   1.540
 1315HOH     H1 4150   1.677   2.853   1.540
 1315HOH     H2 4151   1.754   2.976   1.494
 1316HOH      O 4152   3.097   1.549   3.492
 1316HOH     H1 4153   3.054   1.471   3.528
 1316HOH     H2 4154   3.040   1.621   3.518
 1317HOH      O 4155   1.173   2.252   0.210
 1317HOH     H1 4156   1.189   2.183   0.145
 1317HOH     H2 4157   1.253   2.254   0.262
 1318HOH      O 4158   0.534   1.915   2.805
 1318HOH     H1 4159   0.518   1.995   2.754
 1318HOH     H2 4160   0.481   1.928   2.884
 1319HOH      O 4161   0.528   1.210   1.476
 1319HOH     H1 4162   0.613   1.255   1.475
 1319HOH     H2 4163   0.523   1.170   1.563
 1320HOH      O 4164   0.713   0.903   0.594
 1320HOH     H1 4165   0.782   0.931   0.654
 1320HOH     H2 4166   0.658   0.844   0.646
 1321HOH      O 4167   3.413   3.524   3.329
 1321HOH     H1 4168   3.486   3.492   3.276
 1321HOH     H2 4169   3.350   3.557   3.266
 1322HOH      O 4170   2.029   1.887   0.524
 1322HOH     H1 4171   2.097   1.878   0.591
 1322HOH     H2 4172   1.985   1.802   0.522
 1323HOH      O 4173   2.541   1.924   1.819
 1323HOH     H1 4174   2.509   1.837   1.794
 1323HOH     H2 4175   2.621   1.936   1.768
 1324HOH      O 4176   2.269   3.893   3.041
 1324HOH     H1 4177   2.216   3.818   3.015
 1324HOH     H2 4178   2.313   3.920   2.960
 1325HOH      O 4179   1.057   0.490   1.245
 1325HOH     H1 4180   1.038   0.428   1.316
 1325HOH     H2 4181   1.094   0.436   1.176
 1326HOH      O 4182   1.526   3.548   2.088
 1326HOH     H1 4183   1.449   3.572   2.139
 1326HOH     H2 4184   1.522   3.604   2.011
 1327HOH      O 4185   2.162   3.732   3.958
 1327HOH     H1 4186   2.090   3.669   3.954
 1327HOH     H2 4187   2.220   3.699   4.027
 1328HOH      O 4188   0.754   3.801   2.820
 1328HOH     H1 4189   0.811   3.877   2.828
 1328HOH     H2 4190   0.758   3.777   2.727
 1329HOH      O 4191   3.779   3.749   2.473
 1329HOH     H1 4192   3.818   3.719   2.390
 1329HOH     H2 4193   3.840   3.719   2.540
 1330HOH      O 4194   2.484   2.526   1.636
 1330HOH     H1 4195   2.555   2.582   1.603
 1330HOH     H2 4196   2.407   2.556   1.589
 1331HOH      O 4197   1.189   3.265   1.385
 1331HOH     H1 4198   1.145   3.333   1.436
 1331HOH     H2 4199   1.276   3.259   1.423
 1332HOH      O 4200   1.536   1.964   2.649
 1332HOH     H1 4201   1.530   1.972   2.554
 1332HOH     H2 4202   1.554   2.053   2.680
 1333HOH      O 4203   2.124   2.346   1.817
 1333HOH     H1 4204   2.161   2.433   1.806
 1333HOH     H2 4205   2.099   2.319   1.729
 1334HOH      O 4206   2.090   3.964   3.823
 1334HOH     H1 4207   2.121   3.895   3.882
 1334HOH     H2 4208   1.996   3.949   3.814
 1335HOH      O 4209   2.227   2.108   3.635
 1335HOH     H1 4210   2.200   2.017   3.649
 1335HOH     H2 4211   2.259   2.109   3.545
 1336HOH      O 4212   2.924   3.996   0.199
 1336HOH     H1 4213   2.867   4.065   0.232
 1336HOH     H2 4214   2.978   3.972   0.275
 1337HOH      O 4215   1.844   0.395   1.277
 1337HOH     H1 4216   1.877   0.437   1.356
 1337HOH     H2 4217   1.896   0.434   1.206
 1338HOH      O 4218   3.116   1.168   1.685
 1338HOH     H1 4219   3.074   1.248   1.717
 1338HOH     H2 4220   3.069   1.147   1.604
 1339HOH      O 4221   2.778   2.799   0.436
 1339HOH     H1 4222   2.864   2.774   0.471
 1339HOH     H2 4223   2.721   2.725   0.457
 1340HOH      O 4224   2.573   2.404   2.351
 1340HOH     H1 4225   2.531   2.471   2.297
 1340HOH     H2 4226   2.512   2.330   2.349
 1341HOH      O 4227   3.120   3.059   1.875
 1341HOH     H1 4228   3.153   2.970   1.891
 1341HOH     H2 4229   3.195   3.116   1.893
 1342HOH      O 4230   3.076   0.234   0.834
 1342HOH     H1 4231   3.161   0.230   0.878
 1342HOH     H2 4232   3.032   0.309   0.872
 1343HOH      O 4233   3.891   2.067   0.531
 1343HOH     H1 4234   3.837   1.995   0.499
 1343HOH     H2 4235   3.829   2.139   0.546
 1344HOH      O 4236   1.532   3.733   3.398
 1344HOH     H1 4237   1.506   3.659   3.342
 1344HOH     H2 4238   1.514   3.703   3.487
 1345HOH      O 4239   3.784   0.098   3.568
 1345HOH     H1 4240   3.864   0.064   3.527
 1345HOH     H2 4241   3.761   0.175   3.516
 1346HOH      O 4242   3.877   2.864   2.375
 1346HOH     H1 4243   3.809   2.797   2.373
 1346HOH     H2 4244   3.936   2.841   2.303
 1347HOH      O 4245   1.631   0.534   2.964
 1347HOH     H1 4246   1.563   0.587   2.923
 1347HOH     H2 4247   1.669   0.483   2.893
 1348HOH      O 4248   3.536   2.264   2.343
 1348HOH     H1 4249   3.460   2.314   2.373
 1348HOH     H2 4250   3.515   2.240   2.253
 1349HOH      O 4251   0.615   0.631   0.962
 1349HOH     H1 4252   0.529   0.673   0.958
 1349HOH     H2 4253   0.629   0.596   0.874
 1350HOH      O 4254   3.422   0.730   2.758
 1350HOH     H1 4255   3.403   0.652   2.811
 1350HOH     H2 4256   3.514   0.722   2.735
 1351HOH      O 4257   0.896   2.810   3.593
 1351HOH     H1 4258   0.804   2.831   3.609
 1351HOH     H2 4259   0.904   2.805   3.498
 1352HOH      O 4260   2.272   0.809   1.918
 1352HOH     H1 4261   2.260   0.714   1.915
 1352HOH     H2 4262   2.314   0.831   1.835
 1353HOH      O 4263   4.035   0.533   0.355
 1353HOH     H1 4264   4.028   0.491   0.269
 1353HOH     H2 4265   3.972   0.605   0.351
 1354HOH      O 4266   0.352   0.826   0.454
 1354HOH     H1 4267   0.379   0.819   0.362
 1354HOH     H2 4268   0.259   0.848   0.450
 1355HOH      O 4269   2.977   2.223   0.205
 1355HOH     H1 4270   2.920   2.221   0.282
 1355HOH     H2 4271   3.031   2.144   0.214
 1356HOH      O 4272   1.371   4.002   1.969
 1356HOH     H1 4273   1.296   4.050   2.004
 1356HOH     H2 4274   1.444   4.064   1.976
 1357HOH      O 4275   1.381   2.230   1.407
 1357HOH     H1 4276   1.293   2.195   1.423
 1357HOH     H2 4277   1.435   2.188   1.474
 1358HOH      O 4278   1.369   3.636   1.614
 1358HOH     H1 4279   1.293   3.659   1.669
 1358HOH     H2 4280   1.365   3.541   1.605
 1359HOH      O 4281   1.815   1.618   1.412
 1359HOH     H1 4282   1.840   1.700   1.456
 1359HOH     H2 4283   1.870   1.552   1.452
 1360HOH      O 4284   3.560   2.047   2.912
 1360HOH     H1 4285   3.555   2.142   2.926
 1360HOH     H2 4286   3.639   2.020   2.958
 1361HOH      O 4287   0.367   0.282   1.744
 1361HOH     H1 4288   0.360   0.364   1.694
 1361HOH     H2 4289   0.377   0.214   1.677
 1362HOH      O 4290   1.627   0.034   3.838
 1362HOH     H1 4291   1.662   0.101   3.897
 1362HOH     H2 4292   1.581  -0.027   3.895
 1363HOH      O 4293   1.977   0.315   3.115
 1363HOH     H1 4294   1.905   0.275   3.066
 1363HOH     H2 4295   1.985   0.261   3.194
 1364HOH      O 4296   1.871   0.452   0.486
 1364HOH     H1 4297   1.806   0.522   0.493
 1364HOH     H2 4298   1.832   0.390   0.425
 1365HOH      O 4299   0.754   1.476   3.376
 1365HOH     H1 4300   0.838   1.507   3.409
 1365HOH     H2 4301   0.775   1.437   3.291
 1366HOH      O 4302   0.693   2.207   1.002
 1366HOH     H1 4303   0.620   2.158   0.965
 1366HOH     H2 4304   0.708   2.279   0.941
 1367HOH      O 4305   2.922   0.794   0.355
 1367HOH     H1 4306   2.898   0.717   0.407
 1367HOH     H2 4307   2.987   0.840   0.409
 1368HOH      O 4308   1.284   1.124   1.387
 1368HOH     H1 4309   1.338   1.050   1.360
 1368HOH     H2 4310   1.335   1.201   1.362
 1369HOH      O 4311   1.214   3.074   3.519
 1369HOH     H1 4312   1.183   3.164   3.505
 1369HOH     H2 4313   1.273   3.058   3.446
 1370HOH      O 4314   1.782   2.243   1.641
 1370HOH     H1 4315   1.758   2.271   1.552
 1370HOH     H2 4316   1.878   2.244   1.640
 1371HOH      O 4317   1.684   0.572   3.878
 1371HOH     H1 4318   1.760   0.609   3.832
 1371HOH     H2 4319   1.620   0.555   3.809
 1372HOH      O 4320   3.668   2.676   2.403
 1372HOH     H1 4321   3.637   2.609   2.342
 1372HOH     H2 4322   3.589   2.711   2.443
 1373HOH      O 4323   3.304   1.673   2.586
 1373HOH     H1 4324   3.275   1.608   2.522
 1373HOH     H2 4325   3.262   1.754   2.557
 1374HOH      O 4326   2.230   2.906   3.103
 1374HOH     H1 4327   2.150   2.945   3.137
 1374HOH     H2 4328   2.214   2.895   3.009
 1375HOH      O 4329   1.571   1.392   1.988
 1375HOH     H1 4330   1.566   1.306   2.031
 1375HOH     H2 4331   1.590   1.372   1.897
 1376HOH      O 4332   0.107   0.187   3.475
 1376HOH     H1 4333   0.196   0.183   3.440
 1376HOH     H2 4334   0.085   0.280   3.473
 1377HOH      O 4335   0.265   0.150   1.347
 1377HOH     H1 4336   0.241   0.241   1.359
 1377HOH     H2 4337   0.254   0.135   1.253
 1378HOH      O 4338   0.052   0.523   2.371
 1378HOH     H1 4339   0.090   0.523   2.283
 1378HOH     H2 4340   0.110   0.579   2.422
 1379HOH      O 4341   2.668   0.166   1.486
 1379HOH     H1 4342   2.724   0.219   1.430
 1379HOH     H2 4343   2.713   0.165   1.571
 1380HOH      O 4344   1.402   2.445   2.012
 1380HOH     H1 4345   1.480   2.495   2.035
 1380HOH     H2 4346   1.346   2.509   1.967
 1381HOH      O 4347   0.141   0.856   3.179
 1381HOH     H1 4348   0.100   0.848   3.093
 1381HOH     H2 4349   0.171   0.947   3.183
 1382HOH      O 4350   1.298   3.940   0.588
 1382HOH     H1 4351   1.354   3.915   0.662
 1382HOH     H2 4352   1.235   4.001   0.626
 1383HOH      O 4353   0.948   0.010   1.945
 1383HOH     H1 4354   0.881   0.050   1.889
 1383HOH     H2 4355   0.996   0.084   1.981
 1384HOH      O 4356   0.366   1.312   3.887
 1384HOH     H1 4357   0.418   1.234   3.905
 1384HOH     H2 4358   0.280   1.279   3.864
 1385HOH      O 4359   2.297   3.797   3.333
 1385HOH     H1 4360   2.273   3.852   3.407
 1385HOH     H2 4361   2.283   3.852   3.256
 1386HOH      O 4362   3.016   2.177   0.742
 1386HOH     H1 4363   2.945   2.135   0.694
 1386HOH     H2 4364   3.084   2.110   0.749
 1387HOH      O 4365   2.776   0.832   3.706
 1387HOH     H1 4366   2.859   0.829   3.659
 1387HOH     H2 4367   2.753   0.740   3.719
 1388HOH      O 4368   2.857   1.298   3.314
 1388HOH     H1 4369   2.807   1.217   3.327
 1388HOH     H2 4370   2.876   1.328   3.403
 1389HOH      O 4371   0.642   1.742   0.353
 1389HOH     H1 4372   0.667   1.706   0.438
 1389HOH     H2 4373   0.556   1.782   0.369
 1390HOH      O 4374   2.717   3.095   0.612
 1390HOH     H1 4375   2.795   3.076   0.560
 1390HOH     H2 4376   2.736   3.058   0.698
 1391HOH      O 4377   0.205   2.820   0.712
 1391HOH     H1 4378   0.227   2.768   0.635
 1391HOH     H2 4379   0.113   2.843   0.700
 1392HOH      O 4380   1.163   2.420   2.474
 1392HOH     H1 4381   1.144   2.371   2.394
 1392HOH     H2 4382   1.076   2.444   2.507
 1393HOH      O 4383   3.506   0.001   1.079
 1393HOH     H1 4384   3.427  -0.043   1.049
 1393HOH     H2 4385   3.513   0.079   1.023
 1394HOH      O 4386   1.184   0.086   3.441
 1394HOH     H1 4387   1.191   0.146   3.515
 1394HOH     H2 4388   1.257   0.111   3.383
 1395HOH      O 4389   1.193   1.013   0.874
 1395HOH     H1 4390   1.185   1.005   0.969
 1395HOH     H2 4391   1.257   0.947   0.849
 1396HOH      O 4392   1.876   2.388   2.093
 1396HOH     H1 4393   1.953   2.343   2.059
 1396HOH     H2 4394   1.910   2.447   2.160
 1397HOH      O 4395   2.864   3.481   2.167
 1397HOH     H1 4396   2.877   3.528   2.085
 1397HOH     H2 4397   2.918   3.403   2.159
 1398HOH      O 4398   0.733   1.769   3.217
 1398HOH     H1 4399   0.642   1.784   3.242
 1398HOH     H2 4400   0.729   1.744   3.125
 1399HOH      O 4401   0.563   3.628   2.571
 1399HOH     H1 4402   0.573   3.612   2.665
 1399HOH     H2 4403   0.624   3.566   2.530
 1400HOH      O 4404   1.109   3.328   0.299
 1400HOH     H1 4405   1.179   3.267   0.276
 1400HOH     H2 4406   1.038   3.271   0.330
 1401HOH      O 4407   0.437   0.491   2.773
 1401HOH     H1 4408   0.385   0.434   2.717
 1401HOH     H2 4409   0.500   0.532   2.714
 1402HOH      O 4410   2.729   0.604   0.455
 1402HOH     H1 4411   2.759   0.517   0.428
 1402HOH     H2 4412   2.657   0.624   0.395
 1403HOH      O 4413   2.831   3.881   0.884
 1403HOH     H1 4414   2.874   3.912   0.805
 1403HOH     H2 4415   2.758   3.942   0.897
 1404HOH      O 4416   2.647   3.510   3.947
 1404HOH     H1 4417   2.698   3.564   4.008
 1404HOH     H2 4418   2.685   3.529   3.861
 1405HOH      O 4419   3.223   3.036   2.255
 1405HOH     H1 4420   3.271   3.066   2.332
 1405HOH     H2 4421   3.238   3.105   2.190
 1406HOH      O 4422   1.351   1.005   0.572
 1406HOH     H1 4423   1.326   0.914   0.586
 1406HOH     H2 4424   1.302   1.032   0.494
 1407HOH      O 4425   0.368   3.555   1.329
 1407HOH     H1 4426   0.462   3.571   1.343
 1407HOH     H2 4427   0.364   3.520   1.240
 1408HOH      O 4428   3.574   1.326   1.252
 1408HOH     H1 4429   3.624   1.300   1.329
 1408HOH     H2 4430   3.620   1.284   1.179
 1409HOH      O 4431   3.591   3.604   2.943
 1409HOH     H1 4432   3.651   3.615   2.869
 1409HOH     H2 4433   3.508   3.639   2.911
 1410HOH      O 4434   1.385   0.849   1.340
 1410HOH     H1 4435   1.449   0.862   1.410
 1410HOH     H2 4436   1.327   0.780   1.372
 1411HOH      O 4437   0.404   1.246   0.927
 1411HOH     H1 4438   0.406   1.168   0.982
 1411HOH     H2 4439   0.327   1.235   0.871
 1412HOH      O 4440   3.289   3.508   2.923
 1412HOH     H1 4441   3.216   3.457   2.889
 1412HOH     H2 4442   3.367   3.459   2.898
 1413HOH      O 4443   2.219   1.279   3.166
 1413HOH     H1 4444   2.190   1.194   3.132
 1413HOH     H2 4445   2.211   1.270   3.261
 1414HOH      O 4446   2.754   1.624   1.295
 1414HOH     H1 4447   2.705   1.592   1.219
 1414HOH     H2 4448   2.828   1.564   1.302
 1415HOH      O 4449   3.619   1.357   0.397
 1415HOH     H1 4450   3.606   1.427   0.333
 1415HOH     H2 4451   3.536   1.354   0.445
 1416HOH      O 4452   3.767   0.127   3.157
 1416HOH     H1 4453   3.709   0.169   3.222
 1416HOH     H2 4454   3.845   0.104   3.207
 1417HOH      O 4455   3.862   0.381   0.519
 1417HOH     H1 4456   3.834   0.307   0.466
 1417HOH     H2 4457   3.922   0.430   0.462
 1418HOH      O 4458   0.394   1.037   3.423
 1418HOH     H1 4459   0.410   1.089   3.501
 1418HOH     H2 4460   0.301   1.046   3.406
 1419HOH      O 4461   1.391   1.267   1.640
 1419HOH     H1 4462   1.407   1.310   1.556
 1419HOH     H2 4463   1.477   1.259   1.680
 1420HOH      O 4464   3.501   3.647   1.245
 1420HOH     H1 4465   3.488   3.686   1.331
 1420HOH     H2 4466   3.576   3.695   1.208
 1421HOH      O 4467   3.589   2.509   2.699
 1421HOH     H1 4468   3.669   2.457   2.698
 1421HOH     H2 4469   3.555   2.499   2.788
 1422HOH      O 4470   2.517   2.023   4.017
 1422HOH     H1 4471   2.555   2.006   4.103
 1422HOH     H2 4472   2.552   2.108   3.992
 1423HOH      O 4473   0.913   2.751   3.256
 1423HOH     H1 4474   0.897   2.770   3.163
 1423HOH     H2 4475   0.859   2.674   3.274
 1424HOH      O 4476   3.713   3.396   3.399
 1424HOH     H1 4477   3.661   3.394   3.319
 1424HOH     H2 4478   3.779   3.327   3.387
 1425HOH      O 4479   1.405   3.285   2.118
 1425HOH     H1 4480   1.335   3.320   2.174
 1425HOH     H2 4481   1.458   3.361   2.096
 1426HOH      O 4482   1.511   2.437   2.900
 1426HOH     H1 4483   1.497   2.369   2.967
 1426HOH     H2 4484   1.441   2.422   2.837
 1427HOH      O 4485   1.712   2.258   2.828
 1427HOH     H1 4486   1.702   2.354   2.828
 1427HOH     H2 4487   1.637   2.226   2.877
 1428HOH      O 4488   2.060   1.456   1.272
 1428HOH     H1 4489   2.020   1.421   1.352
 1428HOH     H2 4490   2.004   1.425   1.201
 1429HOH      O 4491   2.451   3.424   3.480
 1429HOH     H1 4492   2.512   3.352   3.465
 1429HOH     H2 4493   2.374   3.382   3.519
 1430HOH      O 4494   0.266   1.758   3.734
 1430HOH     H1 4495   0.228   1.706   3.804
 1430HOH     H2 4496   0.361   1.744   3.741
 1431HOH      O 4497   1.979   1.379   2.699
 1431HOH     H1 4498   2.030   1.298   2.688
 1431HOH     H2 4499   2.037   1.437   2.747
 1432HOH      O 4500   0.173   2.521   2.690
 1432HOH     H1 4501   0.119   2.446   2.718
 1432HOH     H2 4502   0.233   2.484   2.625
 1433HOH      O 4503   3.735   0.946   1.252
 1433HOH     H1 4504   3.826   0.960   1.278
 1433HOH     H2 4505   3.710   1.026   1.206
 1434HOH      O 4506   2.869   2.137   2.702
 1434HOH     H1 4507   2.778   2.107   2.713
 1434HOH     H2 4508   2.920   2.074   2.753
 1435HOH      O 4509   1.655   3.648   1.813
 1435HOH     H1 4510   1.588   3.698   1.861
 1435HOH     H2 4511   1.614   3.629   1.729
 1436HOH      O 4512   1.834   0.437   2.801
 1436HOH     H1 4513   1.853   0.347   2.827
 1436HOH     H2 4514   1.903   0.489   2.842
 1437HOH      O 4515   1.372   3.420   0.040
 1437HOH     H1 4516   1.317   3.344   0.055
 1437HOH     H2 4517   1.405   3.443   0.127
 1438HOH      O 4518   2.236   3.267   3.550
 1438HOH     H1 4519   2.277   3.255   3.635
 1438HOH     H2 4520   2.159   3.209   3.552
 1439HOH      O 4521   1.783   1.901   0.235
 1439HOH     H1 4522   1.783   1.814   0.195
 1439HOH     H2 4523   1.875   1.925   0.240
 1440HOH      O 4524   1.594   2.796   0.966
 1440HOH     H1 4525   1.543   2.764   1.040
 1440HOH     H2 4526   1.550   2.760   0.888
 1441HOH      O 4527   1.702   1.491   1.195
 1441HOH     H1 4528   1.686   1.560   1.130
 1441HOH     H2 4529   1.743   1.537   1.269
 1442HOH      O 4530   0.571   0.645   2.300
 1442HOH     H1 4531   0.612   0.684   2.223
 1442HOH     H2 4532   0.523   0.569   2.266
 1443HOH      O 4533   0.070   1.012   1.109
 1443HOH     H1 4534   0.028   1.096   1.090
 1443HOH     H2 4535   0.092   1.016   1.202
 1444HOH      O 4536   2.157   2.795   2.843
 1444HOH     H1 4537   2.083   2.736   2.850
 1444HOH     H2 4538   2.142   2.843   2.761
 1445HOH      O 4539   1.716   0.716   3.177
 1445HOH     H1 4540   1.775   0.766   3.120
 1445HOH     H2 4541   1.710   0.630   3.135
 1446HOH      O 4542   2.860   1.718   1.590
 1446HOH     H1 4543   2.899   1.693   1.506
 1446HOH     H2 4544   2.911   1.670   1.656
 1447HOH      O 4545   2.329   0.532   2.107
 1447HOH     H1 4546   2.279   0.578   2.175
 1447HOH     H2 4547   2.419   0.531   2.140
 1448HOH      O 4548   0.382   1.945   3.040
 1448HOH     H1 4549   0.293   1.909   3.036
 1448HOH     H2 4550   0.411   1.926   3.129
 1449HOH      O 4551   3.167   1.776   3.717
 1449HOH     H1 4552   3.073   1.792   3.716
 1449HOH     H2 4553   3.178   1.694   3.764
 1450HOH      O 4554   2.786   1.854   2.014
 1450HOH     H1 4555   2.842   1.835   1.939
 1450HOH     H2 4556   2.707   1.804   1.998
 1451HOH      O 4557   3.439   0.415   1.140
 1451HOH     H1 4558   3.403   0.434   1.054
 1451HOH     H2 4559   3.366   0.431   1.200
 1452HOH      O 4560   3.936   3.003   3.264
 1452HOH     H1 4561   3.865   3.029   3.323
 1452HOH     H2 4562   3.902   3.021   3.176
 1453HOH      O 4563   1.842   2.001   3.618
 1453HOH     H1 4564   1.864   2.085   3.658
 1453HOH     H2 4565   1.848   2.016   3.524
 1454HOH      O 4566   2.119   2.250   0.284
 1454HOH     H1 4567   2.086   2.278   0.369
 1454HOH     H2 4568   2.111   2.155   0.286
 1455HOH      O 4569   2.364   0.582   3.139
 1455HOH     H1 4570   2.392   0.492   3.120
 1455HOH     H2 4571   2.373   0.590   3.234
 1456HOH      O 4572   0.792   0.533   1.680
 1456HOH     H1 4573   0.709   0.492   1.659
 1456HOH     H2 4574   0.852   0.505   1.611
 1457HOH      O 4575   3.956   0.108   0.760
 1457HOH     H1 4576   4.023   0.167   0.796
 1457HOH     H2 4577   3.985   0.090   0.671
 1458HOH      O 4578   3.902   1.283   1.809
 1458HOH     H1 4579   3.807   1.267   1.813
 1458HOH     H2 4580   3.929   1.245   1.726
 1459HOH      O 4581   1.786   3.797   3.316
 1459HOH     H1 4582   1.826   3.834   3.394
 1459HOH     H2 4583   1.704   3.758   3.347
 1460HOH      O 4584   0.174   2.888   3.072
 1460HOH     H1 4585   0.148   2.980   3.067
 1460HOH     H2 4586   0.270   2.890   3.068
 1461HOH      O 4587   3.588   0.509   3.547
 1461HOH     H1 4588   3.559   0.600   3.534
 1461HOH     H2 4589   3.516   0.468   3.594
 1462HOH      O 4590   3.096   1.157   0.888
 1462HOH     H1 4591   3.172   1.102   0.868
 1462HOH     H2 4592   3.054   1.171   0.803
 1463HOH      O 4593   1.251   2.612   3.508
 1463HOH     H1 4594   1.192   2.652   3.572
 1463HOH     H2 4595   1.234   2.659   3.427
 1464HOH      O 4596   0.999   3.823   4.022
 1464HOH     H1 4597   0.906   3.816   4.005
 1464HOH     H2 4598   1.033   3.880   3.953
 1465HOH      O 4599   3.223   2.093   3.290
 1465HOH     H1 4600   3.209   2.016   3.235
 1465HOH     H2 4601   3.222   2.059   3.380
 1466HOH      O 4602   2.775   3.592   3.724
 1466HOH     H1 4603   2.727   3.545   3.657
 1466HOH     H2 4604   2.748   3.683   3.713
 1467HOH      O 4605   0.785   2.254   0.622
 1467HOH     H1 4606   0.806   2.260   0.529
 1467HOH     H2 4607   0.782   2.160   0.640
 1468HOH      O 4608   2.406   3.464   0.041
 1468HOH     H1 4609   2.402   3.418   0.125
 1468HOH     H2 4610   2.499   3.464   0.018
 1469HOH      O 4611   3.073   0.912   1.786
 1469HOH     H1 4612   2.999   0.895   1.729
 1469HOH     H2 4613   3.112   0.993   1.753
 1470HOH      O 4614   0.941   0.957   2.042
 1470HOH     H1 4615   0.872   0.935   1.980
 1470HOH     H2 4616   0.895   0.962   2.127
 1471HOH      O 4617   3.629   2.893   2.008
 1471HOH     H1 4618   3.547   2.848   2.029
 1471HOH     H2 4619   3.649   2.945   2.086
 1472HOH      O 4620   0.721   2.015   1.720
 1472HOH     H1 4621   0.649   1.966   1.759
 1472HOH     H2 4622   0.721   1.989   1.628
 1473HOH      O 4623   0.485   3.418   3.794
 1473HOH     H1 4624   0.423   3.445   3.861
 1473HOH     H2 4625   0.561   3.476   3.805
 1474HOH      O 4626   2.517   2.726   1.074
 1474HOH     H1 4627   2.456   2.684   1.014
 1474HOH     H2 4628   2.513   2.819   1.051
 1475HOH      O 4629   3.159   3.431   1.682
 1475HOH     H1 4630   3.204   3.355   1.719
 1475HOH     H2 4631   3.115   3.397   1.604
 1476HOH      O 4632   1.730   2.822   0.283
 1476HOH     H1 4633   1.710   2.903   0.331
 1476HOH     H2 4634   1.775   2.768   0.348
 1477HOH      O 4635   2.729   3.316   1.944
 1477HOH     H1 4636   2.722   3.407   1.914
 1477HOH     H2 4637   2.821   3.308   1.972
 1478HOH      O 4638   3.791   3.859   2.088
 1478HOH     H1 4639   3.699   3.852   2.115
 1478HOH     H2 4640   3.788   3.909   2.006
 1479HOH      O 4641   1.123   2.992   1.339
 1479HOH     H1 4642   1.171   3.072   1.360
 1479HOH     H2 4643   1.168   2.923   1.388
 1480HOH      O 4644   3.474   2.422   3.147
 1480HOH     H1 4645   3.403   2.427   3.212
 1480HOH     H2 4646   3.540   2.483   3.178
 1481HOH      O 4647   2.258   0.558   1.836
 1481HOH     H1 4648   2.345   0.557   1.796
 1481HOH     H2 4649   2.275   0.542   1.929
 1482HOH      O 4650   0.130   3.252   2.087
 1482HOH     H1 4651   0.203   3.314   2.089
 1482HOH     H2 4652   0.091   3.264   2.000
 1483HOH      O 4653   3.936   1.166   0.751
 1483HOH     H1 4654   3.857   1.219   0.747
 1483HOH     H2 4655   3.906   1.079   0.780
 1484HOH      O 4656   1.079   1.750   1.568
 1484HOH     H1 4657   1.040   1.732   1.653
 1484HOH     H2 4658   1.089   1.663   1.528
 1485HOH      O 4659   1.262   3.373   3.041
 1485HOH     H1 4660   1.337   3.389   2.984
 1485HOH     H2 4661   1.203   3.320   2.989
 1486HOH      O 4662   1.682   3.508   2.949
 1486HOH     H1 4663   1.602   3.554   2.926
 1486HOH     H2 4664   1.711   3.468   2.867
 1487HOH      O 4665   0.838   0.932   3.439
 1487HOH     H1 4666   0.925   0.971   3.444
 1487HOH     H2 4667   0.801   0.966   3.357
 1488HOH      O 4668   3.527   2.892   1.556
 1488HOH     H1 4669   3.565   2.953   1.620
 1488HOH     H2 4670   3.558   2.806   1.584
 1489HOH      O 4671   3.965   2.923   1.684
 1489HOH     H1 4672   3.944   2.911   1.592
 1489HOH     H2 4673   4.058   2.901   1.690
 1490HOH      O 4674   0.779   4.007   0.990
 1490HOH     H1 4675   0.842   3.936   0.979
 1490HOH     H2 4676   0.829   4.086   0.969
 1491HOH      O 4677   0.077   3.586   3.725
 1491HOH     H1 4678   0.050   3.660   3.778
 1491HOH     H2 4679  -0.005   3.545   3.696
 1492HOH      O 4680   2.459   3.369   3.008
 1492HOH     H1 4681   2.466   3.294   2.950
 1492HOH     H2 4682   2.429   3.332   3.091
 1493HOH      O 4683   0.657   0.411   0.223
 1493HOH     H1 4684   0.640   0.484   0.163
 1493HOH     H2 4685   0.730   0.364   0.183
 1494HOH      O 4686   3.206   3.884   3.589
 1494HOH     H1 4687   3.182   3.793   3.571
 1494HOH     H2 4688   3.260   3.910   3.515
 1495HOH      O 4689   2.170   3.307   0.939
 1495HOH     H1 4690   2.211   3.243   0.880
 1495HOH     H2 4691   2.236   3.323   1.006
 1496HOH      O 4692   0.814   0.672   1.289
 1496HOH     H1 4693   0.870   0.603   1.252
 1496HOH     H2 4694   0.760   0.701   1.215
 1497HOH      O 4695   2.924   0.349   3.637
 1497HOH     H1 4696   2.969   0.299   3.568
 1497HOH     H2 4697   2.958   0.438   3.627
 1498HOH      O 4698   2.279   3.854   2.077
 1498HOH     H1 4699   2.324   3.924   2.030
 1498HOH     H2 4700   2.349   3.803   2.118
 1499HOH      O 4701   0.869   0.919   0.130
 1499HOH     H1 4702   0.876   0.826   0.110
 1499HOH     H2 4703   0.959   0.947   0.146
 1500HOH      O 4704   2.041   2.197   2.312
 1500HOH     H1 4705   2.058   2.250   2.234
 1500HOH     H2 4706   2.125   2.197   2.359
 1501HOH      O 4707   2.806   0.960   2.576
 1501HOH     H1 4708   2.733   0.911   2.539
 1501HOH     H2 4709   2.776   1.051   2.574
 1502HOH      O 4710   2.981   2.019   1.107
 1502HOH     H1 4711   2.956   2.104   1.073
 1502HOH     H2 4712   3.068   2.032   1.143
 1503HOH      O 4713   1.735   1.623   2.078
 1503HOH     H1 4714   1.702   1.695   2.024
 1503HOH     H2 4715   1.678   1.549   2.057
 1504HOH      O 4716   3.713   1.141   1.081
 1504HOH     H1 4717   3.802   1.171   1.062
 1504HOH     H2 4718   3.668   1.141   0.996
 1505HOH      O 4719   1.270   3.097   0.089
 1505HOH     H1 4720   1.341   3.079   0.028
 1505HOH     H2 4721   1.192   3.059   0.047
 1506HOH      O 4722   2.522   2.465   2.601
 1506HOH     H1 4723   2.551   2.451   2.511
 1506HOH     H2 4724   2.598   2.440   2.655
 1507HOH      O 4725   0.831   2.117   0.049
 1507HOH     H1 4726   0.898   2.114  -0.019
 1507HOH     H2 4727   0.846   2.037   0.100
 1508HOH      O 4728   3.273   2.390   2.327
 1508HOH     H1 4729   3.219   2.359   2.255
 1508HOH     H2 4730   3.222   2.370   2.406
 1509HOH      O 4731   0.777   4.059   0.681
 1509HOH     H1 4732   0.778   3.964   0.690
 1509HOH     H2 4733   0.687   4.080   0.656
 1510HOH      O 4734   3.101   2.936   2.586
 1510HOH     H1 4735   3.188   2.919   2.549
 1510HOH     H2 4736   3.064   2.848   2.599
 1511HOH      O 4737   0.603   3.100   3.897
 1511HOH     H1 4738   0.618   3.194   3.901
 1511HOH     H2 4739   0.621   3.077   3.806
 1512HOH      O 4740   4.031   0.431   1.658
 1512HOH     H1 4741   4.083   0.373   1.602
 1512HOH     H2 4742   3.941   0.406   1.643
 1513HOH      O 4743   0.047   2.818   2.190
 1513HOH     H1 4744   0.059   2.744   2.250
 1513HOH     H2 4745  -0.024   2.790   2.132
 1514HOH      O 4746   1.233   2.663   1.251
 1514HOH     H1 4747   1.192   2.646   1.166
 1514HOH     H2 4748   1.190   2.603   1.311
 1515HOH      O 4749   2.695   1.071   1.434
 1515HOH     H1 4750   2.675   1.016   1.359
 1515HOH     H2 4751   2.695   1.160   1.399
 1516HOH      O 4752   1.200   1.392   4.039
 1516HOH     H1 4753   1.138   1.375   3.968
 1516HOH     H2 4754   1.249   1.311   4.049
 1517HOH      O 4755   2.137   2.325   2.100
 1517HOH     H1 4756   2.149   2.317   2.005
 1517HOH     H2 4757   2.225   2.314   2.136
 1518HOH      O 4758   2.665   1.994   0.813
 1518HOH     H1 4759   2.693   1.909   0.846
 1518HOH     H2 4760   2.717   2.008   0.734
 1519HOH      O 4761   0.800   2.653   2.392
 1519HOH     H1 4762   0.767   2.632   2.304
 1519HOH     H2 4763   0.802   2.749   2.394
 1520HOH      O 4764   1.813   3.908   1.653
 1520HOH     H1 4765   1.903   3.937   1.670
 1520HOH     H2 4766   1.758   3.980   1.685
 1521HOH      O 4767   1.362   3.037   2.213
 1521HOH     H1 4768   1.325   2.998   2.134
 1521HOH     H2 4769   1.392   3.124   2.184
 1522HOH      O 4770   3.461   0.171   0.693
 1522HOH     H1 4771   3.412   0.242   0.651
 1522HOH     H2 4772   3.474   0.202   0.783
 1523HOH      O 4773   1.688   2.622   3.002
 1523HOH     H1 4774   1.725   2.564   3.068
 1523HOH     H2 4775   1.631   2.566   2.949
 1524HOH      O 4776   2.104   2.429   3.151
 1524HOH     H1 4777   2.142   2.428   3.063
 1524HOH     H2 4778   2.128   2.516   3.185
 1525HOH      O 4779   3.273   2.862   1.643
 1525HOH     H1 4780   3.259   2.836   1.735
 1525HOH     H2 4781   3.367   2.853   1.630
 1526HOH      O 4782   0.637   0.438   2.956
 1526HOH     H1 4783   0.574   0.438   2.884
 1526HOH     H2 4784   0.584   0.429   3.035
 1527HOH      O 4785   3.741   3.849   0.128
 1527HOH     H1 4786   3.722   3.824   0.218
 1527HOH     H2 4787   3.723   3.770   0.076
 1528HOH      O 4788   0.546   2.794   2.249
 1528HOH     H1 4789   0.621   2.849   2.270
 1528HOH     H2 4790   0.574   2.705   2.271
 1529HOH      O 4791   3.355   1.371   0.543
 1529HOH     H1 4792   3.290   1.379   0.613
 1529HOH     H2 4793   3.361   1.277   0.526
 1530HOH      O 4794   0.271   3.399   2.826
 1530HOH     H1 4795   0.297   3.309   2.845
 1530HOH     H2 4796   0.193   3.413   2.880
 1531HOH      O 4797   0.854   3.489   0.207
 1531HOH     H1 4798   0.872   3.480   0.113
 1531HOH     H2 4799   0.940   3.502   0.247
 1532HOH      O 4800   2.713   1.188   3.604
 1532HOH     H1 4801   2.710   1.099   3.570
 1532HOH     H2 4802   2.663   1.183   3.686
 1533HOH      O 4803   1.434   1.625   2.108
 1533HOH     H1 4804   1.460   1.538   2.077
 1533HOH     H2 4805   1.423   1.677   2.029
 1534HOH      O 4806   0.303   1.551   0.222
 1534HOH     H1 4807   0.235   1.538   0.287
 1534HOH     H2 4808   0.266   1.614   0.160
 1535HOH      O 4809   3.437   0.085   2.388
 1535HOH     H1 4810   3.411   0.046   2.472
 1535HOH     H2 4811   3.520   0.043   2.367
 1536HOH      O 4812   0.822   0.627   2.877
 1536HOH     H1 4813   0.806   0.721   2.871
 1536HOH     H2 4814   0.739   0.590   2.907
 1537HOH      O 4815   2.680   1.469   0.738
 1537HOH     H1 4816   2.772   1.465   0.711
 1537HOH     H2 4817   2.631   1.472   0.655
 1538HOH      O 4818   3.124   1.112   3.890
 1538HOH     H1 4819   3.043   1.073   3.923
 1538HOH     H2 4820   3.153   1.053   3.821
 1539HOH      O 4821   1.241   3.046   0.359
 1539HOH     H1 4822   1.231   3.044   0.264
 1539HOH     H2 4823   1.196   2.967   0.389
 1540HOH      O 4824   1.555   2.216   3.053
 1540HOH     H1 4825   1.504   2.137   3.066
 1540HOH     H2 4826   1.620   2.215   3.124
 1541HOH      O 4827   3.820   2.645   3.796
 1541HOH     H1 4828   3.778   2.573   3.749
 1541HOH     H2 4829   3.851   2.606   3.877
 1542HOH      O 4830   0.740   1.371   2.405
 1542HOH     H1 4831   0.744   1.467   2.402
 1542HOH     H2 4832   0.765   1.344   2.317
 1543HOH      O 4833   2.973   2.781   3.601
 1543HOH     H1 4834   3.050   2.734   3.631
 1543HOH     H2 4835   3.006   2.843   3.535
 1544HOH      O 4836   2.910   0.593   1.176
 1544HOH     H1 4837   2.985   0.648   1.152
 1544HOH     H2 4838   2.884   0.626   1.262
 1545HOH      O 4839   3.532   3.763   0.661
 1545HOH     H1 4840   3.554   3.702   0.732
 1545HOH     H2 4841   3.593   3.836   0.674
 1546HOH      O 4842   1.942   3.328   1.116
 1546HOH     H1 4843   1.910   3.238   1.107
 1546HOH     H2 4844   2.021   3.330   1.061
 1547HOH      O 4845   0.157   1.751   3.306
 1547HOH     H1 4846   0.102   1.808   3.359
 1547HOH     H2 4847   0.124   1.663   3.324
 1548HOH      O 4848   0.136   0.044   3.734
 1548HOH     H1 4849   0.124   0.055   3.639
 1548HOH     H2 4850   0.230   0.056   3.747
 1549HOH      O 4851   1.690   2.209   1.920
 1549HOH     H1 4852   1.709   2.267   1.847
 1549HOH     H2 4853   1.739   2.245   1.993
 1550HOH      O 4854   2.437   0.943   1.722
 1550HOH     H1 4855   2.447   1.038   1.721
 1550HOH     H2 4856   2.397   0.923   1.637
 1551HOH      O 4857   1.849   3.174   1.405
 1551HOH     H1 4858   1.851   3.084   1.372
 1551HOH     H2 4859   1.938   3.207   1.390
 1552HOH      O 4860   3.759   0.881   3.286
 1552HOH     H1 4861   3.693   0.923   3.231
 1552HOH     H2 4862   3.804   0.954   3.329
 1553HOH      O 4863   0.609   0.833   3.704
 1553HOH     H1 4864   0.704   0.841   3.707
 1553HOH     H2 4865   0.592   0.775   3.630
 1554HOH      O 4866   1.535   4.034   0.846
 1554HOH     H1 4867   1.542   3.951   0.893
 1554HOH     H2 4868   1.562   4.014   0.757
 1555HOH      O 4869   0.791   2.566   2.095
 1555HOH     H1 4870   0.803   2.555   2.001
 1555HOH     H2 4871   0.704   2.528   2.112
 1556HOH      O 4872   2.946   3.199   1.195
 1556HOH     H1 4873   2.858   3.167   1.214
 1556HOH     H2 4874   2.996   3.121   1.175
 1557HOH      O 4875   0.987   0.933   0.480
 1557HOH     H1 4876   0.982   0.977   0.565
 1557HOH     H2 4877   0.899   0.899   0.465
 1558HOH      O 4878   3.779   2.884   3.923
 1558HOH     H1 4879   3.832   2.808   3.898
 1558HOH     H2 4880   3.691   2.863   3.892
 1559HOH      O 4881   2.628   0.309   3.735
 1559HOH     H1 4882   2.712   0.311   3.688
 1559HOH     H2 4883   2.571   0.256   3.680
 1560HOH      O 4884   3.364   0.717   3.457
 1560HOH     H1 4885   3.311   0.650   3.416
 1560HOH     H2 4886   3.301   0.775   3.501
 1561HOH      O 4887   1.413   3.462   2.841
 1561HOH     H1 4888   1.419   3.556   2.821
 1561HOH     H2 4889   1.495   3.425   2.807
 1562HOH      O 4890   1.646   1.248   1.734
 1562HOH     H1 4891   1.692   1.228   1.652
 1562HOH     H2 4892   1.666   1.174   1.791
 1563HOH      O 4893   1.742   2.517   2.659
 1563HOH     H1 4894   1.802   2.481   2.594
 1563HOH     H2 4895   1.796   2.579   2.709
 1564HOH      O 4896   0.711   1.715   2.907
 1564HOH     H1 4897   0.644   1.775   2.874
 1564HOH     H2 4898   0.669   1.629   2.904
 1565HOH      O 4899   0.228   0.264   3.078
 1565HOH     H1 4900   0.323   0.275   3.088
 1565HOH     H2 4901   0.213   0.171   3.093
 1566HOH      O 4902   1.189   0.672   1.408
 1566HOH     H1 4903   1.182   0.628   1.492
 1566HOH     H2 4904   1.131   0.622   1.350
 1567HOH      O 4905   2.482   1.725   2.371
 1567HOH     H1 4906   2.425   1.664   2.325
 1567HOH     H2 4907   2.511   1.786   2.303
 1568HOH      O 4908   3.294   0.141   3.546
 1568HOH     H1 4909   3.330   0.136   3.635
 1568HOH     H2 4910   3.343   0.212   3.505
 1569HOH      O 4911   2.597   0.871   3.290
 1569HOH     H1 4912   2.502   0.866   3.273
 1569HOH     H2 4913   2.626   0.780   3.285
 1570HOH      O 4914   1.639   3.957   0.160
 1570HOH     H1 4915   1.555   3.968   0.116
 1570HOH     H2 4916   1.615   3.930   0.249
 1571HOH      O 4917   1.255   0.002   2.283
 1571HOH     H1 4918   1.221   0.061   2.217
 1571HOH     H2 4919   1.348   0.025   2.290
 1572HOH      O 4920   3.471   0.978   2.337
 1572HOH     H1 4921   3.397   0.925   2.370
 1572HOH     H2 4922   3.455   1.065   2.373
 1573HOH      O 4923   1.781   0.479   2.206
 1573HOH     H1 4924   1.864   0.457   2.249
 1573HOH     H2 4925   1.723   0.405   2.227
 1574HOH      O 4926   1.699   0.643   1.064
 1574HOH     H1 4927   1.759   0.692   1.007
 1574HOH     H2 4928   1.661   0.577   1.006
 1575HOH      O 4929   0.997   2.692   0.108
 1575HOH     H1 4930   0.943   2.618   0.082
 1575HOH     H2 4931   1.087   2.658   0.108
 1576HOH      O 4932   2.586   0.865   1.216
 1576HOH     H1 4933   2.661   0.900   1.168
 1576HOH     H2 4934   2.530   0.828   1.148
 1577HOH      O 4935   0.837   3.400   3.957
 1577HOH     H1 4936   0.884   3.319   3.935
 1577HOH     H2 4937   0.776   3.412   3.885
 1578HOH      O 4938   2.827   4.032   3.538
 1578HOH     H1 4939   2.915   4.064   3.520
 1578HOH     H2 4940   2.802   3.986   3.457
 1579HOH      O 4941   0.024   2.054   3.830
 1579HOH     H1 4942   0.069   2.043   3.914
 1579HOH     H2 4943   0.094   2.073   3.768
 1580HOH      O 4944   1.712   3.999   2.321
 1580HOH     H1 4945   1.646   4.065   2.340
 1580HOH     H2 4946   1.702   3.980   2.228
 1581HOH      O 4947   0.649   0.336   2.637
 1581HOH     H1 4948   0.625   0.407   2.578
 1581HOH     H2 4949   0.619   0.257   2.593
 1582HOH      O 4950   1.485   0.134   2.381
 1582HOH     H1 4951   1.482   0.209   2.322
 1582HOH     H2 4952   1.439   0.163   2.460
 1583HOH      O 4953   2.679   1.789   2.581
 1583HOH     H1 4954   2.601   1.782   2.525
 1583HOH     H2 4955   2.668   1.873   2.626
 1584HOH      O 4956   2.253   3.582   1.590
 1584HOH     H1 4957   2.273   3.519   1.660
 1584HOH     H2 4958   2.175   3.628   1.621
 1585HOH      O 4959   2.268   1.279   1.579
 1585HOH     H1 4960   2.237   1.352   1.632
 1585HOH     H2 4961   2.344   1.245   1.627
 1586HOH      O 4962   0.599   3.873   2.404
 1586HOH     H1 4963   0.646   3.812   2.347
 1586HOH     H2 4964   0.551   3.817   2.465
 1587HOH      O 4965   3.229   3.776   1.168
 1587HOH     H1 4966   3.175   3.794   1.245
 1587HOH     H2 4967   3.294   3.712   1.198
 1588HOH      O 4968   1.775   0.154   2.110
 1588HOH     H1 4969   1.753   0.061   2.098
 1588HOH     H2 4970   1.865   0.161   2.081
 1589HOH      O 4971   1.276   2.074   3.412
 1589HOH     H1 4972   1.245   2.124   3.336
 1589HOH     H2 4973   1.366   2.105   3.425
 1590HOH      O 4974   3.166   1.600   3.963
 1590HOH     H1 4975   3.090   1.654   3.984
 1590HOH     H2 4976   3.139   1.511   3.983
 1591HOH      O 4977   1.452   3.986   3.320
 1591HOH     H1 4978   1.480   4.033   3.399
 1591HOH     H2 4979   1.511   3.912   3.314
 1592HOH      O 4980   1.443   2.903   1.246
 1592HOH     H1 4981   1.364   2.850   1.251
 1592HOH     H2 4982   1.456   2.936   1.335
 1593HOH      O 4983   3.730   3.134   0.510
 1593HOH     H1 4984   3.734   3.126   0.605
 1593HOH     H2 4985   3.813   3.174   0.485
 1594HOH      O 4986   3.681   2.852   2.797
 1594HOH     H1 4987   3.709   2.901   2.720
 1594HOH     H2 4988   3.729   2.769   2.791
 1595HOH      O 4989   2.074   0.400   2.028
 1595HOH     H1 4990   2.042   0.396   2.118
 1595HOH     H2 4991   2.169   0.411   2.036
 1596HOH      O 4992   0.588   2.288   2.434
 1596HOH     H1 4993   0.582   2.203   2.392
 1596HOH     H2 4994   0.647   2.274   2.509
 1597HOH      O 4995   3.976   2.056   2.898
 1597HOH     H1 4996   4.057   2.014   2.929
 1597HOH     H2 4997   3.977   2.042   2.803
 1598HOH      O 4998   2.787   3.010   2.653
 1598HOH     H1 4999   2.838   3.040   2.578
 1598HOH     H2 5000   2.762   2.920   2.630
 1599HOH      O 5001   1.219   1.156   0.355
 1599HOH     H1 5002   1.162   1.080   0.371
 1599HOH     H2 5003   1.221   1.165   0.260
 1600HOH      O 5004   1.950   2.141   1.062
 1600HOH     H1 5005   1.860   2.142   1.030
 1600HOH     H2 5006   1.975   2.049   1.061
 1601HOH      O 5007   0.459   1.335   2.029
 1601HOH     H1 5008   0.428   1.256   2.073
 1601HOH     H2 5009   0.481   1.395   2.101
 1602HOH      O 5010   0.567   3.909   0.391
 1602HOH     H1 5011   0.488   3.961   0.378
 1602HOH     H2 5012   0.611   3.910   0.306
 1603HOH      O 5013   3.221   0.905   3.669
 1603HOH     H1 5014   3.140   0.875   3.628
 1603HOH     H2 5015   3.229   0.851   3.748
 1604HOH      O 5016   2.345   3.453   1.127
 1604HOH     H1 5017   2.411   3.510   1.166
 1604HOH     H2 5018   2.300   3.509   1.063
 1605HOH      O 5019   0.573   1.496   3.985
 1605HOH     H1 5020   0.575   1.492   4.081
 1605HOH     H2 5021   0.483   1.470   3.963
 1606HOH      O 5022   2.581   2.031   2.709
 1606HOH     H1 5023   2.520   2.028   2.783
 1606HOH     H2 5024   2.526   2.055   2.634
 1607HOH      O 5025   1.565   2.517   0.457
 1607HOH     H1 5026   1.559   2.604   0.496
 1607HOH     H2 5027   1.613   2.465   0.521
 1608HOH      O 5028   0.229   1.453   1.932
 1608HOH     H1 5029   0.240   1.546   1.916
 1608HOH     H2 5030   0.317   1.422   1.956
 1609HOH      O 5031   3.074   0.554   0.246
 1609HOH     H1 5032   3.129   0.571   0.170
 1609HOH     H2 5033   3.046   0.641   0.275
 1610HOH      O 5034   3.798   0.690   0.958
 1610HOH     H1 5035   3.725   0.650   1.006
 1610HOH     H2 5036   3.831   0.619   0.903
 1611HOH      O 5037   3.789   3.074   2.969
 1611HOH     H1 5038   3.723   3.144   2.971
 1611HOH     H2 5039   3.748   3.004   2.920
 1612HOH      O 5040   0.624   1.668   1.417
 1612HOH     H1 5041   0.655   1.640   1.504
 1612HOH     H2 5042   0.662   1.605   1.357
 1613HOH      O 5043   2.817   2.412   2.550
 1613HOH     H1 5044   2.763   2.385   2.477
 1613HOH     H2 5045   2.892   2.353   2.549
 1614HOH      O 5046   1.454   2.400   0.990
 1614HOH     H1 5047   1.381   2.449   0.950
 1614HOH     H2 5048   1.412   2.326   1.034
 1615HOH      O 5049   1.023   1.583   3.450
 1615HOH     H1 5050   1.012   1.622   3.537
 1615HOH     H2 5051   1.085   1.641   3.405
 1616HOH      O 5052   2.178   3.153   1.592
 1616HOH     H1 5053   2.249   3.138   1.654
 1616HOH     H2 5054   2.218   3.207   1.524
 1617HOH      O 5055   4.025   1.488   0.351
 1617HOH     H1 5056   3.988   1.440   0.426
 1617HOH     H2 5057   4.037   1.577   0.384
 1618HOH      O 5058   2.318   0.187   1.062
 1618HOH     H1 5059   2.408   0.177   1.093
 1618HOH     H2 5060   2.320   0.153   0.973
 1619HOH      O 5061   3.864   2.683   2.609
 1619HOH     H1 5062   3.906   2.767   2.593
 1619HOH     H2 5063   3.798   2.675   2.541
 1620HOH      O 5064   0.783   3.356   1.520
 1620HOH     H1 5065   0.690   3.356   1.544
 1620HOH     H2 5066   0.819   3.279   1.565
 1621HOH      O 5067   0.419   2.666   1.932
 1621HOH     H1 5068   0.481   2.604   1.895
 1621HOH     H2 5069   0.379   2.620   2.006
 1622HOH      O 5070   1.428   1.881   0.137
 1622HOH     H1 5071   1.457   1.810   0.079
 1622HOH     H2 5072   1.379   1.836   0.206
 1623HOH      O 5073   0.227   1.743   1.875
 1623HOH     H1 5074   0.141   1.785   1.878
 1623HOH     H2 5075   0.257   1.756   1.785
 1624HOH      O 5076   0.062   3.410   3.362
 1624HOH     H1 5077  -0.012   3.422   3.303
 1624HOH     H2 5078   0.138   3.437   3.310
 1625HOH      O 5079   3.203   2.635   3.191
 1625HOH     H1 5080   3.265   2.697   3.229
 1625HOH     H2 5081   3.118   2.678   3.197
 1626HOH      O 5082   1.776   1.001   1.750
 1626HOH     H1 5083   1.737   0.917   1.772
 1626HOH     H2 5084   1.862   0.979   1.713
 1627HOH      O 5085   1.188   0.528   3.322
 1627HOH     H1 5086   1.252   0.458   3.309
 1627HOH     H2 5087   1.106   0.491   3.289
 1628HOH      O 5088   2.424   1.709   2.947
 1628HOH     H1 5089   2.409   1.787   2.893
 1628HOH     H2 5090   2.371   1.723   3.025
 1629HOH      O 5091   1.092   3.130   0.636
 1629HOH     H1 5092   1.083   3.215   0.679
 1629HOH     H2 5093   1.169   3.140   0.579
 1630HOH      O 5094   1.285   0.502   2.373
 1630HOH     H1 5095   1.221   0.461   2.432
 1630HOH     H2 5096   1.262   0.595   2.374
 1631HOH      O 5097   0.082   3.517   0.753
 1631HOH     H1 5098   0.089   3.434   0.706
 1631HOH     H2 5099   0.127   3.501   0.836
 1632HOH      O 5100   1.660   0.296   3.955
 1632HOH     H1 5101   1.715   0.281   4.032
 1632HOH     H2 5102   1.688   0.381   3.922
 1633HOH      O 5103   0.902   3.095   2.524
 1633HOH     H1 5104   0.910   3.176   2.474
 1633HOH     H2 5105   0.989   3.082   2.561
 1634HOH      O 5106   1.913   3.637   0.418
 1634HOH     H1 5107   1.883   3.639   0.509
 1634HOH     H2 5108   1.891   3.724   0.384
 1635HOH      O 5109  -0.033   1.799   2.280
 1635HOH     H1 5110   0.005   1.871   2.228
 1635HOH     H2 5111   0.042   1.749   2.309
 1636HOH      O 5112   0.905   0.520   2.354
 1636HOH     H1 5113   0.963   0.524   2.278
 1636HOH     H2 5114   0.857   0.603   2.352
 1637HOH      O 5115   3.211   0.517   1.302
 1637HOH     H1 5116   3.259   0.599   1.289
 1637HOH     H2 5117   3.119   0.543   1.297
 1638HOH      O 5118   2.266   1.428   1.003
 1638HOH     H1 5119   2.178   1.426   1.040
 1638HOH     H2 5120   2.261   1.490   0.930
 1639HOH      O 5121   2.754   1.251   3.012
 1639HOH     H1 5122   2.662   1.264   3.035
 1639HOH     H2 5123   2.776   1.328   2.959
 1640HOH      O 5124   2.542   3.906   1.952
 1640HOH     H1 5125   2.519   3.999   1.958
 1640HOH     H2 5126   2.556   3.891   1.859
 1641HOH      O 5127   2.904   2.840   1.757
 1641HOH     H1 5128   2.830   2.845   1.818
 1641HOH     H2 5129   2.967   2.904   1.790
 1642HOH      O 5130   0.459   1.753   3.255
 1642HOH     H1 5131   0.372   1.764   3.294
 1642HOH     H2 5132   0.443   1.703   3.175
 1643HOH      O 5133   3.139   3.607   3.637
 1643HOH     H1 5134   3.093   3.664   3.699
 1643HOH     H2 5135   3.190   3.548   3.692
 1644HOH      O 5136   0.391   0.786   3.343
 1644HOH     H1 5137   0.317   0.794   3.283
 1644HOH     H2 5138   0.404   0.874   3.378
 1645HOH      O 5139   0.729   1.224   3.746
 1645HOH     H1 5140   0.677   1.208   3.668
 1645HOH     H2 5141   0.720   1.144   3.798
 1646HOH      O 5142   2.215   1.825   3.607
 1646HOH     H1 5143   2.127   1.797   3.582
 1646HOH     H2 5144   2.267   1.744   3.607
 1647HOH      O 5145   0.105   2.632   0.269
 1647HOH     H1 5146   0.140   2.720   0.289
 1647HOH     H2 5147   0.010   2.644   0.268
 1648HOH      O 5148   2.162   3.043   2.223
 1648HOH     H1 5149   2.142   3.022   2.132
 1648HOH     H2 5150   2.079   3.032   2.269
 1649HOH      O 5151   2.507   0.268   0.126
 1649HOH     H1 5152   2.594   0.299   0.101
 1649HOH     H2 5153   2.447   0.312   0.065
 1650HOH      O 5154   1.056   2.972   4.047
 1650HOH     H1 5155   0.997   2.897   4.043
 1650HOH     H2 5156   1.074   2.994   3.956
 1651HOH      O 5157   2.172   4.046   2.225
 1651HOH     H1 5158   2.247   4.080   2.274
 1651HOH     H2 5159   2.204   3.965   2.185
 1652HOH      O 5160   3.218   3.028   3.606
 1652HOH     H1 5161   3.127   3.028   3.578
 1652HOH     H2 5162   3.216   3.051   3.698
 1653HOH      O 5163   1.244   2.665   1.967
 1653HOH     H1 5164   1.220   2.632   1.880
 1653HOH     H2 5165   1.162   2.698   2.004
 1654HOH      O 5166   0.495   0.724   0.684
 1654HOH     H1 5167   0.498   0.722   0.588
 1654HOH     H2 5168   0.403   0.736   0.705
 1655HOH      O 5169   3.651   2.910   0.897
 1655HOH     H1 5170   3.661   2.815   0.892
 1655HOH     H2 5171   3.604   2.926   0.979
 1656HOH      O 5172   2.311   0.900   1.121
 1656HOH     H1 5173   2.272   0.924   1.205
 1656HOH     H2 5174   2.357   0.978   1.092
 1657HOH      O 5175   0.348   1.281   3.612
 1657HOH     H1 5176   0.429   1.320   3.579
 1657HOH     H2 5177   0.362   1.274   3.706
 1658HOH      O 5178   3.287   3.564   0.725
 1658HOH     H1 5179   3.263   3.644   0.679
 1658HOH     H2 5180   3.345   3.518   0.665
 1659HOH      O 5181   3.594   3.327   0.746
 1659HOH     H1 5182   3.509   3.303   0.783
 1659HOH     H2 5183   3.573   3.362   0.659
 1660HOH      O 5184   2.201   2.125   2.901
 1660HOH     H1 5185   2.113   2.151   2.927
 1660HOH     H2 5186   2.230   2.195   2.843
 1661HOH      O 5187   2.066   0.732   3.416
 1661HOH     H1 5188   2.009   0.664   3.452
 1661HOH     H2 5189   2.067   0.715   3.322
 1662HOH      O 5190   1.530   2.005   3.670
 1662HOH     H1 5191   1.612   2.009   3.719
 1662HOH     H2 5192   1.517   1.911   3.652
 1663HOH      O 5193   2.084   0.853   0.361
 1663HOH     H1 5194   2.023   0.845   0.434
 1663HOH     H2 5195   2.064   0.778   0.306
 1664HOH      O 5196   0.942   3.546   0.766
 1664HOH     H1 5197   0.980   3.632   0.750
 1664HOH     H2 5198   1.007   3.500   0.819
 1665HOH      O 5199   1.310   0.234   2.583
 1665HOH     H1 5200   1.222   0.255   2.553
 1665HOH     H2 5201   1.297   0.175   2.658
 1666HOH      O 5202   0.317   3.082   0.793
 1666HOH     H1 5203   0.226   3.102   0.816
 1666HOH     H2 5204   0.361   3.166   0.795
 1667HOH      O 5205   2.032   0.968   1.385
 1667HOH     H1 5206   1.975   0.969   1.308
 1667HOH     H2 5207   2.109   1.019   1.359
 1668HOH      O 5208   1.407   0.222   1.016
 1668HOH     H1 5209   1.370   0.266   0.940
 1668HOH     H2 5210   1.466   0.156   0.978
 1669HOH      O 5211   0.270   1.118   3.133
 1669HOH     H1 5212   0.194   1.160   3.092
 1669HOH     H2 5213   0.346   1.160   3.091
 1670HOH      O 5214   2.455   2.228   1.125
 1670HOH     H1 5215   2.511   2.151   1.117
 1670HOH     H2 5216   2.487   2.273   1.203
 1671HOH      O 5217   0.036   3.249   0.586
 1671HOH     H1 5218   0.059   3.161   0.554
 1671HOH     H2 5219  -0.021   3.285   0.519
 1672HOH      O 5220   3.896   1.600   1.973
 1672HOH     H1 5221   3.955   1.667   1.939
 1672HOH     H2 5222   3.901   1.529   1.910
 1673HOH      O 5223   1.707   0.578   2.583
 1673HOH     H1 5224   1.760   0.514   2.630
 1673HOH     H2 5225   1.617   0.553   2.601
 1674HOH      O 5226   2.077   2.368   0.046
 1674HOH     H1 5227   2.031   2.439   0.093
 1674HOH     H2 5228   2.102   2.306   0.115
 1675HOH      O 5229   1.237   3.310   3.821
 1675HOH     H1 5230   1.332   3.311   3.831
 1675HOH     H2 5231   1.210   3.399   3.845
 1676HOH      O 5232   0.726   1.913   1.469
 1676HOH     H1 5233   0.699   1.824   1.450
 1676HOH     H2 5234   0.815   1.919   1.436
 1677HOH      O 5235   1.502   1.748   1.833
 1677HOH     H1 5236   1.448   1.683   1.788
 1677HOH     H2 5237   1.541   1.800   1.762
 1678HOH      O 5238   3.189   2.364   4.038
 1678HOH     H1 5239   3.241   2.283   4.035
 1678HOH     H2 5240   3.163   2.380   3.947
 1679HOH      O 5241   2.962   1.412   1.749
 1679HOH     H1 5242   3.045   1.458   1.762
 1679HOH     H2 5243   2.920   1.415   1.835
 1680HOH      O 5244   3.730   1.363   2.753
 1680HOH     H1 5245   3.700   1.319   2.674
 1680HOH     H2 5246   3.654   1.362   2.812
 1681HOH      O 5247   0.276   0.342   2.589
 1681HOH     H1 5248   0.182   0.350   2.609
 1681HOH     H2 5249   0.280   0.273   2.523
 1682HOH      O 5250   2.425   0.688   0.455
 1682HOH     H1 5251   2.448   0.647   0.372
 1682HOH     H2 5252   2.376   0.621   0.502
 1683HOH      O 5253   2.795   3.963   2.601
 1683HOH     H1 5254   2.860   3.987   2.534
 1683HOH     H2 5255   2.719   3.934   2.550
 1684HOH      O 5256   0.190   3.989   3.089
 1684HOH     H1 5257   0.116   4.001   3.030
 1684HOH     H2 5258   0.169   3.910   3.139
 1685HOH      O 5259   3.496   1.622   3.204
 1685HOH     H1 5260   3.585   1.645   3.179
 1685HOH     H2 5261   3.482   1.667   3.288
 1686HOH      O 5262   1.733   1.205   0.860
 1686HOH     H1 5263   1.649   1.212   0.815
 1686HOH     H2 5264   1.723   1.131   0.919
 1687HOH      O 5265   1.512   2.643   2.569
 1687HOH     H1 5266   1.594   2.594   2.572
 1687HOH     H2 5267   1.518   2.695   2.488
 1688HOH      O 5268   0.309   0.387   3.394
 1688HOH     H1 5269   0.293   0.447   3.467
 1688HOH     H2 5270   0.259   0.423   3.321
 1689HOH      O 5271   1.307   3.207   1.854
 1689HOH     H1 5272   1.276   3.117   1.856
 1689HOH     H2 5273   1.311   3.234   1.946
 1690HOH      O 5274   3.609   3.572   1.672
 1690HOH     H1 5275   3.562   3.509   1.726
 1690HOH     H2 5276   3.693   3.583   1.716
 1691HOH      O 5277   0.851   3.521   1.858
 1691HOH     H1 5278   0.883   3.611   1.862
 1691HOH     H2 5279   0.900   3.482   1.786
 1692HOH      O 5280   3.069   1.346   0.005
 1692HOH     H1 5281   3.062   1.290   0.081
 1692HOH     H2 5282   3.084   1.287  -0.068
 1693HOH      O 5283   0.065   3.346   1.842
 1693HOH     H1 5284   0.132   3.414   1.838
 1693HOH     H2 5285   0.094   3.280   1.778
 1694HOH      O 5286   1.186   3.717   2.773
 1694HOH     H1 5287   1.123   3.783   2.800
 1694HOH     H2 5288   1.259   3.766   2.736
 1695HOH      O 5289   1.473   3.169   2.822
 1695HOH     H1 5290   1.543   3.181   2.886
 1695HOH     H2 5291   1.399   3.137   2.874
 1696HOH      O 5292   2.593   3.548   0.374
 1696HOH     H1 5293   2.583   3.491   0.450
 1696HOH     H2 5294   2.509   3.593   0.367
 1697HOH      O 5295   1.863   3.602   1.072
 1697HOH     H1 5296   1.836   3.687   1.106
 1697HOH     H2 5297   1.797   3.541   1.104
 1698HOH      O 5298   1.501   3.293   0.505
 1698HOH     H1 5299   1.409   3.310   0.524
 1698HOH     H2 5300   1.546   3.306   0.588
 1699HOH      O 5301   2.870   2.258   2.179
 1699HOH     H1 5302   2.963   2.246   2.198
 1699HOH     H2 5303   2.826   2.230   2.259
 1700HOH      O 5304   2.439   0.006   0.094
 1700HOH     H1 5305   2.478   0.092   0.081
 1700HOH     H2 5306   2.435  -0.032   0.007
 1701HOH      O 5307   3.670   2.815   3.589
 1701HOH     H1 5308   3.683   2.819   3.494
 1701HOH     H2 5309   3.740   2.759   3.620
 1702HOH      O 5310   1.706   1.680   0.632
 1702HOH     H1 5311   1.633   1.632   0.593
 1702HOH     H2 5312   1.666   1.760   0.666
 1703HOH      O 5313   0.235   3.812   1.309
 1703HOH     H1 5314   0.307   3.851   1.260
 1703HOH     H2 5315   0.260   3.720   1.320
 1704HOH      O 5316   0.154   3.206   1.626
 1704HOH     H1 5317   0.177   3.130   1.572
 1704HOH     H2 5318   0.145   3.278   1.563
 1705HOH      O 5319   2.683   2.523   3.438
 1705HOH     H1 5320   2.700   2.613   3.466
 1705HOH     H2 5321   2.592   2.523   3.411
 1706HOH      O 5322   0.134   2.658   3.656
 1706HOH     H1 5323   0.124   2.579   3.603
 1706HOH     H2 5324   0.093   2.727   3.603
 1707HOH      O 5325   2.605   1.274   1.165
 1707HOH     H1 5326   2.539   1.228   1.114
 1707HOH     H2 5327   2.556   1.344   1.209
 1708HOH      O 5328   2.113   2.370   3.575
 1708HOH     H1 5329   2.122   2.402   3.664
 1708HOH     H2 5330   2.154   2.284   3.575
 1709HOH      O 5331   2.677   0.929   2.083
 1709HOH     H1 5332   2.690   0.866   2.153
 1709HOH     H2 5333   2.583   0.948   2.084
 1710HOH      O 5334   3.359   1.721   1.852
 1710HOH     H1 5335   3.401   1.729   1.938
 1710HOH     H2 5336   3.328   1.809   1.831
 1711HOH      O 5337   1.530   2.204   3.473
 1711HOH     H1 5338   1.544   2.143   3.545
 1711HOH     H2 5339   1.512   2.288   3.516
 1712HOH      O 5340   2.698   1.819   2.945
 1712HOH     H1 5341   2.693   1.764   3.023
 1712HOH     H2 5342   2.607   1.830   2.917
 1713HOH      O 5343   2.227   3.716   1.336
 1713HOH     H1 5344   2.253   3.744   1.424
 1713HOH     H2 5345   2.157   3.652   1.350
 1714HOH      O 5346   3.050   3.764   1.402
 1714HOH     H1 5347   3.081   3.676   1.380
 1714HOH     H2 5348   2.963   3.769   1.363
 1715HOH      O 5349   1.064   1.748   2.535
 1715HOH     H1 5350   1.140   1.786   2.580
 1715HOH     H2 5351   1.090   1.658   2.515
 1716HOH      O 5352   0.388   3.221   1.843
 1716HOH     H1 5353   0.329   3.170   1.787
 1716HOH     H2 5354   0.365   3.312   1.825
 1717HOH      O 5355   0.318   0.535   1.628
 1717HOH     H1 5356   0.332   0.569   1.540
 1717HOH     H2 5357   0.253   0.594   1.666
 1718HOH      O 5358   3.493   2.536   3.815
 1718HOH     H1 5359   3.477   2.505   3.725
 1718HOH     H2 5360   3.491   2.456   3.868
 1719HOH      O 5361   3.331   1.393   3.110
 1719HOH     H1 5362   3.355   1.482   3.134
 1719HOH     H2 5363   3.277   1.362   3.184
 1720HOH      O 5364   1.128   1.736   1.975
 1720HOH     H1 5365   1.177   1.793   2.034
 1720HOH     H2 5366   1.137   1.648   2.012
 1721HOH      O 5367   3.242   1.880   3.487
 1721HOH     H1 5368   3.167   1.849   3.436
 1721HOH     H2 5369   3.221   1.856   3.578
 1722HOH      O 5370   2.513   2.207   3.216
 1722HOH     H1 5371   2.513   2.112   3.212
 1722HOH     H2 5372   2.600   2.233   3.185
 1723HOH      O 5373   1.840   0.276   0.827
 1723HOH     H1 5374   1.771   0.291   0.762
 1723HOH     H2 5375   1.808   0.320   0.906
 1724HOH      O 5376   1.652   0.533   1.685
 1724HOH     H1 5377   1.687   0.490   1.763
 1724HOH     H2 5378   1.582   0.475   1.655
 1725HOH      O 5379   2.979   3.347   3.064
 1725HOH     H1 5380   2.946   3.413   3.125
 1725HOH     H2 5381   3.001   3.396   2.985
 1726HOH      O 5382   3.446   0.301   3.396
 1726HOH     H1 5383   3.457   0.210   3.370
 1726HOH     H2 5384   3.534   0.338   3.395
 1727HOH      O 5385   1.544   3.750   1.000
 1727HOH     H1 5386   1.606   3.806   1.048
 1727HOH     H2 5387   1.539   3.670   1.052
 1728HOH      O 5388   1.969   2.776   2.151
 1728HOH     H1 5389   1.903   2.754   2.216
 1728HOH     H2 5390   1.964   2.871   2.142
 1729HOH      O 5391   2.274   0.787   0.763
 1729HOH     H1 5392   2.263   0.848   0.690
 1729HOH     H2 5393   2.202   0.808   0.822
 1730HOH      O 5394   1.593   1.770   3.989
 1730HOH     H1 5395   1.525   1.801   3.930
 1730HOH     H2 5396   1.655   1.843   3.995
 1731HOH      O 5397   2.535   0.561   1.026
 1731HOH     H1 5398   2.495   0.580   1.111
 1731HOH     H2 5399   2.545   0.647   0.985
 1732HOH      O 5400   2.569   3.894   2.425
 1732HOH     H1 5401   2.485   3.905   2.469
 1732HOH     H2 5402   2.567   3.806   2.390
 1733HOH      O 5403   3.112   0.041   3.776
 1733HOH     H1 5404   3.132  -0.018   3.703
 1733HOH     H2 5405   3.185   0.104   3.776
 1734HOH      O 5406   1.811   3.127   3.690
 1734HOH     H1 5407   1.757   3.206   3.686
 1734HOH     H2 5408   1.748   3.055   3.696
 1735HOH      O 5409   0.954   2.289   1.147
 1735HOH     H1 5410   0.896   2.360   1.122
 1735HOH     H2 5411   0.994   2.259   1.065
 1736HOH      O 5412   3.057   3.483   3.389
 1736HOH     H1 5413   3.136   3.521   3.351
 1736HOH     H2 5414   3.058   3.513   3.480
 1737HOH      O 5415   1.123   0.380   0.221
 1737HOH     H1 5416   1.197   0.402   0.278
 1737HOH     H2 5417   1.046   0.406   0.271
 1738HOH      O 5418   3.919   1.660   0.647
 1738HOH     H1 5419   3.852   1.718   0.612
 1738HOH     H2 5420   3.904   1.577   0.602
 1739HOH      O 5421   3.628   0.910   1.549
 1739HOH     H1 5422   3.647   0.983   1.490
 1739HOH     H2 5423   3.706   0.855   1.545
 1740HOH      O 5424   1.074   2.241   1.982
 1740HOH     H1 5425   1.035   2.175   1.925
 1740HOH     H2 5426   1.028   2.322   1.960
 1741HOH      O 5427   0.412   3.687   0.425
 1741HOH     H1 5428   0.479   3.756   0.423
 1741HOH     H2 5429   0.333   3.730   0.392
 1742HOH      O 5430   3.175   0.591   1.988
 1742HOH     H1 5431   3.236   0.583   1.915
 1742HOH     H2 5432   3.144   0.681   1.984
 1743HOH      O 5433   0.567   0.923   2.349
 1743HOH     H1 5434   0.545   0.941   2.440
 1743HOH     H2 5435   0.543   0.831   2.336
 1744HOH      O 5436   1.552   1.218   0.215
 1744HOH     H1 5437   1.514   1.147   0.164
 1744HOH     H2 5438   1.553   1.186   0.305
 1745HOH      O 5439   0.407   0.057   4.033
 1745HOH     H1 5440   0.319   0.040   4.068
 1745HOH     H2 5441   0.403   0.149   4.004
 1746HOH      O 5442   1.810   2.382   1.370
 1746HOH     H1 5443   1.855   2.409   1.291
 1746HOH     H2 5444   1.752   2.311   1.342
 1747HOH      O 5445   1.934   0.187   2.822
 1747HOH     H1 5446   1.925   0.142   2.906
 1747HOH     H2 5447   1.929   0.118   2.756
 1748HOH      O 5448   2.324   0.843   3.138
 1748HOH     H1 5449   2.287   0.868   3.223
 1748HOH     H2 5450   2.323   0.747   3.139
 1749HOH      O 5451   2.840   1.497   3.959
 1749HOH     H1 5452   2.915   1.446   3.989
 1749HOH     H2 5453   2.771   1.433   3.942
 1750HOH      O 5454   0.559   3.223   0.150
 1750HOH     H1 5455   0.628   3.271   0.197
 1750HOH     H2 5456   0.485   3.283   0.147
 1751HOH      O 5457   3.531   3.464   3.586
 1751HOH     H1 5458   3.476   3.484   3.510
 1751HOH     H2 5459   3.615   3.439   3.549
 1752HOH      O 5460   3.285   0.984   3.265
 1752HOH     H1 5461   3.300   1.022   3.178
 1752HOH     H2 5462   3.356   1.020   3.319
 1753HOH      O 5463   0.105   2.706   2.498
 1753HOH     H1 5464   0.060   2.642   2.442
 1753HOH     H2 5465   0.130   2.655   2.576
 1754HOH      O 5466   3.502   2.633   4.063
 1754HOH     H1 5467   3.493   2.620   3.969
 1754HOH     H2 5468   3.505   2.728   4.075
 1755HOH      O 5469   3.100   0.126   0.491
 1755HOH     H1 5470   3.168   0.063   0.515
 1755HOH     H2 5471   3.024   0.101   0.545
 1756HOH      O 5472   1.258   3.778   0.059
 1756HOH     H1 5473   1.304   3.737  -0.014
 1756HOH     H2 5474   1.168   3.788   0.027
 1757HOH      O 5475   3.974   1.246   1.042
 1757HOH     H1 5476   3.983   1.262   0.948
 1757HOH     H2 5477   4.050   1.288   1.081
 1758HOH      O 5478   1.808   1.770   2.290
 1758HOH     H1 5479   1.750   1.735   2.357
 1758HOH     H2 5480   1.790   1.718   2.212
 1759HOH      O 5481   2.939   0.414   3.222
 1759HOH     H1 5482   2.890   0.345   3.267
 1759HOH     H2 5483   2.953   0.380   3.134
 1760HOH      O 5484   3.450   2.502   3.490
 1760HOH     H1 5485   3.359   2.496   3.459
 1760HOH     H2 5486   3.490   2.567   3.432
 1761HOH      O 5487   1.617   2.704   0.059
 1761HOH     H1 5488   1.641   2.752   0.138
 1761HOH     H2 5489   1.648   2.615   0.075
 1762HOH      O 5490   2.733   0.627   3.223
 1762HOH     H1 5491   2.692   0.584   3.147
 1762HOH     H2 5492   2.819   0.586   3.230
 1763HOH      O 5493   2.516   1.908   3.216
 1763HOH     H1 5494   2.534   1.947   3.302
 1763HOH     H2 5495   2.434   1.861   3.228
 1764HOH      O 5496   1.864   1.388   3.031
 1764HOH     H1 5497   1.953   1.408   3.059
 1764HOH     H2 5498   1.874   1.353   2.942
 1765HOH      O 5499   3.732   1.537   3.944
 1765HOH     H1 5500   3.786   1.498   4.013
 1765HOH     H2 5501   3.655   1.571   3.990
 1766HOH      O 5502   1.098   0.852   3.045
 1766HOH     H1 5503   1.153   0.898   3.108
 1766HOH     H2 5504   1.029   0.813   3.099
 1767HOH      O 5505   3.111   3.020   2.875
 1767HOH     H1 5506   3.119   3.031   2.780
 1767HOH     H2 5507   3.017   3.009   2.890
 1768HOH      O 5508   3.494   3.691   2.460
 1768HOH     H1 5509   3.569   3.730   2.504
 1768HOH     H2 5510   3.529   3.654   2.380
 1769HOH      O 5511   3.917   1.129   2.267
 1769HOH     H1 5512   3.863   1.208   2.272
 1769HOH     H2 5513   3.996   1.157   2.221
 1770HOH      O 5514   1.475   0.795   3.131
 1770HOH     H1 5515   1.477   0.743   3.050
 1770HOH     H2 5516   1.565   0.791   3.164
 1771HOH      O 5517   1.444   3.653   3.635
 1771HOH     H1 5518   1.350   3.642   3.624
 1771HOH     H2 5519   1.458   3.645   3.729
 1772HOH      O 5520   0.217   1.320   0.535
 1772HOH     H1 5521   0.209   1.291   0.626
 1772HOH     H2 5522   0.281   1.391   0.538
 1773HOH      O 5523   3.654   0.272   1.432
 1773HOH     H1 5524   3.599   0.255   1.509
 1773HOH     H2 5525   3.651   0.367   1.420
 1774HOH      O 5526   2.362   1.591   3.617
 1774HOH     H1 5527   2.454   1.611   3.606
 1774HOH     H2 5528   2.352   1.502   3.583
 1775HOH      O 5529   1.493   3.752   0.736
 1775HOH     H1 5530   1.516   3.747   0.829
 1775HOH     H2 5531   1.446   3.671   0.718
 1776HOH      O 5532   3.544   2.043   2.069
 1776HOH     H1 5533   3.626   2.034   2.117
 1776HOH     H2 5534   3.570   2.041   1.977
 1777HOH      O 5535   2.010   3.628   2.428
 1777HOH     H1 5536   2.101   3.627   2.460
 1777HOH     H2 5537   1.991   3.721   2.414
 1778HOH      O 5538   1.559   1.007   2.606
 1778HOH     H1 5539   1.589   1.094   2.633
 1778HOH     H2 5540   1.587   0.999   2.515
 1779HOH      O 5541   1.469   0.456   2.598
 1779HOH     H1 5542   1.427   0.514   2.535
 1779HOH     H2 5543   1.411   0.380   2.604
 1780HOH      O 5544   0.201   0.569   0.095
 1780HOH     H1 5545   0.131   0.522   0.050
 1780HOH     H2 5546   0.175   0.661   0.091
 1781HOH      O 5547   1.919   1.414   1.544
 1781HOH     H1 5548   1.974   1.404   1.621
 1781HOH     H2 5549   1.872   1.330   1.537
 1782HOH      O 5550   0.979   1.065   2.513
 1782HOH     H1 5551   1.059   1.091   2.468
 1782HOH     H2 5552   0.983   1.111   2.597
 1783HOH      O 5553   1.519   2.825   1.855
 1783HOH     H1 5554   1.507   2.777   1.773
 1783HOH     H2 5555   1.604   2.796   1.888
 1784HOH      O 5556   2.845   0.142   2.176
 1784HOH     H1 5557   2.785   0.067   2.178
 1784HOH     H2 5558   2.924   0.108   2.134
 1785HOH      O 5559   1.304   0.159   3.767
 1785HOH     H1 5560   1.383   0.128   3.723
 1785HOH     H2 5561   1.335   0.193   3.851
 1786HOH      O 5562   0.051   1.903   3.498
 1786HOH     H1 5563   0.019   1.825   3.543
 1786HOH     H2 5564   0.116   1.941   3.557
 1787HOH      O 5565   3.066   2.006   0.374
 1787HOH     H1 5566   3.156   2.032   0.357
 1787HOH     H2 5567   3.064   1.912   0.355
 1788HOH      O 5568   2.091   1.463   0.704
 1788HOH     H1 5569   2.053   1.375   0.707
 1788HOH     H2 5570   2.184   1.448   0.683
 1789HOH      O 5571   2.753   3.641   0.717
 1789HOH     H1 5572   2.700   3.590   0.778
 1789HOH     H2 5573   2.723   3.731   0.728
 1790HOH      O 5574   3.926   0.224   1.494
 1790HOH     H1 5575   3.967   0.231   1.408
 1790HOH     H2 5576   3.832   0.223   1.475
 1791HOH      O 5577   3.022   1.170   0.630
 1791HOH     H1 5578   3.060   1.101   0.576
 1791HOH     H2 5579   3.027   1.249   0.576
 1792HOH      O 5580   1.091   0.346   3.888
 1792HOH     H1 5581   1.165   0.291   3.862
 1792HOH     H2 5582   1.041   0.358   3.807
 1793HOH      O 5583   0.342   3.422   2.086
 1793HOH     H1 5584   0.426   3.381   2.065
 1793HOH     H2 5585   0.354   3.457   2.174
 1794HOH      O 5586   2.831   1.591   2.200
 1794HOH     H1 5587   2.839   1.585   2.296
 1794HOH     H2 5588   2.746   1.632   2.186
 1795HOH      O 5589   1.907   3.205   0.500
 1795HOH     H1 5590   1.943   3.131   0.549
 1795HOH     H2 5591   1.881   3.268   0.568
 1796HOH      O 5592   1.974   2.929   1.638
 1796HOH     H1 5593   2.029   3.006   1.655
 1796HOH     H2 5594   1.978   2.917   1.543
 1797HOH      O 5595   0.033   0.302   4.034
 1797HOH     H1 5596   0.117   0.309   3.989
 1797HOH     H2 5597  -0.024   0.257   3.972
 1798HOH      O 5598   1.038   2.377   3.348
 1798HOH     H1 5599   0.973   2.410   3.287
 1798HOH     H2 5600   1.104   2.446   3.352
 1799HOH      O 5601   1.261   0.520  -0.014
 1799HOH     H1 5602   1.332   0.456  -0.015
 1799HOH     H2 5603   1.192   0.479   0.037
 1800HOH      O 5604   1.695   3.722   3.926
 1800HOH     H1 5605   1.762   3.655   3.938
 1800HOH     H2 5606   1.645   3.720   4.007
 1801HOH      O 5607   1.393   0.305   1.385
 1801HOH     H1 5608   1.439   0.246   1.326
 1801HOH     H2 5609   1.402   0.392   1.344
 1802HOH      O 5610   1.655   1.689   3.057
 1802HOH     H1 5611   1.647   1.776   3.097
 1802HOH     H2 5612   1.750   1.678   3.046
 1803HOH      O 5613   1.924   3.004   2.365
 1803HOH     H1 5614   1.881   2.919   2.360
 1803HOH     H2 5615   1.854   3.065   2.386
 1804HOH      O 5616   3.302   4.009   2.150
 1804HOH     H1 5617   3.311   4.074   2.220
 1804HOH     H2 5618   3.391   3.984   2.128
 1805HOH      O 5619   0.481   1.517   2.282
 1805HOH     H1 5620   0.475   1.591   2.222
 1805HOH     H2 5621   0.542   1.546   2.350
 1806HOH      O 5622   3.342   3.521   1.000
 1806HOH     H1 5623   3.298   3.569   0.930
 1806HOH     H2 5624   3.420   3.573   1.019
 1807HOH      O 5625   1.915   3.564   3.993
 1807HOH     H1 5626   1.880   3.476   4.009
 1807HOH     H2 5627   1.948   3.592   4.078
 1808HOH      O 5628   1.926   2.272   0.766
 1808HOH     H1 5629   1.871   2.311   0.834
 1808HOH     H2 5630   2.001   2.236   0.814
 1809HOH      O 5631   2.050   0.296   1.095
 1809HOH     H1 5632   2.134   0.250   1.091
 1809HOH     H2 5633   2.072   0.388   1.108
 1810HOH      O 5634   2.039   0.632   2.868
 1810HOH     H1 5635   1.986   0.712   2.872
 1810HOH     H2 5636   2.034   0.595   2.956
 1811HOH      O 5637   0.767   2.558   3.897
 1811HOH     H1 5638   0.693   2.619   3.904
 1811HOH     H2 5639   0.755   2.515   3.812
 1812HOH      O 5640   0.686   2.967   2.624
 1812HOH     H1 5641   0.613   3.000   2.572
 1812HOH     H2 5642   0.763   3.008   2.585
 1813HOH      O 5643   1.322   0.685   1.856
 1813HOH     H1 5644   1.245   0.702   1.912
 1813HOH     H2 5645   1.381   0.758   1.875
 1814HOH      O 5646   3.690   3.826   1.116
 1814HOH     H1 5647   3.744   3.849   1.040
 1814HOH     H2 5648   3.632   3.900   1.127
 1815HOH      O 5649   3.936   0.844   3.944
 1815HOH     H1 5650   3.973   0.932   3.947
 1815HOH     H2 5651   3.843   0.857   3.961
 1816HOH      O 5652   0.540   0.170   1.012
 1816HOH     H1 5653   0.600   0.097   1.026
 1816HOH     H2 5654   0.591   0.247   1.035
 1817HOH      O 5655   1.444   0.462   1.942
 1817HOH     H1 5656   1.388   0.536   1.917
 1817HOH     H2 5657   1.515   0.464   1.878
 1818HOH      O 5658   0.085   3.448   2.393
 1818HOH     H1 5659   0.119   3.359   2.390
 1818HOH     H2 5660   0.028   3.454   2.317
 1819HOH      O 5661   2.561   1.657   2.083
 1819HOH     H1 5662   2.484   1.702   2.049
 1819HOH     H2 5663   2.526   1.578   2.124
 1820HOH      O 5664   0.239   0.948   3.897
 1820HOH     H1 5665   0.190   0.959   3.815
 1820HOH     H2 5666   0.306   1.016   3.894
 1821HOH      O 5667   2.271   0.318   0.545
 1821HOH     H1 5668   2.283   0.369   0.626
 1821HOH     H2 5669   2.181   0.284   0.551
 1822HOH      O 5670   0.573   1.503   0.214
 1822HOH     H1 5671   0.616   1.588   0.224
 1822HOH     H2 5672   0.481   1.520   0.236
 1823HOH      O 5673   0.053   1.150   2.957
 1823HOH     H1 5674  -0.019   1.115   3.008
 1823HOH     H2 5675   0.028   1.241   2.940
 1824HOH      O 5676   3.367   1.099   1.717
 1824HOH     H1 5677   3.280   1.117   1.683
 1824HOH     H2 5678   3.401   1.185   1.742
 1825HOH      O 5679   3.615   0.716   1.170
 1825HOH     H1 5680   3.681   0.782   1.191
 1825HOH     H2 5681   3.550   0.763   1.117
 1826HOH      O 5682   3.327   2.668   2.369
 1826HOH     H1 5683   3.299   2.578   2.352
 1826HOH     H2 5684   3.298   2.685   2.459
 1827HOH      O 5685   1.201   1.510   3.004
 1827HOH     H1 5686   1.150   1.561   3.067
 1827HOH     H2 5687   1.280   1.561   2.990
 1828HOH      O 5688   1.755   0.395   1.883
 1828HOH     H1 5689   1.784   0.310   1.850
 1828HOH     H2 5690   1.799   0.404   1.967
 1829HOH      O 5691   3.206   1.855   2.185
 1829HOH     H1 5692   3.161   1.779   2.148
 1829HOH     H2 5693   3.142   1.892   2.246
 1830HOH      O 5694   1.348   1.410   0.703
 1830HOH     H1 5695   1.359   1.475   0.773
 1830HOH     H2 5696   1.265   1.367   0.724
 1831HOH      O 5697   3.368   2.173   4.059
 1831HOH     H1 5698   3.459   2.202   4.060
 1831HOH     H2 5699   3.364   2.108   3.988
 1832HOH      O 5700   0.328   2.440   3.144
 1832HOH     H1 5701   0.295   2.529   3.132
 1832HOH     H2 5702   0.265   2.384   3.099
 1833HOH      O 5703   1.072   0.927   2.801
 1833HOH     H1 5704   1.151   0.982   2.794
 1833HOH     H2 5705   1.088   0.873   2.878
 1834HOH      O 5706   2.930   1.816   3.465
 1834HOH     H1 5707   2.888   1.785   3.384
 1834HOH     H2 5708   2.889   1.901   3.482
 1835HOH      O 5709   0.475   0.392   1.348
 1835HOH     H1 5710   0.463   0.425   1.259
 1835HOH     H2 5711   0.412   0.320   1.355
 1836HOH      O 5712   3.202   1.164   3.519
 1836HOH     H1 5713   3.213   1.073   3.547
 1836HOH     H2 5714   3.282   1.208   3.547
 1837HOH      O 5715   0.641   2.910   3.652
 1837HOH     H1 5716   0.658   2.947   3.566
 1837HOH     H2 5717   0.558   2.864   3.643
 1838HOH      O 5718   1.455   0.680   2.854
 1838HOH     H1 5719   1.442   0.722   2.769
 1838HOH     H2 5720   1.367   0.680   2.893
 1839HOH      O 5721   1.162   1.342   3.420
 1839HOH     H1 5722   1.093   1.408   3.422
 1839HOH     H2 5723   1.237   1.386   3.382
 1840HOH      O 5724   0.011   3.816   3.838
 1840HOH     H1 5725   0.015   3.911   3.828
 1840HOH     H2 5726   0.001   3.803   3.932
 1841HOH      O 5727   0.601   3.722   1.772
 1841HOH     H1 5728   0.628   3.642   1.819
 1841HOH     H2 5729   0.644   3.716   1.687
 1842HOH      O 5730   0.274   0.936   1.890
 1842HOH     H1 5731   0.254   1.028   1.910
 1842HOH     H2 5732   0.233   0.887   1.961
 1843HOH      O 5733   3.462   2.229   3.408
 1843HOH     H1 5734   3.421   2.313   3.429
 1843HOH     H2 5735   3.425   2.205   3.323
 1844HOH      O 5736   0.664   2.289   1.283
 1844HOH     H1 5737   0.707   2.290   1.198
 1844HOH     H2 5738   0.592   2.226   1.272
 1845HOH      O 5739   0.896   2.535   2.634
 1845HOH     H1 5740   0.892   2.613   2.690
 1845HOH     H2 5741   0.876   2.567   2.546
 1846HOH      O 5742   3.719   0.769   2.814
 1846HOH     H1 5743   3.715   0.860   2.784
 1846HOH     H2 5744   3.780   0.772   2.888
 1847HOH      O 5745   2.090   3.349   1.362
 1847HOH     H1 5746   2.036   3.362   1.284
 1847HOH     H2 5747   2.062   3.418   1.423
 1848HOH      O 5748   3.523   3.749   3.666
 1848HOH     H1 5749   3.546   3.807   3.594
 1848HOH     H2 5750   3.556   3.663   3.640
 1849HOH      O 5751   0.979   2.024   2.149
 1849HOH     H1 5752   1.038   1.949   2.143
 1849HOH     H2 5753   1.029   2.096   2.111
 1850HOH      O 5754   1.263   0.086   0.353
 1850HOH     H1 5755   1.195   0.070   0.288
 1850HOH     H2 5756   1.269   0.004   0.402
 1851HOH      O 5757   1.976   3.619   1.335
 1851HOH     H1 5758   1.941   3.583   1.254
 1851HOH     H2 5759   1.902   3.666   1.374
 1852HOH      O 5760   1.815   2.705   1.667
 1852HOH     H1 5761   1.804   2.685   1.760
 1852HOH     H2 5762   1.870   2.784   1.666
 1853HOH      O 5763   0.159   2.214   3.080
 1853HOH     H1 5764   0.237   2.160   3.074
 1853HOH     H2 5765   0.104   2.171   3.145
 1854HOH      O 5766   1.727   1.541   3.580
 1854HOH     H1 5767   1.664   1.546   3.651
 1854HOH     H2 5768   1.787   1.471   3.606
 1855HOH      O 5769   2.048   2.631   2.468
 1855HOH     H1 5770   2.090   2.565   2.523
 1855HOH     H2 5771   1.990   2.581   2.411
 1856HOH      O 5772   0.400   2.292   2.763
 1856HOH     H1 5773   0.385   2.355   2.692
 1856HOH     H2 5774   0.383   2.206   2.723
 1857HOH      O 5775   2.580   0.536   2.196
 1857HOH     H1 5776   2.620   0.594   2.262
 1857HOH     H2 5777   2.641   0.538   2.123
 1858HOH      O 5778   1.494   2.713   1.618
 1858HOH     H1 5779   1.462   2.623   1.629
 1858HOH     H2 5780   1.585   2.703   1.589
 1859HOH      O 5781   2.948   1.963   0.082
 1859HOH     H1 5782   2.957   1.871   0.057
 1859HOH     H2 5783   2.955   2.011  -0.000
 1860HOH      O 5784   0.555   1.412   3.201
 1860HOH     H1 5785   0.586   1.321   3.209
 1860HOH     H2 5786   0.602   1.459   3.270
 1861HOH      O 5787   1.362   0.368   2.876
 1861HOH     H1 5788   1.435   0.356   2.816
 1861HOH     H2 5789   1.332   0.457   2.859
 1862HOH      O 5790   2.034   3.077   3.554
 1862HOH     H1 5791   1.979   3.148   3.587
 1862HOH     H2 5792   2.004   2.999   3.602
 1863HOH      O 5793   0.313   3.795   3.752
 1863HOH     H1 5794   0.222   3.824   3.751
 1863HOH     H2 5795   0.332   3.773   3.661
 1864HOH      O 5796   2.825   3.240   2.784
 1864HOH     H1 5797   2.846   3.212   2.873
 1864HOH     H2 5798   2.811   3.159   2.736
 1865HOH      O 5799   3.684   1.158   2.546
 1865HOH     H1 5800   3.702   1.205   2.465
 1865HOH     H2 5801   3.589   1.151   2.549
 1866HOH      O 5802   3.042   2.166   1.645
 1866HOH     H1 5803   2.992   2.246   1.665
 1866HOH     H2 5804   3.016   2.144   1.555
 1867HOH      O 5805   2.278   3.479   2.226
 1867HOH     H1 5806   2.297   3.409   2.289
 1867HOH     H2 5807   2.246   3.434   2.149
 1868HOH      O 5808   2.837   2.057   0.563
 1868HOH     H1 5809   2.831   2.140   0.517
 1868HOH     H2 5810   2.910   2.012   0.522
 1869HOH      O 5811   1.878   2.032   1.880
 1869HOH     H1 5812   1.810   2.090   1.847
 1869HOH     H2 5813   1.874   2.041   1.975
 1870HOH      O 5814   1.654   0.294   0.630
 1870HOH     H1 5815   1.682   0.312   0.540
 1870HOH     H2 5816   1.598   0.216   0.623
 1871HOH      O 5817   1.176   3.699   0.814
 1871HOH     H1 5818   1.191   3.792   0.833
 1871HOH     H2 5819   1.253   3.654   0.849
 1872HOH      O 5820   3.114   1.980   1.821
 1872HOH     H1 5821   3.085   2.054   1.767
 1872HOH     H2 5822   3.184   2.016   1.876
 1873HOH      O 5823   2.358   3.340   1.449
 1873HOH     H1 5824   2.353   3.426   1.490
 1873HOH     H2 5825   2.329   3.354   1.359
 1874HOH      O 5826   2.053   0.897   2.345
 1874HOH     H1 5827   2.019   0.923   2.259
 1874HOH     H2 5828   2.004   0.818   2.367
 1875HOH      O 5829   0.970   3.564   1.582
 1875HOH     H1 5830   1.009   3.549   1.496
 1875HOH     H2 5831   0.900   3.499   1.589
 1876HOH      O 5832   1.280   2.900   1.557
 1876HOH     H1 5833   1.202   2.860   1.595
 1876HOH     H2 5834   1.346   2.830   1.558
 1877HOH      O 5835   2.043   2.727   0.102
 1877HOH     H1 5836   2.131   2.695   0.117
 1877HOH     H2 5837   1.986   2.663   0.146
 1878HOH      O 5838   4.040   2.313   2.608
 1878HOH     H1 5839   3.956   2.318   2.653
 1878HOH     H2 5840   4.020   2.277   2.522
 1879HOH      O 5841   1.620   1.063   0.461
 1879HOH     H1 5842   1.609   0.998   0.391
 1879HOH     H2 5843   1.533   1.068   0.501
 1880HOH      O 5844   2.494   0.706   3.926
 1880HOH     H1 5845   2.434   0.710   3.852
 1880HOH     H2 5846   2.575   0.670   3.890
 1881HOH      O 5847   3.017   2.907   1.097
 1881HOH     H1 5848   3.044   2.879   1.184
 1881HOH     H2 5849   2.933   2.862   1.082
 1882HOH      O 5850   1.673   1.284   3.210
 1882HOH     H1 5851   1.716   1.280   3.295
 1882HOH     H2 5852   1.740   1.319   3.151
 1883HOH      O 5853   2.737   3.688   1.343
 1883HOH     H1 5854   2.726   3.597   1.371
 1883HOH     H2 5855   2.735   3.684   1.247
 1884HOH      O 5856   0.900   0.003   2.218
 1884HOH     H1 5857   0.883  -0.040   2.134
 1884HOH     H2 5858   0.886   0.096   2.201
 1885HOH      O 5859   2.983   1.346   0.354
 1885HOH     H1 5860   2.925   1.319   0.282
 1885HOH     H2 5861   3.063   1.295   0.341
 1886HOH      O 5862   2.401   2.842   0.402
 1886HOH     H1 5863   2.374   2.927   0.366
 1886HOH     H2 5864   2.495   2.839   0.387
 1887HOH      O 5865   2.944   0.397   0.637
 1887HOH     H1 5866   2.866   0.348   0.610
 1887HOH     H2 5867   3.005   0.330   0.667
 1888HOH      O 5868   3.519   1.760   3.775
 1888HOH     H1 5869   3.592   1.718   3.730
 1888HOH     H2 5870   3.441   1.717   3.740
 1889HOH      O 5871   3.365   2.287   3.761
 1889HOH     H1 5872   3.409   2.251   3.684
 1889HOH     H2 5873   3.374   2.219   3.828
 1890HOH      O 5874   3.027   0.230   1.163
 1890HOH     H1 5875   2.988   0.275   1.089
 1890HOH     H2 5876   3.016   0.137   1.143
 1891HOH      O 5877   2.980   4.002   1.105
 1891HOH     H1 5878   3.008   3.914   1.132
 1891HOH     H2 5879   2.918   3.987   1.034
 1892HOH      O 5880   3.750   0.854   0.565
 1892HOH     H1 5881   3.674   0.807   0.598
 1892HOH     H2 5882   3.729   0.946   0.579
 1893HOH      O 5883   0.794   0.715   0.369
 1893HOH     H1 5884   0.760   0.671   0.291
 1893HOH     H2 5885   0.729   0.784   0.386
 1894HOH      O 5886   2.470   0.119   1.994
 1894HOH     H1 5887   2.551   0.170   1.991
 1894HOH     H2 5888   2.441   0.125   2.085
 1895HOH      O 5889   0.274   3.527   2.566
 1895HOH     H1 5890   0.205   3.520   2.501
 1895HOH     H2 5891   0.232   3.501   2.648
 1896HOH      O 5892   2.679   2.283   1.615
 1896HOH     H1 5893   2.697   2.192   1.640
 1896HOH     H2 5894   2.757   2.331   1.642
 1897HOH      O 5895   2.547   0.821   0.891
 1897HOH     H1 5896   2.603   0.793   0.819
 1897HOH     H2 5897   2.459   0.825   0.852
 1898HOH      O 5898   3.967   2.109   0.235
 1898HOH     H1 5899   4.011   2.032   0.200
 1898HOH     H2 5900   3.943   2.085   0.325
 1899HOH      O 5901   0.573   3.767   0.877
 1899HOH     H1 5902   0.651   3.815   0.905
 1899HOH     H2 5903   0.589   3.746   0.785
 1900HOH      O 5904   2.841   2.308   0.470
 1900HOH     H1 5905   2.794   2.349   0.543
 1900HOH     H2 5906   2.915   2.366   0.454
 1901HOH      O 5907   3.979   1.059   0.500
 1901HOH     H1 5908   3.885   1.065   0.481
 1901HOH     H2 5909   3.992   1.117   0.575
 1902HOH      O 5910   1.994   1.348   0.075
 1902HOH     H1 5911   2.018   1.385  -0.009
 1902HOH     H2 5912   1.901   1.367   0.084
 1903HOH      O 5913   3.807   1.032   2.746
 1903HOH     H1 5914   3.745   1.101   2.723
 1903HOH     H2 5915   3.847   1.007   2.663
 1904HOH      O 5916   1.431   1.616   2.879
 1904HOH     H1 5917   1.465   1.592   2.793
 1904HOH     H2 5918   1.508   1.644   2.929
 1905HOH      O 5919   0.828   3.670   1.030
 1905HOH     H1 5920   0.885   3.639   0.959
 1905HOH     H2 5921   0.883   3.729   1.081
 1906HOH      O 5922   3.584   0.487   0.414
 1906HOH     H1 5923   3.591   0.581   0.399
 1906HOH     H2 5924   3.653   0.467   0.477
 1907HOH      O 5925   0.358   2.684   1.252
 1907HOH     H1 5926   0.337   2.595   1.223
 1907HOH     H2 5927   0.369   2.677   1.347
 1908HOH      O 5928   1.942   0.651   3.769
 1908HOH     H1 5929   2.036   0.648   3.781
 1908HOH     H2 5930   1.930   0.646   3.674
 1909HOH      O 5931   1.722   1.929   1.184
 1909HOH     H1 5932   1.680   1.986   1.119
 1909HOH     H2 5933   1.803   1.901   1.142
 1910HOH      O 5934   0.680   0.326   2.271
 1910HOH     H1 5935   0.746   0.377   2.316
 1910HOH     H2 5936   0.687   0.353   2.179
 1911HOH      O 5937   0.295   3.472   3.228
 1911HOH     H1 5938   0.321   3.382   3.204
 1911HOH     H2 5939   0.346   3.491   3.306
 1912HOH      O 5940   2.033   4.041   2.635
 1912HOH     H1 5941   2.108   4.001   2.678
 1912HOH     H2 5942   2.019   3.988   2.557
 1913HOH      O 5943   2.559   1.077   0.194
 1913HOH     H1 5944   2.493   1.140   0.220
 1913HOH     H2 5945   2.510   1.005   0.154
 1914HOH      O 5946   2.540   0.884   2.461
 1914HOH     H1 5947   2.479   0.941   2.414
 1914HOH     H2 5948   2.485   0.817   2.501
 1915HOH      O 5949   0.691   3.764   0.592
 1915HOH     H1 5950   0.702   3.681   0.545
 1915HOH     H2 5951   0.650   3.823   0.529
 1916HOH      O 5952   3.132   0.930   0.485
 1916HOH     H1 5953   3.169   0.930   0.397
 1916HOH     H2 5954   3.200   0.890   0.539
 1917HOH      O 5955   3.221   3.623   3.181
 1917HOH     H1 5956   3.128   3.643   3.191
 1917HOH     H2 5957   3.230   3.598   3.089
 1918HOH      O 5958   0.611   1.374   1.797
 1918HOH     H1 5959   0.610   1.280   1.781
 1918HOH     H2 5960   0.554   1.386   1.873
 1919HOH      O 5961   0.663   1.495   1.190
 1919HOH     H1 5962   0.584   1.524   1.145
 1919HOH     H2 5963   0.733   1.548   1.152
 1920HOH      O 5964   3.034   1.473   1.033
 1920HOH     H1 5965   2.946   1.467   0.995
 1920HOH     H2 5966   3.057   1.565   1.026
 1921HOH      O 5967   2.032   1.403   0.357
 1921HOH     H1 5968   2.014   1.353   0.277
 1921HOH     H2 5969   1.957   1.463   0.364
 1922HOH      O 5970   2.632   3.878   0.571
 1922HOH     H1 5971   2.556   3.890   0.628
 1922HOH     H2 5972   2.595   3.870   0.483
 1923HOH      O 5973   0.987   3.330   3.263
 1923HOH     H1 5974   0.966   3.238   3.277
 1923HOH     H2 5975   1.059   3.329   3.200
 1924HOH      O 5976   1.911   1.671   0.824
 1924HOH     H1 5977   1.974   1.605   0.795
 1924HOH     H2 5978   1.851   1.680   0.749
 1925HOH      O 5979   2.275   3.547   0.874
 1925HOH     H1 5980   2.228   3.466   0.893
 1925HOH     H2 5981   2.365   3.520   0.856
 1926HOH      O 5982   2.482   1.651   0.098
 1926HOH     H1 5983   2.493   1.712   0.171
 1926HOH     H2 5984   2.408   1.686   0.048
 1927HOH      O 5985   3.372   0.244   2.733
 1927HOH     H1 5986   3.410   0.322   2.774
 1927HOH     H2 5987   3.434   0.174   2.751
 1928HOH      O 5988   2.432   0.812   0.118
 1928HOH     H1 5989   2.345   0.847   0.097
 1928HOH     H2 5990   2.469   0.788   0.034
 1929HOH      O 5991   1.945   1.858   1.039
 1929HOH     H1 5992   1.933   1.802   0.962
 1929HOH     H2 5993   1.999   1.807   1.098
 1930HOH      O 5994   0.472   3.876   2.809
 1930HOH     H1 5995   0.565   3.858   2.799
 1930HOH     H2 5996   0.430   3.790   2.804
 1931HOH      O 5997   3.719   3.560   2.039
 1931HOH     H1 5998   3.768   3.533   1.961
 1931HOH     H2 5999   3.731   3.655   2.043
 1932HOH      O 6000   1.691   3.948   2.061
 1932HOH     H1 6001   1.610   3.945   2.011
 1932HOH     H2 6002   1.749   3.887   2.015
 1933HOH      O 6003   3.281   3.970   0.702
 1933HOH     H1 6004   3.251   3.974   0.793
 1933HOH     H2 6005   3.377   3.967   0.709
 1934HOH      O 6006   2.821   2.963   3.266
 1934HOH     H1 6007   2.782   2.914   3.338
 1934HOH     H2 6008   2.869   2.897   3.216
 1935HOH      O 6009   3.079   1.638   2.072
 1935HOH     H1 6010   2.990   1.657   2.102
 1935HOH     H2 6011   3.084   1.543   2.071
 1936HOH      O 6012   2.806   3.347   0.924
 1936HOH     H1 6013   2.864   3.348   0.848
 1936HOH     H2 6014   2.864   3.363   0.999
 1937HOH      O 6015   1.771   0.246   0.334
 1937HOH     H1 6016   1.690   0.195   0.344
 1937HOH     H2 6017   1.841   0.180   0.336
 1938HOH      O 6018   1.143   3.041   2.628
 1938HOH     H1 6019   1.165   2.983   2.556
 1938HOH     H2 6020   1.216   3.103   2.632
 1939HOH      O 6021   2.367   1.192   1.022
 1939HOH     H1 6022   2.327   1.152   0.944
 1939HOH     H2 6023   2.340   1.284   1.018
 1940HOH      O 6024   3.302   0.491   0.918
 1940HOH     H1 6025   3.378   0.543   0.891
 1940HOH     H2 6026   3.234   0.512   0.854
 1941HOH      O 6027   3.694   1.664   3.591
 1941HOH     H1 6028   3.736   1.637   3.510
 1941HOH     H2 6029   3.670   1.755   3.576
 1942HOH      O 6030   2.187   3.429   0.427
 1942HOH     H1 6031   2.236   3.511   0.437
 1942HOH     H2 6032   2.123   3.431   0.498
 1943HOH      O 6033   1.767   2.769   2.335
 1943HOH     H1 6034   1.683   2.815   2.328
 1943HOH     H2 6035   1.785   2.764   2.428
 1944HOH      O 6036   1.794   3.490   2.397
 1944HOH     H1 6037   1.807   3.446   2.313
 1944HOH     H2 6038   1.869   3.549   2.404
 1945HOH      O 6039   1.548   4.016   1.448
 1945HOH     H1 6040   1.643   4.022   1.434
 1945HOH     H2 6041   1.536   4.044   1.539
 1946HOH      O 6042   1.034   3.949   2.843
 1946HOH     H1 6043   0.966   4.008   2.810
 1946HOH     H2 6044   1.012   3.937   2.936
 1947HOH      O 6045   3.182   3.038   1.486
 1947HOH     H1 6046   3.213   2.966   1.542
 1947HOH     H2 6047   3.248   3.044   1.417
 1948HOH      O 6048   0.963   1.807   3.963
 1948HOH     H1 6049   0.936   1.827   4.052
 1948HOH     H2 6050   0.995   1.890   3.928
 1949HOH      O 6051   2.526   0.935   3.614
 1949HOH     H1 6052   2.523   0.972   3.526
 1949HOH     H2 6053   2.614   0.900   3.622
 1950HOH      O 6054   0.018   0.037   2.276
 1950HOH     H1 6055   0.096   0.077   2.238
 1950HOH     H2 6056   0.005  -0.042   2.223
 1951HOH      O 6057   1.340   3.649   2.435
 1951HOH     H1 6058   1.420   3.602   2.461
 1951HOH     H2 6059   1.338   3.725   2.493
 1952HOH      O 6060   2.009   2.608   1.456
 1952HOH     H1 6061   1.940   2.570   1.511
 1952HOH     H2 6062   1.969   2.615   1.369
 1953HOH      O 6063   3.743   1.843   0.493
 1953HOH     H1 6064   3.762   1.820   0.402
 1953HOH     H2 6065   3.648   1.840   0.500
 1954HOH      O 6066   3.902   3.211   2.155
 1954HOH     H1 6067   3.993   3.242   2.156
 1954HOH     H2 6068   3.903   3.139   2.092
 1955HOH      O 6069   3.068   1.628   3.227
 1955HOH     H1 6070   3.050   1.594   3.314
 1955HOH     H2 6071   3.032   1.562   3.167
 1956HOH      O 6072   0.884   0.449   3.164
 1956HOH     H1 6073   0.855   0.358   3.164
 1956HOH     H2 6074   0.857   0.482   3.078
 1957HOH      O 6075   1.888   3.621   3.108
 1957HOH     H1 6076   1.846   3.673   3.176
 1957HOH     H2 6077   1.822   3.555   3.085
 1958HOH      O 6078   3.192   1.472   2.464
 1958HOH     H1 6079   3.166   1.431   2.381
 1958HOH     H2 6080   3.154   1.415   2.531
 1959HOH      O 6081   0.570   3.974   3.561
 1959HOH     H1 6082   0.649   3.969   3.507
 1959HOH     H2 6083   0.519   3.896   3.538
 1960HOH      O 6084   2.631   1.864   3.833
 1960HOH     H1 6085   2.584   1.920   3.895
 1960HOH     H2 6086   2.593   1.886   3.748
 1961HOH      O 6087   2.327   3.578   2.904
 1961HOH     H1 6088   2.381   3.509   2.942
 1961HOH     H2 6089   2.255   3.589   2.967
 1962HOH      O 6090  -0.035   3.762   0.808
 1962HOH     H1 6091   0.002   3.676   0.787
 1962HOH     H2 6092   0.040   3.821   0.808
 1963HOH      O 6093   0.988   0.287   2.093
 1963HOH     H1 6094   0.917   0.277   2.029
 1963HOH     H2 6095   0.994   0.382   2.107
 1964HOH      O 6096   1.693   3.352   1.542
 1964HOH     H1 6097   1.658   3.324   1.627
 1964HOH     H2 6098   1.739   3.275   1.508
 1965HOH      O 6099   3.491   4.061   0.029
 1965HOH     H1 6100   3.562   4.023  -0.023
 1965HOH     H2 6101   3.417   4.002   0.017
 1966HOH      O 6102   3.005   0.774   3.570
 1966HOH     H1 6103   3.056   0.693   3.567
 1966HOH     H2 6104   2.992   0.798   3.478
 1967HOH      O 6105   0.697   3.678   2.219
 1967HOH     H1 6106   0.665   3.589   2.204
 1967HOH     H2 6107   0.793   3.670   2.220
 1968HOH      O 6108   3.551   2.666   3.283
 1968HOH     H1 6109   3.488   2.722   3.329
 1968HOH     H2 6110   3.564   2.710   3.199
 1969HOH      O 6111   0.566   2.041   0.569
 1969HOH     H1 6112   0.483   2.050   0.616
 1969HOH     H2 6113   0.615   1.976   0.618
 1970HOH      O 6114   2.160   3.067   1.924
 1970HOH     H1 6115   2.250   3.096   1.906
 1970HOH     H2 6116   2.165   2.971   1.919
 1971HOH      O 6117   1.091   3.356   0.882
 1971HOH     H1 6118   1.141   3.310   0.950
 1971HOH     H2 6119   1.000   3.334   0.902
 1972HOH      O 6120   0.671   3.720   3.252
 1972HOH     H1 6121   0.684   3.791   3.189
 1972HOH     H2 6122   0.630   3.763   3.328
 1973HOH      O 6123   3.476   1.747   3.436
 1973HOH     H1 6124   3.451   1.672   3.489
 1973HOH     H2 6125   3.401   1.807   3.441
 1974HOH      O 6126   3.493   0.796   0.920
 1974HOH     H1 6127   3.471   0.877   0.874
 1974HOH     H2 6128   3.570   0.762   0.874
 1975HOH      O 6129   3.409   2.810   2.159
 1975HOH     H1 6130   3.343   2.871   2.193
 1975HOH     H2 6131   3.401   2.733   2.216
 1976HOH      O 6132   0.569   2.714   3.899
 1976HOH     H1 6133   0.600   2.787   3.953
 1976HOH     H2 6134   0.518   2.757   3.830
 1977HOH      O 6135   0.541   0.593   3.461
 1977HOH     H1 6136   0.510   0.505   3.439
 1977HOH     H2 6137   0.492   0.651   3.402
 1978HOH      O 6138   2.796   0.968   0.166
 1978HOH     H1 6139   2.820   0.894   0.223
 1978HOH     H2 6140   2.704   0.984   0.185
 1979HOH      O 6141   2.069   1.820   1.888
 1979HOH     H1 6142   2.000   1.887   1.881
 1979HOH     H2 6143   2.023   1.737   1.876
 1980HOH      O 6144   1.893   2.522   0.232
 1980HOH     H1 6145   1.893   2.557   0.321
 1980HOH     H2 6146   1.803   2.496   0.216
 1981HOH      O 6147   4.001   1.859   1.951
 1981HOH     H1 6148   4.037   1.929   2.005
 1981HOH     H2 6149   3.909   1.853   1.979
 1982HOH      O 6150   2.431   3.972   2.820
 1982HOH     H1 6151   2.470   3.886   2.832
 1982HOH     H2 6152   2.506   4.032   2.820
 1983HOH      O 6153   0.399   1.054   0.247
 1983HOH     H1 6154   0.404   1.130   0.188
 1983HOH     H2 6155   0.312   1.060   0.286
 1984HOH      O 6156   3.596   2.814   1.143
 1984HOH     H1 6157   3.580   2.720   1.131
 1984HOH     H2 6158   3.676   2.819   1.194
 1985HOH      O 6159   3.332   3.487   2.591
 1985HOH     H1 6160   3.407   3.544   2.573
 1985HOH     H2 6161   3.360   3.401   2.561
 1986HOH      O 6162   3.055   1.142   0.184
 1986HOH     H1 6163   3.118   1.081   0.222
 1986HOH     H2 6164   2.979   1.087   0.162
 1987HOH      O 6165   2.719   3.935   2.199
 1987HOH     H1 6166   2.650   3.902   2.143
 1987HOH     H2 6167   2.684   3.927   2.288
 1988HOH      O 6168   2.000   1.140   0.239
 1988HOH     H1 6169   2.015   1.196   0.163
 1988HOH     H2 6170   1.935   1.076   0.209
 1989HOH      O 6171   2.129   3.241   3.020
 1989HOH     H1 6172   2.066   3.227   3.092
 1989HOH     H2 6173   2.194   3.300   3.058
 1990HOH      O 6174   0.772   0.581   3.605
 1990HOH     H1 6175   0.797   0.648   3.541
 1990HOH     H2 6176   0.686   0.551   3.575
 1991HOH      O 6177   1.911   3.073   2.036
 1991HOH     H1 6178   1.990   3.067   1.983
 1991HOH     H2 6179   1.839   3.065   1.974
 1992HOH      O 6180   0.198   3.042   0.527
 1992HOH     H1 6181   0.199   2.989   0.607
 1992HOH     H2 6182   0.261   3.113   0.545
 1993HOH      O 6183   1.146   3.049   3.802
 1993HOH     H1 6184   1.174   3.012   3.719
 1993HOH     H2 6185   1.184   3.137   3.803
 1994HOH      O 6186   0.351   0.351   0.065
 1994HOH     H1 6187   0.294   0.424   0.089
 1994HOH     H2 6188   0.436   0.375   0.103
 1995HOH      O 6189   2.869   2.125   1.436
 1995HOH     H1 6190   2.892   2.190   1.369
 1995HOH     H2 6191   2.830   2.053   1.386
 1996HOH      O 6192   3.338   3.219   0.842
 1996HOH     H1 6193   3.312   3.170   0.920
 1996HOH     H2 6194   3.320   3.311   0.863
 1997HOH      O 6195   1.454   0.319   1.658
 1997HOH     H1 6196   1.462   0.224   1.665
 1997HOH     H2 6197   1.435   0.335   1.565
 1998HOH      O 6198   3.661   3.022   1.755
 1998HOH     H1 6199   3.748   2.994   1.783
 1998HOH     H2 6200   3.610   3.026   1.836
 1999HOH      O 6201   3.665   3.563   0.070
 1999HOH     H1 6202   3.668   3.581  -0.024
 1999HOH     H2 6203   3.623   3.478   0.077
 2000HOH      O 6204   1.710   3.025   1.852
 2000HOH     H1 6205   1.631   2.977   1.877
 2000HOH     H2 6206   1.755   2.967   1.791
 2001HOH      O 6207   1.781   1.175   1.496
 2001HOH     H1 6208   1.799   1.094   1.543
 2001HOH     H2 6209   1.718   1.149   1.428
 2002HOH      O 6210   0.723   1.749   3.588
 2002HOH     H1 6211   0.774   1.674   3.620
 2002HOH     H2 6212   0.687   1.720   3.505
 2003HOH      O 6213   1.700   0.702   0.096
 2003HOH     H1 6214   1.687   0.659   0.011
 2003HOH     H2 6215   1.795   0.695   0.111
 2004HOH      O 6216   3.229   0.787   2.519
 2004HOH     H1 6217   3.221   0.716   2.456
 2004HOH     H2 6218   3.318   0.777   2.555
 2005HOH      O 6219   1.381   1.734   2.359
 2005HOH     H1 6220   1.345   1.660   2.409
 2005HOH     H2 6221   1.381   1.704   2.268
 2006HOH      O 6222   1.834   3.405   0.300
 2006HOH     H1 6223   1.860   3.490   0.335
 2006HOH     H2 6224   1.877   3.341   0.357
 2007HOH      O 6225   2.898   0.956   3.950
 2007HOH     H1 6226   2.831   0.971   4.016
 2007HOH     H2 6227   2.850   0.935   3.870
 2008HOH      O 6228   0.416   0.466   0.806
 2008HOH     H1 6229   0.403   0.553   0.766
 2008HOH     H2 6230   0.338   0.417   0.782
 2009HOH      O 6231   3.880   0.755   0.341
 2009HOH     H1 6232   3.850   0.822   0.278
 2009HOH     H2 6233   3.847   0.786   0.425
 2010HOH      O 6234   3.788   1.159   3.414
 2010HOH     H1 6235   3.865   1.215   3.423
 2010HOH     H2 6236   3.743   1.192   3.336
 2011HOH      O 6237   0.969   3.828   1.594
 2011HOH     H1 6238   1.019   3.872   1.525
 2011HOH     H2 6239   0.987   3.735   1.582
 2012HOH      O 6240   4.032   3.521   2.890
 2012HOH     H1 6241   4.104   3.581   2.869
 2012HOH     H2 6242   3.967   3.538   2.822
 2013HOH      O 6243   0.315   3.064   0.095
 2013HOH     H1 6244   0.347   3.087   0.008
 2013HOH     H2 6245   0.327   3.143   0.147
 2014HOH      O 6246   2.355   1.398   0.688
 2014HOH     H1 6247   2.419   1.340   0.728
 2014HOH     H2 6248   2.407   1.464   0.643
 2015HOH      O 6249   3.820   3.625   3.500
 2015HOH     H1 6250   3.841   3.576   3.580
 2015HOH     H2 6251   3.779   3.560   3.442
 2016HOH      O 6252   3.771   3.137   0.797
 2016HOH     H1 6253   3.717   3.216   0.803
 2016HOH     H2 6254   3.716   3.069   0.836
 2017HOH      O 6255   1.242   1.917   2.136
 2017HOH     H1 6256   1.316   1.952   2.086
 2017HOH     H2 6257   1.262   1.941   2.227
 2018HOH      O 6258   3.989   0.984   1.398
 2018HOH     H1 6259   4.039   0.946   1.470
 2018HOH     H2 6260   3.970   1.073   1.427
 2019HOH      O 6261   0.226   2.350   2.314
 2019HOH     H1 6262   0.162   2.282   2.333
 2019HOH     H2 6263   0.269   2.367   2.398
 2020HOH      O 6264   1.510   2.920   3.969
 2020HOH     H1 6265   1.444   2.882   3.911
 2020HOH     H2 6266   1.517   2.859   4.042
 2021HOH      O 6267   1.900   0.042   0.725
 2021HOH     H1 6268   1.907   0.134   0.747
 2021HOH     H2 6269   1.967  -0.001   0.778
 2022HOH      O 6270   2.207   2.425   2.559
 2022HOH     H1 6271   2.217   2.343   2.607
 2022HOH     H2 6272   2.291   2.470   2.571
 2023HOH      O 6273   3.216   2.941   0.070
 2023HOH     H1 6274   3.197   2.975  -0.018
 2023HOH     H2 6275   3.130   2.939   0.113
 2024HOH      O 6276   1.303   2.949   1.944
 2024HOH     H1 6277   1.377   2.921   1.891
 2024HOH     H2 6278   1.238   2.880   1.932
 2025HOH      O 6279   0.220   2.040   0.499
 2025HOH     H1 6280   0.282   2.037   0.572
 2025HOH     H2 6281   0.139   2.004   0.536
 2026HOH      O 6282   3.791   2.379   0.349
 2026HOH     H1 6283   3.768   2.466   0.382
 2026HOH     H2 6284   3.728   2.320   0.390
 2027HOH      O 6285   2.184   0.354   1.430
 2027HOH     H1 6286   2.182   0.262   1.403
 2027HOH     H2 6287   2.176   0.403   1.349
 2028HOH      O 6288   3.082   2.634   2.085
 2028HOH     H1 6289   3.037   2.574   2.027
 2028HOH     H2 6290   3.122   2.579   2.152
 2029HOH      O 6291   3.356   1.312   1.067
 2029HOH     H1 6292   3.417   1.285   0.998
 2029HOH     H2 6293   3.412   1.330   1.143
 2030HOH      O 6294   2.366   3.726   3.725
 2030HOH     H1 6295   2.423   3.784   3.776
 2030HOH     H2 6296   2.292   3.708   3.783
 2031HOH      O 6297   3.573   2.783   3.034
 2031HOH     H1 6298   3.478   2.784   3.024
 2031HOH     H2 6299   3.606   2.819   2.952
 2032HOH      O 6300   2.072   2.024   3.159
 2032HOH     H1 6301   2.026   2.080   3.097
 2032HOH     H2 6302   2.055   1.935   3.128
 2033HOH      O 6303   3.027   0.907   3.307
 2033HOH     H1 6304   2.976   0.866   3.238
 2033HOH     H2 6305   3.118   0.902   3.277
 2034HOH      O 6306   4.005   1.658   4.039
 2034HOH     H1 6307   3.958   1.688   3.962
 2034HOH     H2 6308   3.962   1.576   4.064
 2035HOH      O 6309   1.405   0.973   0.109
 2035HOH     H1 6310   1.386   0.882   0.085
 2035HOH     H2 6311   1.324   1.020   0.090
 2036HOH      O 6312   0.392   3.563   2.320
 2036HOH     H1 6313   0.343   3.549   2.401
 2036HOH     H2 6314   0.454   3.633   2.342
 2037HOH      O 6315   0.214   3.870   0.739
 2037HOH     H1 6316   0.212   3.963   0.718
 2037HOH     H2 6317   0.268   3.864   0.818
 2038HOH      O 6318   3.962   3.253   2.631
 2038HOH     H1 6319   3.954   3.173   2.684
 2038HOH     H2 6320   3.939   3.324   2.692
 2039HOH      O 6321   2.892   3.900   0.493
 2039HOH     H1 6322   2.887   3.978   0.547
 2039HOH     H2 6323   2.812   3.852   0.513
 2040HOH      O 6324   0.622   4.007   0.133
 2040HOH     H1 6325   0.614   3.925   0.085
 2040HOH     H2 6326   0.542   4.055   0.114
 2041HOH      O 6327   2.998   0.816   2.295
 2041HOH     H1 6328   3.079   0.765   2.307
 2041HOH     H2 6329   2.978   0.807   2.202
 2042HOH      O 6330   2.026   1.834   2.448
 2042HOH     H1 6331   2.027   1.748   2.491
 2042HOH     H2 6332   1.967   1.822   2.374
 2043HOH      O 6333   0.171   3.393   0.980
 2043HOH     H1 6334   0.212   3.479   0.969
 2043HOH     H2 6335   0.220   3.352   1.051
 2044HOH      O 6336   3.534   3.332   0.075
 2044HOH     H1 6337   3.463   3.309   0.015
 2044HOH     H2 6338   3.517   3.280   0.154
 2045HOH      O 6339   1.257   2.217   3.173
 2045HOH     H1 6340   1.308   2.297   3.191
 2045HOH     H2 6341   1.197   2.243   3.103
 2046HOH      O 6342   1.478   0.453   3.699
 2046HOH     H1 6343   1.387   0.483   3.708
 2046HOH     H2 6344   1.505   0.482   3.612
 2047HOH      O 6345   0.301   3.798   2.478
 2047HOH     H1 6346   0.223   3.837   2.517
 2047HOH     H2 6347   0.309   3.713   2.520
 2048HOH      O 6348   1.218   2.528   0.885
 2048HOH     H1 6349   1.178   2.489   0.807
 2048HOH     H2 6350   1.150   2.584   0.922
 2049HOH      O 6351   0.094   2.614   3.061
 2049HOH     H1 6352   0.125   2.702   3.039
 2049HOH     H2 6353   0.056   2.582   2.979
 2050HOH      O 6354   2.727   0.511   3.486
 2050HOH     H1 6355   2.712   0.541   3.396
 2050HOH     H2 6356   2.769   0.426   3.477
 2051HOH      O 6357   0.971   3.662   2.218
 2051HOH     H1 6358   0.989   3.653   2.312
 2051HOH     H2 6359   1.045   3.712   2.184
 2052HOH      O 6360   3.267   3.183   3.878
 2052HOH     H1 6361   3.252   3.275   3.896
 2052HOH     H2 6362   3.347   3.181   3.827
 2053HOH      O 6363   2.405   0.998   2.076
 2053HOH     H1 6364   2.346   0.961   2.011
 2053HOH     H2 6365   2.431   1.082   2.039
 2054HOH      O 6366   1.915   2.230   2.666
 2054HOH     H1 6367   1.887   2.219   2.575
 2054HOH     H2 6368   1.834   2.227   2.717
 2055HOH      O 6369   3.864   3.348   0.423
 2055HOH     H1 6370   3.924   3.369   0.351
 2055HOH     H2 6371   3.778   3.344   0.383
 2056HOH      O 6372   3.784   3.129   0.052
 2056HOH     H1 6373   3.794   3.041   0.015
 2056HOH     H2 6374   3.708   3.121   0.110
 2057HOH      O 6375   0.947   0.991   0.752
 2057HOH     H1 6376   1.034   0.988   0.792
 2057HOH     H2 6377   0.898   1.053   0.805
 2058HOH      O 6378   1.283   3.606   1.317
 2058HOH     H1 6379   1.323   3.624   1.402
 2058HOH     H2 6380   1.340   3.651   1.254
 2059HOH      O 6381   1.429   1.741   3.609
 2059HOH     H1 6382   1.406   1.677   3.677
 2059HOH     H2 6383   1.355   1.740   3.549
 2060HOH      O 6384   2.659   3.148   1.730
 2060HOH     H1 6385   2.670   3.060   1.766
 2060HOH     H2 6386   2.696   3.206   1.797
 2061HOH      O 6387   2.952   3.751   2.885
 2061HOH     H1 6388   3.031   3.784   2.842
 2061HOH     H2 6389   2.910   3.696   2.819
 2062HOH      O 6390   2.401   2.882   2.304
 2062HOH     H1 6391   2.326   2.941   2.301
 2062HOH     H2 6392   2.408   2.857   2.396
 2063HOH      O 6393   0.662   0.753   3.238
 2063HOH     H1 6394   0.595   0.768   3.305
 2063HOH     H2 6395   0.613   0.744   3.156
 2064HOH      O 6396   3.473   1.219   3.593
 2064HOH     H1 6397   3.517   1.139   3.566
 2064HOH     H2 6398   3.538   1.266   3.645
 2065HOH      O 6399   0.663   0.525   0.528
 2065HOH     H1 6400   0.669   0.619   0.508
 2065HOH     H2 6401   0.677   0.482   0.443
 2066HOH      O 6402   2.790   2.228   3.174
 2066HOH     H1 6403   2.812   2.138   3.198
 2066HOH     H2 6404   2.824   2.238   3.085
 2067HOH      O 6405   2.439   0.061   2.282
 2067HOH     H1 6406   2.459   0.131   2.344
 2067HOH     H2 6407   2.494  -0.013   2.310
 2068HOH      O 6408   2.520   1.258   1.693
 2068HOH     H1 6409   2.577   1.325   1.729
 2068HOH     H2 6410   2.564   1.229   1.613
 2069HOH      O 6411   0.332   2.466   0.245
 2069HOH     H1 6412   0.292   2.379   0.237
 2069HOH     H2 6413   0.259   2.527   0.233
 2070HOH      O 6414   2.644   3.406   1.174
 2070HOH     H1 6415   2.709   3.341   1.148
 2070HOH     H2 6416   2.631   3.459   1.096
 2071HOH      O 6417   1.240   0.184   2.052
 2071HOH     H1 6418   1.166   0.243   2.061
 2071HOH     H2 6419   1.316   0.242   2.050
 2072HOH      O 6420   1.031   2.732   2.123
 2072HOH     H1 6421   0.981   2.651   2.115
 2072HOH     H2 6422   0.966   2.798   2.149
 2073HOH      O 6423   3.969   0.477   1.216
 2073HOH     H1 6424   3.982   0.570   1.200
 2073HOH     H2 6425   3.874   0.465   1.212
 2074HOH      O 6426   1.071   1.581   0.472
 2074HOH     H1 6427   1.040   1.641   0.404
 2074HOH     H2 6428   1.085   1.637   0.548
 2075HOH      O 6429   1.605   3.265   1.790
 2075HOH     H1 6430   1.512   3.252   1.778
 2075HOH     H2 6431   1.635   3.185   1.834
 2076HOH      O 6432   2.389   2.567   3.498
 2076HOH     H1 6433   2.426   2.528   3.577
 2076HOH     H2 6434   2.344   2.495   3.454
 2077HOH      O 6435   0.857   0.992   1.693
 2077HOH     H1 6436   0.861   0.935   1.616
 2077HOH     H2 6437   0.910   1.068   1.669
 2078HOH      O 6438   0.339   1.800   0.710
 2078HOH     H1 6439   0.247   1.828   0.708
 2078HOH     H2 6440   0.387   1.878   0.736
 2079HOH      O 6441   4.000   1.676   3.599
 2079HOH     H1 6442   3.973   1.585   3.586
 2079HOH     H2 6443   4.095   1.675   3.586
 2080HOH      O 6444   2.307   1.787   2.035
 2080HOH     H1 6445   2.228   1.802   1.983
 2080HOH     H2 6446   2.275   1.742   2.113
 2081HOH      O 6447   2.688   1.758   0.932
 2081HOH     H1 6448   2.625   1.753   1.004
 2081HOH     H2 6449   2.672   1.679   0.880
 2082HOH      O 6450   3.791   2.359   2.392
 2082HOH     H1 6451   3.786   2.337   2.485
 2082HOH     H2 6452   3.730   2.299   2.350
 2083HOH      O 6453   3.144   0.696   1.088
 2083HOH     H1 6454   3.132   0.715   0.995
 2083HOH     H2 6455   3.239   0.683   1.098
 2084HOH      O 6456   2.375   2.227   2.263
 2084HOH     H1 6457   2.335   2.145   2.291
 2084HOH     H2 6458   2.435   2.202   2.193
 2085HOH      O 6459   0.427   0.319   0.364
 2085HOH     H1 6460   0.505   0.353   0.320
 2085HOH     H2 6461   0.375   0.397   0.385
 2086HOH      O 6462   3.722   0.889   2.358
 2086HOH     H1 6463   3.638   0.932   2.377
 2086HOH     H2 6464   3.776   0.958   2.320
 2087HOH      O 6465   3.160   0.118   0.048
 2087HOH     H1 6466   3.188   0.034   0.085
 2087HOH     H2 6467   3.157   0.178   0.124
 2088HOH      O 6468   1.706   0.933   3.390
 2088HOH     H1 6469   1.703   0.869   3.320
 2088HOH     H2 6470   1.627   0.987   3.377
 2089HOH      O 6471   2.804   3.366   3.499
 2089HOH     H1 6472   2.756   3.318   3.432
 2089HOH     H2 6473   2.870   3.416   3.449
 2090HOH      O 6474   2.402   0.935   1.476
 2090HOH     H1 6475   2.340   0.975   1.416
 2090HOH     H2 6476   2.487   0.949   1.435
 2091HOH      O 6477   1.142   3.913   1.361
 2091HOH     H1 6478   1.227   3.880   1.331
 2091HOH     H2 6479   1.164   3.992   1.411
 2092HOH      O 6480   0.726   0.848   2.605
 2092HOH     H1 6481   0.747   0.863   2.697
 2092HOH     H2 6482   0.800   0.887   2.557
 2093HOH      O 6483   2.865   0.910   1.601
 2093HOH     H1 6484   2.815   0.970   1.545
 2093HOH     H2 6485   2.803   0.886   1.670
 2094HOH      O 6486   2.658   0.264   1.132
 2094HOH     H1 6487   2.646   0.355   1.104
 2094HOH     H2 6488   2.711   0.270   1.211
 2095HOH      O 6489   2.099   1.330   2.218
 2095HOH     H1 6490   2.117   1.316   2.125
 2095HOH     H2 6491   2.004   1.342   2.222
 2096HOH      O 6492   3.490   3.320   2.431
 2096HOH     H1 6493   3.574   3.365   2.443
 2096HOH     H2 6494   3.497   3.281   2.344
 2097HOH      O 6495   3.455   1.696   2.143
 2097HOH     H1 6496   3.533   1.713   2.197
 2097HOH     H2 6497   3.393   1.764   2.168
 2098HOH      O 6498   0.592   1.396   0.838
 2098HOH     H1 6499   0.565   1.463   0.901
 2098HOH     H2 6500   0.525   1.328   0.846
 2099HOH      O 6501   3.203   0.057   3.085
 2099HOH     H1 6502   3.176   0.088   2.999
 2099HOH     H2 6503   3.237   0.136   3.129
 2100HOH      O 6504   3.738   0.227   1.936
 2100HOH     H1 6505   3.751   0.217   2.030
 2100HOH     H2 6506   3.728   0.138   1.904
 2101HOH      O 6507   2.515   1.816   0.308
 2101HOH     H1 6508   2.562   1.893   0.278
 2101HOH     H2 6509   2.579   1.768   0.362
 2102HOH      O 6510   2.389   3.035   3.429
 2102HOH     H1 6511   2.384   3.082   3.513
 2102HOH     H2 6512   2.351   2.949   3.447
 2103HOH      O 6513   0.552   3.460   0.962
 2103HOH     H1 6514   0.576   3.551   0.981
 2103HOH     H2 6515   0.557   3.453   0.867
 2104HOH      O 6516   2.411   0.356   3.934
 2104HOH     H1 6517   2.323   0.346   3.897
 2104HOH     H2 6518   2.466   0.376   3.858
 2105HOH      O 6519   1.921   2.906   3.161
 2105HOH     H1 6520   1.917   3.000   3.181
 2105HOH     H2 6521   1.858   2.894   3.089
 2106HOH      O 6522   0.066   0.861   2.896
 2106HOH     H1 6523   0.147   0.827   2.859
 2106HOH     H2 6524   0.070   0.956   2.880
 2107HOH      O 6525   1.259   1.950   1.263
 2107HOH     H1 6526   1.179   1.983   1.304
 2107HOH     H2 6527   1.321   1.942   1.336
 2108HOH      O 6528   0.175   0.088   2.739
 2108HOH     H1 6529   0.126   0.098   2.658
 2108HOH     H2 6530   0.266   0.077   2.711
 2109HOH      O 6531   0.734   1.125   0.893
 2109HOH     H1 6532   0.735   1.134   0.988
 2109HOH     H2 6533   0.691   1.204   0.862
   4.04076   4.04076   4.04076   0.00000   0.00000   0.00000   0.00000   0.00000   0.00000
