Generated with MDTraj, t= 33887.0
 6533
    1MOL     C1    1   0.175   3.021   0.650
    1MOL     C2    2   0.298   3.017   0.591
    1MOL     C3    3   0.327   2.922   0.496
    1MOL     C4    4   0.232   2.834   0.453
    1MOL     C5    5   0.105   2.842   0.512
    1MOL     C6    6   0.083   2.930   0.613
    1MOL     C7    7   0.251   2.732   0.340
    1MOL     C8    8   0.158   2.762   0.217
    1MOL     N1    9   0.179   2.686   0.092
    1MOL     C9   10   0.295   2.722   0.008
    1MOL    C10   11   0.041   2.693   0.023
    1MOL    C11   12   0.190   2.544   0.121
    1MOL     H1   13   0.290   2.660  -0.082
    1MOL     H2   14   0.383   2.703   0.069
    1MOL     H3   15   0.285   2.828  -0.018
    1MOL     H4   16  -0.032   2.638   0.083
    1MOL     H5   17   0.051   2.646  -0.075
    1MOL     H6   18   0.006   2.796   0.012
    1MOL     H7   19   0.194   2.490   0.026
    1MOL     H8   20   0.110   2.504   0.183
    1MOL     H9   21   0.286   2.534   0.171
    1MOL    H10   22   0.159   3.096   0.727
    1MOL    H11   23   0.372   3.085   0.631
    1MOL    H12   24   0.428   2.925   0.454
    1MOL    H13   25   0.027   2.773   0.481
    1MOL    H14   26  -0.016   2.943   0.656
    1MOL    H15   27   0.357   2.727   0.314
    1MOL    H16   28   0.224   2.633   0.378
    1MOL    H17   29   0.055   2.739   0.246
    1MOL    H18   30   0.176   2.866   0.188
    2OCB     C1   31   3.673   3.907   0.914
    2OCB     C2   32   3.810   3.937   0.679
    2OCB     C3   33   3.612   3.965   0.801
    2OCB     C4   34   3.804   3.862   0.905
    2OCB     C5   35   3.868   3.876   0.785
    2OCB     C6   36   3.686   3.993   0.688
    2OCB     O1   37   3.875   3.936   0.558
    2OCB     C7   38   3.623   4.054   0.564
    2OCB     C8   39   3.845   3.835   0.456
    2OCB     O2   40   3.762   3.894   0.351
    2OCB     C9   41   3.621   3.889   0.365
    2OCB    C10   42   3.553   3.952   0.475
    2OCB    C11   43   3.418   3.919   0.500
    2OCB    C12   44   3.549   3.808   0.278
    2OCB    C13   45   3.348   3.830   0.412
    2OCB    C14   46   3.427   3.769   0.311
    2OCB     O3   47   3.382   3.659   0.237
    2OCB    C15   48   3.206   3.787   0.442
    2OCB    C16   49   3.205   3.662   0.533
    2OCB    C17   50   3.207   3.536   0.474
    2OCB    C18   51   3.377   3.528   0.301
    2OCB     O4   52   3.237   3.506   0.343
    2OCB     O5   53   3.859   3.784   1.004
    2OCB    C19   54   3.592   3.873   1.039
    2OCB    C20   55   3.529   3.735   1.025
    2OCB     O6   56   3.730   3.623   1.099
    2OCB    C21   57   3.596   3.621   1.059
    2OCB    C22   58   3.217   3.426   0.560
    2OCB    C23   59   3.218   3.439   0.697
    2OCB    C24   60   3.537   3.496   1.054
    2OCB    C25   61   3.412   3.484   0.996
    2OCB     O7   62   3.245   3.321   0.770
    2OCB     O8   63   3.365   3.353   0.972
    2OCB    C26   64   3.368   3.307   0.833
    2OCB    C27   65   3.398   3.722   0.982
    2OCB    C28   66   3.334   3.599   0.964
    2OCB    C29   67   3.195   3.676   0.669
    2OCB    C30   68   3.191   3.583   0.900
    2OCB    C31   69   3.201   3.565   0.754
    2OCB    C32   70   3.833   3.643   1.004
    2OCB    C33   71   3.106   3.897   0.486
    2OCB    C34   72   3.060   3.986   0.368
    2OCB    C35   73   3.019   4.124   0.419
    2OCB     O9   74   2.900   4.144   0.449
    2OCB    C36   75   3.533   4.180   0.596
    2OCB    C37   76   3.606   4.283   0.675
    2OCB    C38   77   3.524   4.416   0.691
    2OCB    O10   78   3.489   4.472   0.585
    2OCB    C39   79   3.492   3.988   1.092
    2OCB    C40   80   3.568   4.106   1.159
    2OCB    C41   81   3.467   4.194   1.231
    2OCB    O11   82   3.420   4.288   1.173
    2OCB    C42   83   3.099   3.695   0.942
    2OCB    C43   84   3.084   3.691   1.100
    2OCB    C44   85   2.941   3.723   1.144
    2OCB    O12   86   2.881   3.636   1.197
    2OCB    C45   87   3.977   3.769   0.403
    2OCB    C46   88   4.213   3.669   0.300
    2OCB    C47   89   3.972   3.691   0.296
    2OCB    C48   90   4.100   3.794   0.466
    2OCB    C49   91   4.222   3.737   0.418
    2OCB    C50   92   4.088   3.646   0.240
    2OCB    C51   93   3.952   3.563   1.020
    2OCB    C52   94   4.177   3.397   1.062
    2OCB    C53   95   3.941   3.432   1.076
    2OCB    C54   96   4.078   3.599   0.976
    2OCB    C55   97   4.192   3.520   0.998
    2OCB    C56   98   4.055   3.350   1.095
    2OCB    C57   99   3.420   3.166   0.821
    2OCB    C58  100   3.522   2.899   0.794
    2OCB    C59  101   3.389   3.087   0.708
    2OCB    C60  102   3.510   3.118   0.909
    2OCB    C61  103   3.567   2.988   0.894
    2OCB    C62  104   3.438   2.958   0.700
    2OCB    C63  105   3.426   3.427   0.206
    2OCB    C64  106   3.515   3.215   0.036
    2OCB    C65  107   3.378   3.294   0.223
    2OCB    C66  108   3.521   3.446   0.102
    2OCB    C67  109   3.574   3.343   0.019
    2OCB    C68  110   3.425   3.187   0.140
    2OCB    O13  111   4.316   3.553   0.951
    2OCB    O14  112   3.669   2.945   0.983
    2OCB    O15  113   3.399   2.877   0.597
    2OCB    O16  114   4.340   3.725   0.492
    2OCB    O17  115   4.079   3.564   0.126
    2OCB    O18  116   3.370   3.057   0.149
    2OCB    O19  117   3.675   3.373  -0.067
    2OCB    C69  118   3.730   3.019   1.077
    2OCB    C70  119   3.863   3.144   1.297
    2OCB    C71  120   3.848   3.092   1.060
    2OCB    C72  121   3.679   3.009   1.204
    2OCB    C73  122   3.741   3.072   1.316
    2OCB    C74  123   3.917   3.153   1.169
    2OCB    O20  124   4.038   3.227   1.154
    2OCB    C75  125   4.336   3.744   0.633
    2OCB    C76  126   4.342   3.798   0.911
    2OCB    C77  127   4.346   3.875   0.683
    2OCB    C78  128   4.323   3.640   0.726
    2OCB    C79  129   4.332   3.665   0.866
    2OCB    C80  130   4.349   3.903   0.819
    2OCB    C81  131   3.327   2.916   0.486
    2OCB    C82  132   3.171   3.010   0.275
    2OCB    C83  133   3.186   2.914   0.493
    2OCB    C84  134   3.394   2.964   0.368
    2OCB    C85  135   3.312   3.013   0.265
    2OCB    C86  136   3.110   2.969   0.390
    2OCB    C87  137   2.961   2.992   0.412
    2OCB    O21  138   2.904   2.944   0.512
    2OCB    C88  139   3.844   3.808  -0.218
    2OCB    O22  140   3.925   3.894  -0.204
    2OCB    C89  141   4.370   4.045   0.876
    2OCB    O23  142   4.394   4.047   1.002
    2OCB    O24  143   3.107   4.206   0.421
    2OCB    O25  144   2.882   3.816   1.096
    2OCB    O26  145   3.454   4.188   1.352
    2OCB    C90  146   3.669   3.057   1.447
    2OCB    O27  147   3.685   3.149   1.526
    2OCB    O28  148   3.752   3.818  -0.295
    2OCB    O29  149   2.892   3.049   0.327
    2OCB    O30  150   3.593   2.965   1.480
    2OCB    O31  151   4.369   4.149   0.813
    2OCB    O32  152   3.476   4.441   0.799
    2OCB    C91  153   3.971   3.566   0.043
    2OCB    C92  154   3.754   3.587  -0.132
    2OCB    C93  155   3.875   3.468   0.038
    2OCB    C94  156   3.953   3.679  -0.039
    2OCB    C95  157   3.847   3.692  -0.128
    2OCB    C96  158   3.770   3.472  -0.055
    2OCB    C97  159   3.900   3.340   0.129
    2OCB    C98  160   4.317   3.492   0.679
    2OCB    C99  161   3.910   3.099   0.922
    2OCB      C  162   3.542   2.970   0.367
    2OCB     H1  163   3.508   3.997   0.800
    2OCB     H2  164   3.967   3.835   0.770
    2OCB     H3  165   3.702   4.105   0.509
    2OCB     H4  166   3.788   3.752   0.500
    2OCB     H5  167   3.363   3.972   0.577
    2OCB     H6  168   3.612   3.754   0.208
    2OCB     H7  169   3.160   3.753   0.349
    2OCB     H8  170   3.438   3.540   0.392
    2OCB     H9  171   3.654   3.863   1.128
    2OCB    H10  172   3.233   3.324   0.524
    2OCB    H11  173   3.600   3.409   1.072
    2OCB    H12  174   3.434   3.374   0.777
    2OCB    H13  175   3.350   3.815   0.952
    2OCB    H14  176   3.182   3.776   0.711
    2OCB    H15  177   3.145   3.492   0.938
    2OCB    H16  178   3.790   3.608   0.910
    2OCB    H17  179   3.014   3.855   0.527
    2OCB    H18  180   3.154   3.959   0.562
    2OCB    H19  181   3.141   4.005   0.297
    2OCB    H20  182   2.984   3.935   0.308
    2OCB    H21  183   3.441   4.155   0.650
    2OCB    H22  184   3.492   4.224   0.505
    2OCB    H23  185   3.623   4.246   0.776
    2OCB    H24  186   3.701   4.312   0.629
    2OCB    H25  187   3.423   4.023   1.014
    2OCB    H26  188   3.419   3.939   1.155
    2OCB    H27  189   3.636   4.063   1.233
    2OCB    H28  190   3.625   4.168   1.089
    2OCB    H29  191   3.134   3.793   0.909
    2OCB    H30  192   3.001   3.676   0.897
    2OCB    H31  193   3.115   3.595   1.141
    2OCB    H32  194   3.152   3.761   1.149
    2OCB    H33  195   4.304   3.636   0.250
    2OCB    H34  196   3.878   3.680   0.243
    2OCB    H35  197   4.102   3.851   0.559
    2OCB    H36  198   4.264   3.335   1.077
    2OCB    H37  199   3.844   3.401   1.112
    2OCB    H38  200   4.090   3.689   0.916
    2OCB    H39  201   3.546   2.793   0.786
    2OCB    H40  202   3.314   3.120   0.637
    2OCB    H41  203   3.559   3.180   0.983
    2OCB    H42  204   3.538   3.131  -0.029
    2OCB    H43  205   3.299   3.268   0.294
    2OCB    H44  206   3.561   3.546   0.085
    2OCB    H45  207   3.922   3.183   1.380
    2OCB    H46  208   3.585   2.957   1.220
    2OCB    H47  209   4.350   3.815   1.018
    2OCB    H48  210   4.365   3.950   0.607
    2OCB    H49  211   3.114   3.049   0.191
    2OCB    H50  212   3.137   2.878   0.582
    2OCB    H51  213   3.662   3.595  -0.191
    2OCB    H52  214   4.032   3.754  -0.035
    2OCB    H53  215   3.854   3.250   0.086
    2OCB    H54  216   4.008   3.320   0.132
    2OCB    H55  217   3.865   3.356   0.230
    2OCB    H56  218   4.213   3.474   0.653
    2OCB    H57  219   4.379   3.483   0.589
    2OCB    H58  220   4.352   3.420   0.753
    2OCB    H59  221   3.849   3.046   0.848
    2OCB    H60  222   3.925   3.203   0.893
    2OCB    H61  223   4.011   3.058   0.916
    2OCB    H62  224   3.571   2.923   0.272
    2OCB    H63  225   3.586   3.067   0.392
    2OCB    H64  226   3.578   2.907   0.449
    3Na+    Na+  227   1.638   0.953   0.147
    4Na+    Na+  228   0.299   0.487   1.584
    5Na+    Na+  229   0.631   3.183   2.518
    6Na+    Na+  230   3.290   0.471   0.679
    7Na+    Na+  231   3.279   0.308   1.327
    8Na+    Na+  232   1.944   1.805   0.037
    9Na+    Na+  233   0.757   0.842   2.346
   10HOH      O  234   0.041   3.947   3.134
   10HOH     H1  235   0.089   3.872   3.169
   10HOH     H2  236  -0.020   3.971   3.204
   11HOH      O  237   3.466   0.429   2.749
   11HOH     H1  238   3.476   0.333   2.748
   11HOH     H2  239   3.520   0.458   2.822
   12HOH      O  240   3.634   1.112   0.528
   12HOH     H1  241   3.696   1.040   0.520
   12HOH     H2  242   3.548   1.071   0.514
   13HOH      O  243   2.682   0.188   1.010
   13HOH     H1  244   2.664   0.117   1.072
   13HOH     H2  245   2.759   0.233   1.046
   14HOH      O  246   1.388   3.236   3.931
   14HOH     H1  247   1.374   3.329   3.915
   14HOH     H2  248   1.471   3.216   3.887
   15HOH      O  249   1.825   2.347   3.248
   15HOH     H1  250   1.879   2.268   3.235
   15HOH     H2  251   1.849   2.403   3.174
   16HOH      O  252   0.111   2.939   1.752
   16HOH     H1  253   0.018   2.964   1.752
   16HOH     H2  254   0.113   2.857   1.703
   17HOH      O  255   1.363   0.924   2.688
   17HOH     H1  256   1.445   0.883   2.716
   17HOH     H2  257   1.297   0.856   2.697
   18HOH      O  258   2.543   2.301   0.501
   18HOH     H1  259   2.448   2.303   0.515
   18HOH     H2  260   2.579   2.352   0.574
   19HOH      O  261   2.425   3.600   2.882
   19HOH     H1  262   2.357   3.666   2.896
   19HOH     H2  263   2.434   3.593   2.787
   20HOH      O  264   1.453   0.903   0.272
   20HOH     H1  265   1.399   0.956   0.330
   20HOH     H2  266   1.433   0.812   0.298
   21HOH      O  267   4.027   0.783   2.324
   21HOH     H1  268   4.045   0.725   2.250
   21HOH     H2  269   3.964   0.734   2.378
   22HOH      O  270   0.013   1.070   2.823
   22HOH     H1  271  -0.023   1.151   2.859
   22HOH     H2  272   0.068   1.098   2.750
   23HOH      O  273   0.823   1.351   1.676
   23HOH     H1  274   0.782   1.353   1.763
   23HOH     H2  275   0.850   1.260   1.664
   24HOH      O  276   2.221   2.263   2.026
   24HOH     H1  277   2.176   2.259   1.942
   24HOH     H2  278   2.305   2.220   2.011
   25HOH      O  279   1.811   3.349   1.322
   25HOH     H1  280   1.832   3.391   1.239
   25HOH     H2  281   1.733   3.296   1.303
   26HOH      O  282   1.218   1.126   2.768
   26HOH     H1  283   1.158   1.085   2.830
   26HOH     H2  284   1.263   1.052   2.726
   27HOH      O  285   0.327   2.691   2.086
   27HOH     H1  286   0.369   2.627   2.142
   27HOH     H2  287   0.238   2.697   2.120
   28HOH      O  288   1.712   2.083   3.474
   28HOH     H1  289   1.638   2.114   3.422
   28HOH     H2  290   1.787   2.088   3.413
   29HOH      O  291   2.502   3.067   0.737
   29HOH     H1  292   2.461   2.991   0.697
   29HOH     H2  293   2.551   3.108   0.665
   30HOH      O  294   1.745   0.045   3.266
   30HOH     H1  295   1.802   0.002   3.329
   30HOH     H2  296   1.789   0.127   3.245
   31HOH      O  297   3.984   3.391   3.536
   31HOH     H1  298   4.006   3.315   3.481
   31HOH     H2  299   3.944   3.354   3.614
   32HOH      O  300   1.406   2.172   1.911
   32HOH     H1  301   1.441   2.253   1.949
   32HOH     H2  302   1.324   2.158   1.957
   33HOH      O  303   3.097   0.158   2.917
   33HOH     H1  304   3.159   0.130   2.985
   33HOH     H2  305   3.088   0.081   2.860
   34HOH      O  306   0.590   3.074   1.358
   34HOH     H1  307   0.497   3.054   1.358
   34HOH     H2  308   0.609   3.099   1.448
   35HOH      O  309   3.828   0.531   1.936
   35HOH     H1  310   3.893   0.462   1.950
   35HOH     H2  311   3.777   0.502   1.861
   36HOH      O  312   1.756   3.427   2.609
   36HOH     H1  313   1.851   3.435   2.601
   36HOH     H2  314   1.743   3.388   2.696
   37HOH      O  315   1.902   1.614   2.055
   37HOH     H1  316   1.852   1.606   1.974
   37HOH     H2  317   1.850   1.674   2.110
   38HOH      O  318   0.966   3.424   3.379
   38HOH     H1  319   0.966   3.359   3.449
   38HOH     H2  320   1.024   3.386   3.312
   39HOH      O  321   3.822   1.808   1.791
   39HOH     H1  322   3.824   1.803   1.886
   39HOH     H2  323   3.743   1.857   1.770
   40HOH      O  324   2.109   2.216   2.990
   40HOH     H1  325   2.135   2.303   2.959
   40HOH     H2  326   2.046   2.185   2.924
   41HOH      O  327   0.750   0.065   1.472
   41HOH     H1  328   0.726   0.124   1.400
   41HOH     H2  329   0.700  -0.015   1.456
   42HOH      O  330   1.574   1.749   0.623
   42HOH     H1  331   1.527   1.693   0.561
   42HOH     H2  332   1.510   1.767   0.692
   43HOH      O  333   3.033   0.667   1.916
   43HOH     H1  334   2.967   0.630   1.857
   43HOH     H2  335   3.007   0.759   1.925
   44HOH      O  336   0.413   4.005   3.443
   44HOH     H1  337   0.391   4.033   3.532
   44HOH     H2  338   0.492   4.055   3.422
   45HOH      O  339   2.772   1.518   2.105
   45HOH     H1  340   2.809   1.461   2.173
   45HOH     H2  341   2.729   1.588   2.154
   46HOH      O  342   3.259   0.865   1.524
   46HOH     H1  343   3.331   0.801   1.525
   46HOH     H2  344   3.303   0.949   1.515
   47HOH      O  345   1.702   2.963   1.195
   47HOH     H1  346   1.720   3.017   1.272
   47HOH     H2  347   1.624   2.913   1.219
   48HOH      O  348   2.856   3.978   0.884
   48HOH     H1  349   2.885   3.920   0.955
   48HOH     H2  350   2.820   4.054   0.929
   49HOH      O  351   2.578   2.141   0.819
   49HOH     H1  352   2.653   2.158   0.762
   49HOH     H2  353   2.586   2.207   0.888
   50HOH      O  354   0.135   2.364   1.639
   50HOH     H1  355   0.082   2.372   1.560
   50HOH     H2  356   0.084   2.309   1.698
   51HOH      O  357   3.501   3.926   3.729
   51HOH     H1  358   3.591   3.894   3.737
   51HOH     H2  359   3.450   3.868   3.786
   52HOH      O  360   3.699   1.164   2.744
   52HOH     H1  361   3.738   1.249   2.723
   52HOH     H2  362   3.633   1.151   2.677
   53HOH      O  363   3.132   0.926   1.776
   53HOH     H1  364   3.067   0.943   1.707
   53HOH     H2  365   3.175   0.846   1.749
   54HOH      O  366   0.931   0.904   2.675
   54HOH     H1  367   0.905   0.955   2.599
   54HOH     H2  368   0.875   0.936   2.746
   55HOH      O  369   3.864   2.615   3.114
   55HOH     H1  370   3.771   2.592   3.112
   55HOH     H2  371   3.893   2.606   3.023
   56HOH      O  372   2.216   1.148   3.873
   56HOH     H1  373   2.275   1.161   3.799
   56HOH     H2  374   2.222   1.230   3.922
   57HOH      O  375   2.075   2.009   0.022
   57HOH     H1  376   2.062   2.097  -0.014
   57HOH     H2  377   2.153   2.016   0.077
   58HOH      O  378   3.872   0.715   0.280
   58HOH     H1  379   3.813   0.646   0.308
   58HOH     H2  380   3.939   0.671   0.227
   59HOH      O  381   1.134   0.143   2.054
   59HOH     H1  382   1.217   0.133   2.101
   59HOH     H2  383   1.067   0.131   2.121
   60HOH      O  384   0.578   1.824   2.676
   60HOH     H1  385   0.618   1.739   2.692
   60HOH     H2  386   0.485   1.806   2.668
   61HOH      O  387   1.076   1.467   3.848
   61HOH     H1  388   1.020   1.441   3.775
   61HOH     H2  389   1.126   1.542   3.815
   62HOH      O  390   2.611   3.738   0.545
   62HOH     H1  391   2.667   3.813   0.567
   62HOH     H2  392   2.578   3.707   0.629
   63HOH      O  393   2.897   4.068   2.214
   63HOH     H1  394   2.893   3.985   2.167
   63HOH     H2  395   2.905   4.043   2.306
   64HOH      O  396   0.365   0.382   2.811
   64HOH     H1  397   0.352   0.476   2.796
   64HOH     H2  398   0.382   0.346   2.724
   65HOH      O  399   3.582   1.963   1.720
   65HOH     H1  400   3.561   1.891   1.661
   65HOH     H2  401   3.497   1.995   1.750
   66HOH      O  402   2.277   3.673   1.521
   66HOH     H1  403   2.258   3.652   1.430
   66HOH     H2  404   2.254   3.594   1.570
   67HOH      O  405   1.512   1.648   2.224
   67HOH     H1  406   1.607   1.658   2.221
   67HOH     H2  407   1.480   1.687   2.143
   68HOH      O  408   3.262   2.842   2.574
   68HOH     H1  409   3.295   2.769   2.627
   68HOH     H2  410   3.226   2.903   2.638
   69HOH      O  411   1.755   0.859   0.337
   69HOH     H1  412   1.814   0.929   0.364
   69HOH     H2  413   1.763   0.793   0.406
   70HOH      O  414   3.475   3.698   2.989
   70HOH     H1  415   3.544   3.700   2.924
   70HOH     H2  416   3.501   3.629   3.050
   71HOH      O  417   3.258   1.999   0.187
   71HOH     H1  418   3.347   1.972   0.164
   71HOH     H2  419   3.251   1.977   0.280
   72HOH      O  420   3.013   3.439   3.476
   72HOH     H1  421   3.070   3.516   3.477
   72HOH     H2  422   2.996   3.422   3.384
   73HOH      O  423   2.517   2.759   2.294
   73HOH     H1  424   2.600   2.718   2.319
   73HOH     H2  425   2.522   2.767   2.199
   74HOH      O  426   3.186   0.470   1.164
   74HOH     H1  427   3.256   0.498   1.104
   74HOH     H2  428   3.183   0.538   1.231
   75HOH      O  429   0.792   0.685   2.169
   75HOH     H1  430   0.878   0.677   2.129
   75HOH     H2  431   0.731   0.662   2.099
   76HOH      O  432   2.550   2.051   3.022
   76HOH     H1  433   2.496   1.986   3.068
   76HOH     H2  434   2.634   2.008   3.010
   77HOH      O  435   0.262   3.073   0.145
   77HOH     H1  436   0.320   3.110   0.079
   77HOH     H2  437   0.310   3.082   0.228
   78HOH      O  438   0.323   2.359   1.891
   78HOH     H1  439   0.266   2.345   1.816
   78HOH     H2  440   0.381   2.283   1.891
   79HOH      O  441   2.700   2.601   2.103
   79HOH     H1  442   2.742   2.547   2.035
   79HOH     H2  443   2.660   2.537   2.162
   80HOH      O  444   0.792   0.638   4.049
   80HOH     H1  445   0.785   0.727   4.013
   80HOH     H2  446   0.718   0.591   4.011
   81HOH      O  447   1.214   3.014   3.895
   81HOH     H1  448   1.279   2.952   3.862
   81HOH     H2  449   1.257   3.099   3.889
   82HOH      O  450   3.415   2.241   2.391
   82HOH     H1  451   3.417   2.309   2.457
   82HOH     H2  452   3.493   2.189   2.408
   83HOH      O  453   0.478   0.861   3.554
   83HOH     H1  454   0.394   0.891   3.587
   83HOH     H2  455   0.499   0.785   3.608
   84HOH      O  456   3.004   3.787   1.536
   84HOH     H1  457   2.930   3.731   1.516
   84HOH     H2  458   2.969   3.876   1.530
   85HOH      O  459   2.772   3.416   1.065
   85HOH     H1  460   2.828   3.482   1.106
   85HOH     H2  461   2.739   3.459   0.986
   86HOH      O  462   0.980   1.600   0.789
   86HOH     H1  463   0.966   1.692   0.813
   86HOH     H2  464   1.072   1.584   0.809
   87HOH      O  465   3.260   2.313   1.466
   87HOH     H1  466   3.226   2.302   1.555
   87HOH     H2  467   3.242   2.405   1.445
   88HOH      O  468   3.368   0.991   1.903
   88HOH     H1  469   3.442   1.029   1.855
   88HOH     H2  470   3.315   0.951   1.835
   89HOH      O  471   2.964   0.384   0.362
   89HOH     H1  472   3.018   0.308   0.383
   89HOH     H2  473   2.874   0.354   0.377
   90HOH      O  474   0.638   3.584   3.820
   90HOH     H1  475   0.612   3.613   3.732
   90HOH     H2  476   0.558   3.546   3.857
   91HOH      O  477   3.215   0.019   0.031
   91HOH     H1  478   3.121   0.006   0.022
   91HOH     H2  479   3.224   0.110   0.061
   92HOH      O  480   3.154   1.621   2.950
   92HOH     H1  481   3.184   1.583   2.867
   92HOH     H2  482   3.109   1.549   2.994
   93HOH      O  483   2.126   3.424   0.866
   93HOH     H1  484   2.078   3.507   0.858
   93HOH     H2  485   2.152   3.420   0.958
   94HOH      O  486   2.877   3.151   3.210
   94HOH     H1  487   2.804   3.102   3.172
   94HOH     H2  488   2.941   3.084   3.234
   95HOH      O  489   2.544   0.916   3.361
   95HOH     H1  490   2.639   0.930   3.355
   95HOH     H2  491   2.525   0.924   3.455
   96HOH      O  492   1.537   1.973   3.167
   96HOH     H1  493   1.447   1.965   3.199
   96HOH     H2  494   1.565   2.059   3.196
   97HOH      O  495   1.382   3.875   3.829
   97HOH     H1  496   1.462   3.831   3.802
   97HOH     H2  497   1.411   3.952   3.879
   98HOH      O  498   1.085   2.591   1.072
   98HOH     H1  499   1.023   2.611   1.142
   98HOH     H2  500   1.051   2.510   1.033
   99HOH      O  501   1.046   2.828   2.736
   99HOH     H1  502   1.029   2.824   2.830
   99HOH     H2  503   1.109   2.757   2.720
  100HOH      O  504   2.221   3.117   2.976
  100HOH     H1  505   2.303   3.075   2.949
  100HOH     H2  506   2.228   3.124   3.071
  101HOH      O  507   2.108   1.948   0.332
  101HOH     H1  508   2.171   1.999   0.281
  101HOH     H2  509   2.108   1.990   0.418
  102HOH      O  510   0.141   0.529   1.401
  102HOH     H1  511   0.056   0.567   1.380
  102HOH     H2  512   0.154   0.460   1.335
  103HOH      O  513   3.539   1.154   3.678
  103HOH     H1  514   3.538   1.233   3.733
  103HOH     H2  515   3.460   1.107   3.704
  104HOH      O  516   1.686   2.183   2.353
  104HOH     H1  517   1.650   2.120   2.416
  104HOH     H2  518   1.780   2.173   2.361
  105HOH      O  519   0.527   1.062   3.373
  105HOH     H1  520   0.464   1.118   3.328
  105HOH     H2  521   0.473   0.997   3.418
  106HOH      O  522   1.643   3.303   2.838
  106HOH     H1  523   1.702   3.228   2.833
  106HOH     H2  524   1.558   3.268   2.809
  107HOH      O  525   0.141   1.040   3.075
  107HOH     H1  526   0.128   1.066   2.983
  107HOH     H2  527   0.200   1.106   3.110
  108HOH      O  528   3.429   1.405   1.556
  108HOH     H1  529   3.353   1.427   1.610
  108HOH     H2  530   3.392   1.364   1.478
  109HOH      O  531   0.961   3.064   1.105
  109HOH     H1  532   0.950   2.986   1.159
  109HOH     H2  533   1.053   3.088   1.117
  110HOH      O  534   0.182   3.267   0.354
  110HOH     H1  535   0.239   3.209   0.405
  110HOH     H2  536   0.217   3.262   0.264
  111HOH      O  537   3.392   0.715   2.099
  111HOH     H1  538   3.309   0.748   2.134
  111HOH     H2  539   3.431   0.666   2.171
  112HOH      O  540   3.015   1.264   2.819
  112HOH     H1  541   2.966   1.182   2.823
  112HOH     H2  542   3.105   1.237   2.805
  113HOH      O  543   1.097   2.467   1.880
  113HOH     H1  544   1.135   2.543   1.923
  113HOH     H2  545   1.157   2.449   1.807
  114HOH      O  546   0.552   2.120   1.083
  114HOH     H1  547   0.555   2.181   1.009
  114HOH     H2  548   0.592   2.168   1.155
  115HOH      O  549   1.645   2.808   0.757
  115HOH     H1  550   1.679   2.813   0.668
  115HOH     H2  551   1.573   2.746   0.752
  116HOH      O  552   0.958   3.981   1.348
  116HOH     H1  553   1.043   4.021   1.367
  116HOH     H2  554   0.896   4.029   1.403
  117HOH      O  555   3.461   1.746   2.038
  117HOH     H1  556   3.397   1.756   1.967
  117HOH     H2  557   3.412   1.768   2.117
  118HOH      O  558   2.005   3.789   1.848
  118HOH     H1  559   1.970   3.870   1.811
  118HOH     H2  560   2.098   3.791   1.827
  119HOH      O  561   2.354   3.625   3.177
  119HOH     H1  562   2.348   3.675   3.095
  119HOH     H2  563   2.264   3.608   3.202
  120HOH      O  564   1.192   2.622   1.587
  120HOH     H1  565   1.156   2.543   1.547
  120HOH     H2  566   1.235   2.591   1.667
  121HOH      O  567   1.820   1.694   3.508
  121HOH     H1  568   1.903   1.736   3.486
  121HOH     H2  569   1.757   1.733   3.447
  122HOH      O  570   2.989   2.285   1.340
  122HOH     H1  571   3.065   2.290   1.398
  122HOH     H2  572   2.993   2.196   1.303
  123HOH      O  573   0.432   2.756   0.817
  123HOH     H1  574   0.339   2.741   0.802
  123HOH     H2  575   0.442   2.851   0.808
  124HOH      O  576   3.467   3.882   1.551
  124HOH     H1  577   3.420   3.947   1.498
  124HOH     H2  578   3.481   3.809   1.492
  125HOH      O  579   1.935   1.572   1.627
  125HOH     H1  580   1.978   1.633   1.568
  125HOH     H2  581   1.879   1.627   1.682
  126HOH      O  582   1.871   3.779   3.048
  126HOH     H1  583   1.835   3.766   3.135
  126HOH     H2  584   1.941   3.843   3.060
  127HOH      O  585   3.599   0.162   2.307
  127HOH     H1  586   3.684   0.200   2.283
  127HOH     H2  587   3.535   0.218   2.265
  128HOH      O  588   1.296   0.598   1.219
  128HOH     H1  589   1.211   0.600   1.176
  128HOH     H2  590   1.282   0.638   1.304
  129HOH      O  591   2.883   2.798   3.435
  129HOH     H1  592   2.819   2.850   3.388
  129HOH     H2  593   2.850   2.794   3.525
  130HOH      O  594   2.036   3.814   3.945
  130HOH     H1  595   2.047   3.874   3.871
  130HOH     H2  596   2.122   3.811   3.987
  131HOH      O  597   2.950   1.738   2.822
  131HOH     H1  598   3.022   1.722   2.882
  131HOH     H2  599   2.966   1.679   2.748
  132HOH      O  600   0.825   2.620   0.751
  132HOH     H1  601   0.805   2.711   0.728
  132HOH     H2  602   0.861   2.625   0.839
  133HOH      O  603   3.795   2.319   1.396
  133HOH     H1  604   3.741   2.372   1.454
  133HOH     H2  605   3.791   2.231   1.434
  134HOH      O  606   3.770   1.188   3.244
  134HOH     H1  607   3.781   1.212   3.336
  134HOH     H2  608   3.777   1.093   3.244
  135HOH      O  609   0.377   2.517   3.167
  135HOH     H1  610   0.437   2.505   3.093
  135HOH     H2  611   0.333   2.600   3.148
  136HOH      O  612   2.095   1.701   0.508
  136HOH     H1  613   2.024   1.755   0.543
  136HOH     H2  614   2.118   1.741   0.424
  137HOH      O  615   1.999   0.428   3.602
  137HOH     H1  616   1.956   0.342   3.605
  137HOH     H2  617   1.984   0.466   3.689
  138HOH      O  618   3.353   3.179   2.134
  138HOH     H1  619   3.319   3.108   2.080
  138HOH     H2  620   3.440   3.149   2.161
  139HOH      O  621   3.554   2.139   3.504
  139HOH     H1  622   3.617   2.094   3.561
  139HOH     H2  623   3.594   2.225   3.488
  140HOH      O  624  -0.022   3.944   2.276
  140HOH     H1  625   0.049   3.955   2.212
  140HOH     H2  626   0.018   3.964   2.360
  141HOH      O  627   1.259   3.292   3.535
  141HOH     H1  628   1.199   3.256   3.470
  141HOH     H2  629   1.203   3.337   3.598
  142HOH      O  630   3.909   2.155   3.885
  142HOH     H1  631   3.860   2.088   3.837
  142HOH     H2  632   3.927   2.223   3.819
  143HOH      O  633   1.614   0.032   1.692
  143HOH     H1  634   1.534   0.046   1.744
  143HOH     H2  635   1.617  -0.063   1.678
  144HOH      O  636   0.804   0.711   0.852
  144HOH     H1  637   0.876   0.764   0.817
  144HOH     H2  638   0.845   0.627   0.874
  145HOH      O  639   2.690   2.937   3.271
  145HOH     H1  640   2.644   2.856   3.296
  145HOH     H2  641   2.629   2.982   3.213
  146HOH      O  642   1.704   0.606   3.282
  146HOH     H1  643   1.721   0.598   3.188
  146HOH     H2  644   1.663   0.523   3.306
  147HOH      O  645   0.202   2.001   0.983
  147HOH     H1  646   0.173   1.960   0.902
  147HOH     H2  647   0.122   2.021   1.031
  148HOH      O  648   3.042   0.358   4.015
  148HOH     H1  649   3.094   0.392   3.942
  148HOH     H2  650   3.106   0.333   4.081
  149HOH      O  651   1.994   0.683   2.949
  149HOH     H1  652   1.973   0.727   2.866
  149HOH     H2  653   2.089   0.688   2.955
  150HOH      O  654   3.966   3.559   2.967
  150HOH     H1  655   4.040   3.619   2.957
  150HOH     H2  656   3.970   3.504   2.889
  151HOH      O  657   2.628   2.145   1.327
  151HOH     H1  658   2.660   2.086   1.396
  151HOH     H2  659   2.638   2.094   1.246
  152HOH      O  660   2.811   1.568   0.979
  152HOH     H1  661   2.789   1.485   0.937
  152HOH     H2  662   2.750   1.576   1.052
  153HOH      O  663   2.732   2.689   0.208
  153HOH     H1  664   2.725   2.764   0.268
  153HOH     H2  665   2.797   2.717   0.143
  154HOH      O  666   1.181   2.639   0.552
  154HOH     H1  667   1.098   2.592   0.552
  154HOH     H2  668   1.168   2.711   0.615
  155HOH      O  669   2.957   1.214   2.520
  155HOH     H1  670   3.041   1.170   2.510
  155HOH     H2  671   2.916   1.171   2.595
  156HOH      O  672   1.096   2.396   0.845
  156HOH     H1  673   1.061   2.314   0.879
  156HOH     H2  674   1.082   2.391   0.751
  157HOH      O  675   2.104   3.395   0.275
  157HOH     H1  676   2.116   3.348   0.192
  157HOH     H2  677   2.103   3.488   0.250
  158HOH      O  678   2.248   3.364   1.130
  158HOH     H1  679   2.266   3.294   1.067
  158HOH     H2  680   2.258   3.322   1.216
  159HOH      O  681   0.220   1.143   0.674
  159HOH     H1  682   0.214   1.223   0.623
  159HOH     H2  683   0.146   1.148   0.735
  160HOH      O  684   2.303   1.082   3.567
  160HOH     H1  685   2.232   1.112   3.510
  160HOH     H2  686   2.312   0.989   3.546
  161HOH      O  687   0.567   3.014   3.560
  161HOH     H1  688   0.609   2.970   3.635
  161HOH     H2  689   0.560   3.105   3.587
  162HOH      O  690   3.126   2.741   3.510
  162HOH     H1  691   3.114   2.689   3.590
  162HOH     H2  692   3.037   2.766   3.484
  163HOH      O  693   2.807   0.110   1.497
  163HOH     H1  694   2.849   0.067   1.422
  163HOH     H2  695   2.870   0.099   1.568
  164HOH      O  696   1.334   2.265   0.973
  164HOH     H1  697   1.289   2.332   0.922
  164HOH     H2  698   1.403   2.312   1.018
  165HOH      O  699   2.297   1.427   3.756
  165HOH     H1  700   2.384   1.407   3.722
  165HOH     H2  701   2.314   1.475   3.837
  166HOH      O  702   2.120   2.140   0.533
  166HOH     H1  703   2.179   2.161   0.605
  166HOH     H2  704   2.032   2.152   0.570
  167HOH      O  705   1.499   2.384   2.330
  167HOH     H1  706   1.568   2.318   2.342
  167HOH     H2  707   1.485   2.388   2.236
  168HOH      O  708   2.376   0.646   0.722
  168HOH     H1  709   2.319   0.649   0.799
  168HOH     H2  710   2.394   0.553   0.710
  169HOH      O  711   0.466   3.764   2.830
  169HOH     H1  712   0.493   3.849   2.795
  169HOH     H2  713   0.543   3.730   2.875
  170HOH      O  714   0.254   0.483   3.195
  170HOH     H1  715   0.235   0.406   3.249
  170HOH     H2  716   0.187   0.480   3.126
  171HOH      O  717   3.514   1.521   2.304
  171HOH     H1  718   3.565   1.501   2.226
  171HOH     H2  719   3.432   1.473   2.292
  172HOH      O  720   1.756   1.823   1.225
  172HOH     H1  721   1.730   1.743   1.272
  172HOH     H2  722   1.838   1.799   1.180
  173HOH      O  723   2.829   0.245   2.885
  173HOH     H1  724   2.846   0.337   2.861
  173HOH     H2  725   2.914   0.211   2.911
  174HOH      O  726   2.272   0.968   2.960
  174HOH     H1  727   2.350   0.917   2.980
  174HOH     H2  728   2.210   0.948   3.030
  175HOH      O  729   0.117   1.805   2.892
  175HOH     H1  730   0.064   1.867   2.941
  175HOH     H2  731   0.203   1.808   2.935
  176HOH      O  732   2.216   1.107   1.260
  176HOH     H1  733   2.167   1.064   1.190
  176HOH     H2  734   2.305   1.113   1.228
  177HOH      O  735   2.797   2.599   3.281
  177HOH     H1  736   2.808   2.672   3.342
  177HOH     H2  737   2.738   2.539   3.326
  178HOH      O  738   0.373   1.058   2.272
  178HOH     H1  739   0.363   1.152   2.286
  178HOH     H2  740   0.464   1.047   2.243
  179HOH      O  741   2.369   1.766   2.009
  179HOH     H1  742   2.349   1.674   1.991
  179HOH     H2  743   2.318   1.786   2.087
  180HOH      O  744   2.580   0.540   0.145
  180HOH     H1  745   2.617   0.475   0.205
  180HOH     H2  746   2.493   0.505   0.124
  181HOH      O  747   1.076   2.066   2.695
  181HOH     H1  748   0.991   2.023   2.683
  181HOH     H2  749   1.063   2.155   2.660
  182HOH      O  750   1.553   2.053   0.068
  182HOH     H1  751   1.495   2.005   0.128
  182HOH     H2  752   1.587   2.125   0.121
  183HOH      O  753   0.090   2.581   1.915
  183HOH     H1  754   0.063   2.526   1.988
  183HOH     H2  755   0.184   2.565   1.907
  184HOH      O  756   3.166   2.202   0.531
  184HOH     H1  757   3.099   2.265   0.503
  184HOH     H2  758   3.239   2.215   0.471
  185HOH      O  759   1.132   1.092   2.396
  185HOH     H1  760   1.204   1.144   2.363
  185HOH     H2  761   1.173   1.014   2.434
  186HOH      O  762   1.078   1.946   3.505
  186HOH     H1  763   1.038   2.010   3.445
  186HOH     H2  764   1.111   1.999   3.578
  187HOH      O  765   2.150   2.974   3.343
  187HOH     H1  766   2.218   3.041   3.345
  187HOH     H2  767   2.075   3.016   3.384
  188HOH      O  768   2.523   0.417   1.954
  188HOH     H1  769   2.593   0.366   1.915
  188HOH     H2  770   2.453   0.416   1.889
  189HOH      O  771   3.966   3.081   3.113
  189HOH     H1  772   3.999   3.080   3.202
  189HOH     H2  773   4.000   3.162   3.075
  190HOH      O  774   2.479   1.828   2.786
  190HOH     H1  775   2.570   1.803   2.798
  190HOH     H2  776   2.429   1.749   2.810
  191HOH      O  777   1.693   1.737   1.715
  191HOH     H1  778   1.633   1.759   1.644
  191HOH     H2  779   1.735   1.820   1.738
  192HOH      O  780   0.424   0.140   2.025
  192HOH     H1  781   0.379   0.148   1.940
  192HOH     H2  782   0.511   0.175   2.009
  193HOH      O  783   0.813   0.278   1.722
  193HOH     H1  784   0.858   0.198   1.750
  193HOH     H2  785   0.812   0.272   1.626
  194HOH      O  786   2.158   1.450   0.649
  194HOH     H1  787   2.123   1.527   0.603
  194HOH     H2  788   2.225   1.485   0.708
  195HOH      O  789   2.248   0.258   2.273
  195HOH     H1  790   2.337   0.292   2.261
  195HOH     H2  791   2.248   0.174   2.225
  196HOH      O  792   2.896   1.037   2.796
  196HOH     H1  793   2.801   1.034   2.799
  196HOH     H2  794   2.921   0.968   2.734
  197HOH      O  795   0.705   3.830   0.965
  197HOH     H1  796   0.660   3.830   1.049
  197HOH     H2  797   0.774   3.764   0.975
  198HOH      O  798   2.119   3.987   0.791
  198HOH     H1  799   2.148   4.074   0.765
  198HOH     H2  800   2.130   3.934   0.712
  199HOH      O  801   1.486   3.830   0.916
  199HOH     H1  802   1.400   3.791   0.933
  199HOH     H2  803   1.547   3.756   0.921
  200HOH      O  804   1.364   0.580   3.158
  200HOH     H1  805   1.387   0.672   3.175
  200HOH     H2  806   1.358   0.575   3.062
  201HOH      O  807   2.684   0.576   0.565
  201HOH     H1  808   2.624   0.512   0.604
  201HOH     H2  809   2.638   0.606   0.486
  202HOH      O  810   1.899   1.046   3.141
  202HOH     H1  811   1.840   1.036   3.066
  202HOH     H2  812   1.853   1.005   3.214
  203HOH      O  813   2.582   1.104   0.907
  203HOH     H1  814   2.661   1.158   0.908
  203HOH     H2  815   2.613   1.017   0.884
  204HOH      O  816   2.542   3.441   1.238
  204HOH     H1  817   2.449   3.435   1.215
  204HOH     H2  818   2.588   3.407   1.162
  205HOH      O  819   3.064   3.537   2.177
  205HOH     H1  820   3.037   3.516   2.267
  205HOH     H2  821   2.987   3.517   2.124
  206HOH      O  822   1.532   3.627   2.643
  206HOH     H1  823   1.600   3.592   2.586
  206HOH     H2  824   1.562   3.604   2.731
  207HOH      O  825   1.639   0.024   3.878
  207HOH     H1  826   1.706  -0.039   3.903
  207HOH     H2  827   1.658   0.042   3.785
  208HOH      O  828   0.106   1.579   1.701
  208HOH     H1  829   0.107   1.610   1.611
  208HOH     H2  830   0.194   1.597   1.734
  209HOH      O  831   3.633   3.816   3.339
  209HOH     H1  832   3.677   3.742   3.297
  209HOH     H2  833   3.676   3.893   3.304
  210HOH      O  834   3.485   1.711   1.612
  210HOH     H1  835   3.517   1.633   1.659
  210HOH     H2  836   3.492   1.688   1.520
  211HOH      O  837   0.255   0.715   0.086
  211HOH     H1  838   0.200   0.790   0.063
  211HOH     H2  839   0.195   0.641   0.091
  212HOH      O  840   2.936   1.646   0.739
  212HOH     H1  841   3.002   1.577   0.733
  212HOH     H2  842   2.884   1.622   0.816
  213HOH      O  843   0.563   0.387   0.877
  213HOH     H1  844   0.570   0.473   0.919
  213HOH     H2  845   0.652   0.368   0.846
  214HOH      O  846   2.514   0.268   2.186
  214HOH     H1  847   2.506   0.332   2.116
  214HOH     H2  848   2.608   0.253   2.194
  215HOH      O  849   0.905   1.365   2.857
  215HOH     H1  850   0.917   1.312   2.779
  215HOH     H2  851   0.992   1.367   2.898
  216HOH      O  852   0.518   1.073   3.057
  216HOH     H1  853   0.527   0.990   3.102
  216HOH     H2  854   0.554   1.138   3.118
  217HOH      O  855   1.456   0.885   3.698
  217HOH     H1  856   1.507   0.823   3.646
  217HOH     H2  857   1.414   0.832   3.765
  218HOH      O  858   1.140   1.726   3.342
  218HOH     H1  859   1.131   1.792   3.410
  218HOH     H2  860   1.189   1.655   3.384
  219HOH      O  861   2.052   3.597   0.618
  219HOH     H1  862   2.105   3.675   0.600
  219HOH     H2  863   1.997   3.624   0.692
  220HOH      O  864   1.184   3.717   3.713
  220HOH     H1  865   1.259   3.698   3.657
  220HOH     H2  866   1.213   3.790   3.768
  221HOH      O  867   3.421   2.458   2.580
  221HOH     H1  868   3.328   2.482   2.583
  221HOH     H2  869   3.468   2.541   2.576
  222HOH      O  870   1.612   1.082   0.477
  222HOH     H1  871   1.520   1.057   0.472
  222HOH     H2  872   1.616   1.167   0.432
  223HOH      O  873   0.532   1.170   1.145
  223HOH     H1  874   0.549   1.151   1.053
  223HOH     H2  875   0.598   1.236   1.168
  224HOH      O  876   4.054   1.195   0.832
  224HOH     H1  877   4.059   1.141   0.911
  224HOH     H2  878   3.967   1.234   0.835
  225HOH      O  879   0.670   0.861   1.747
  225HOH     H1  880   0.700   0.779   1.707
  225HOH     H2  881   0.614   0.833   1.820
  226HOH      O  882   2.269   3.629   1.252
  226HOH     H1  883   2.309   3.682   1.183
  226HOH     H2  884   2.230   3.555   1.205
  227HOH      O  885   0.379   0.292   3.704
  227HOH     H1  886   0.352   0.203   3.725
  227HOH     H2  887   0.436   0.318   3.777
  228HOH      O  888   2.022   0.373   1.792
  228HOH     H1  889   2.088   0.369   1.861
  228HOH     H2  890   2.016   0.283   1.760
  229HOH      O  891   2.416   3.009   2.822
  229HOH     H1  892   2.476   3.077   2.791
  229HOH     H2  893   2.441   2.931   2.773
  230HOH      O  894   3.895   1.304   2.461
  230HOH     H1  895   3.876   1.329   2.370
  230HOH     H2  896   3.825   1.345   2.512
  231HOH      O  897   1.810   2.242   1.631
  231HOH     H1  898   1.833   2.309   1.566
  231HOH     H2  899   1.806   2.161   1.581
  232HOH      O  900   3.090   1.185   0.934
  232HOH     H1  901   3.159   1.135   0.977
  232HOH     H2  902   3.114   1.185   0.842
  233HOH      O  903   1.908   4.037   0.148
  233HOH     H1  904   1.894   3.942   0.149
  233HOH     H2  905   1.995   4.047   0.109
  234HOH      O  906   4.016   2.287   2.987
  234HOH     H1  907   4.083   2.238   2.938
  234HOH     H2  908   4.006   2.369   2.939
  235HOH      O  909   0.417   2.100   2.452
  235HOH     H1  910   0.434   2.053   2.371
  235HOH     H2  911   0.500   2.096   2.500
  236HOH      O  912   1.283   3.693   1.591
  236HOH     H1  913   1.307   3.600   1.600
  236HOH     H2  914   1.201   3.700   1.639
  237HOH      O  915   1.207   2.592   2.720
  237HOH     H1  916   1.244   2.507   2.696
  237HOH     H2  917   1.178   2.582   2.810
  238HOH      O  918   2.337   3.041   0.435
  238HOH     H1  919   2.423   3.074   0.409
  238HOH     H2  920   2.300   3.006   0.355
  239HOH      O  921   3.738   0.670   0.735
  239HOH     H1  922   3.757   0.611   0.662
  239HOH     H2  923   3.722   0.612   0.809
  240HOH      O  924   3.962   1.855   0.120
  240HOH     H1  925   3.889   1.873   0.061
  240HOH     H2  926   3.942   1.770   0.158
  241HOH      O  927   2.910   2.921   0.792
  241HOH     H1  928   2.880   2.937   0.702
  241HOH     H2  929   2.951   3.004   0.818
  242HOH      O  930   1.429   1.390   2.515
  242HOH     H1  931   1.391   1.378   2.602
  242HOH     H2  932   1.476   1.309   2.498
  243HOH      O  933   1.518   1.110   2.555
  243HOH     H1  934   1.449   1.058   2.597
  243HOH     H2  935   1.593   1.102   2.613
  244HOH      O  936   2.855   3.134   3.881
  244HOH     H1  937   2.943   3.103   3.905
  244HOH     H2  938   2.869   3.222   3.848
  245HOH      O  939   3.866   2.722   1.016
  245HOH     H1  940   3.791   2.782   1.012
  245HOH     H2  941   3.899   2.718   0.927
  246HOH      O  942   0.964   3.278   0.434
  246HOH     H1  943   1.022   3.248   0.505
  246HOH     H2  944   0.944   3.369   0.456
  247HOH      O  945   1.830   0.360   2.540
  247HOH     H1  946   1.854   0.284   2.591
  247HOH     H2  947   1.887   0.430   2.572
  248HOH      O  948   1.663   3.484   4.017
  248HOH     H1  949   1.652   3.557   4.078
  248HOH     H2  950   1.574   3.451   4.003
  249HOH      O  951   2.807   3.373   0.028
  249HOH     H1  952   2.740   3.329   0.081
  249HOH     H2  953   2.888   3.360   0.078
  250HOH      O  954   2.793   1.991   1.998
  250HOH     H1  955   2.834   1.906   2.016
  250HOH     H2  956   2.700   1.976   2.013
  251HOH      O  957   2.208   1.946   1.401
  251HOH     H1  958   2.281   1.986   1.448
  251HOH     H2  959   2.249   1.903   1.326
  252HOH      O  960   1.053   0.691   3.872
  252HOH     H1  961   0.987   0.621   3.877
  252HOH     H2  962   1.131   0.648   3.839
  253HOH      O  963   1.084   2.608   2.389
  253HOH     H1  964   0.996   2.628   2.423
  253HOH     H2  965   1.143   2.628   2.461
  254HOH      O  966   2.549   0.881   3.638
  254HOH     H1  967   2.512   0.961   3.675
  254HOH     H2  968   2.620   0.858   3.698
  255HOH      O  969   0.070   2.789   1.139
  255HOH     H1  970   0.031   2.806   1.225
  255HOH     H2  971  -0.002   2.751   1.088
  256HOH      O  972   0.341   0.574   2.087
  256HOH     H1  973   0.292   0.609   2.013
  256HOH     H2  974   0.328   0.639   2.157
  257HOH      O  975   2.331   3.408   0.430
  257HOH     H1  976   2.269   3.378   0.363
  257HOH     H2  977   2.298   3.370   0.512
  258HOH      O  978   1.041   0.970   3.760
  258HOH     H1  979   0.996   1.025   3.695
  258HOH     H2  980   1.034   0.881   3.724
  259HOH      O  981   0.563   3.506   0.973
  259HOH     H1  982   0.597   3.554   1.048
  259HOH     H2  983   0.470   3.529   0.971
  260HOH      O  984   2.374   1.863   1.176
  260HOH     H1  985   2.319   1.792   1.144
  260HOH     H2  986   2.414   1.900   1.097
  261HOH      O  987   3.917   0.521   3.887
  261HOH     H1  988   3.843   0.514   3.826
  261HOH     H2  989   3.992   0.538   3.830
  262HOH      O  990   1.722   3.133   1.553
  262HOH     H1  991   1.627   3.122   1.560
  262HOH     H2  992   1.735   3.228   1.556
  263HOH      O  993   2.211   2.372   0.363
  263HOH     H1  994   2.201   2.453   0.413
  263HOH     H2  995   2.165   2.306   0.415
  264HOH      O  996   0.871   3.328   1.944
  264HOH     H1  997   0.794   3.341   1.889
  264HOH     H2  998   0.943   3.320   1.883
  265HOH      O  999   3.456   1.672   0.237
  265HOH     H1 1000   3.455   1.687   0.332
  265HOH     H2 1001   3.404   1.593   0.225
  266HOH      O 1002   1.223   1.939   3.852
  266HOH     H1 1003   1.242   1.982   3.935
  266HOH     H2 1004   1.215   2.011   3.789
  267HOH      O 1005   0.348   2.829   1.125
  267HOH     H1 1006   0.254   2.816   1.134
  267HOH     H2 1007   0.365   2.818   1.032
  268HOH      O 1008   3.021   1.175   3.747
  268HOH     H1 1009   2.966   1.252   3.764
  268HOH     H2 1010   2.986   1.108   3.806
  269HOH      O 1011   1.499   0.545   0.986
  269HOH     H1 1012   1.436   0.600   1.032
  269HOH     H2 1013   1.528   0.482   1.052
  270HOH      O 1014   2.738   1.616   3.821
  270HOH     H1 1015   2.670   1.637   3.756
  270HOH     H2 1016   2.802   1.686   3.811
  271HOH      O 1017   0.727   3.941   0.288
  271HOH     H1 1018   0.633   3.929   0.301
  271HOH     H2 1019   0.758   3.855   0.260
  272HOH      O 1020   2.041   2.694   0.994
  272HOH     H1 1021   2.072   2.688   1.084
  272HOH     H2 1022   1.958   2.742   1.000
  273HOH      O 1023   0.926   2.084   0.786
  273HOH     H1 1024   0.946   1.993   0.806
  273HOH     H2 1025   0.998   2.114   0.731
  274HOH      O 1026   1.323   1.987   2.160
  274HOH     H1 1027   1.289   2.076   2.150
  274HOH     H2 1028   1.245   1.931   2.158
  275HOH      O 1029   0.459   0.233   1.066
  275HOH     H1 1030   0.475   0.279   0.984
  275HOH     H2 1031   0.408   0.156   1.041
  276HOH      O 1032   0.819   4.033   3.678
  276HOH     H1 1033   0.887   4.037   3.745
  276HOH     H2 1034   0.850   3.967   3.616
  277HOH      O 1035   3.996   0.753   1.660
  277HOH     H1 1036   3.962   0.816   1.725
  277HOH     H2 1037   4.050   0.807   1.602
  278HOH      O 1038   2.681   2.123   3.320
  278HOH     H1 1039   2.648   2.121   3.230
  278HOH     H2 1040   2.775   2.107   3.311
  279HOH      O 1041   3.800   2.225   3.136
  279HOH     H1 1042   3.760   2.301   3.179
  279HOH     H2 1043   3.879   2.260   3.095
  280HOH      O 1044   0.234   2.981   2.476
  280HOH     H1 1045   0.188   3.006   2.395
  280HOH     H2 1046   0.254   2.888   2.464
  281HOH      O 1047   3.309   1.728   1.809
  281HOH     H1 1048   3.285   1.635   1.814
  281HOH     H2 1049   3.364   1.734   1.731
  282HOH      O 1050   0.802   1.617   1.852
  282HOH     H1 1051   0.875   1.678   1.845
  282HOH     H2 1052   0.750   1.633   1.774
  283HOH      O 1053   0.556   1.605   2.138
  283HOH     H1 1054   0.582   1.593   2.229
  283HOH     H2 1055   0.607   1.681   2.108
  284HOH      O 1056   3.848   0.958   1.373
  284HOH     H1 1057   3.938   0.955   1.343
  284HOH     H2 1058   3.854   0.979   1.467
  285HOH      O 1059   2.724   3.240   2.526
  285HOH     H1 1060   2.671   3.172   2.570
  285HOH     H2 1061   2.775   3.192   2.461
  286HOH      O 1062   2.532   1.121   2.101
  286HOH     H1 1063   2.543   1.202   2.053
  286HOH     H2 1064   2.576   1.135   2.184
  287HOH      O 1065   3.483   3.683   1.374
  287HOH     H1 1066   3.565   3.639   1.395
  287HOH     H2 1067   3.473   3.671   1.279
  288HOH      O 1068   3.159   0.123   1.304
  288HOH     H1 1069   3.103   0.121   1.227
  288HOH     H2 1070   3.192   0.033   1.312
  289HOH      O 1071   2.911   3.789   3.530
  289HOH     H1 1072   2.908   3.848   3.455
  289HOH     H2 1073   3.000   3.753   3.529
  290HOH      O 1074   0.507   0.813   2.906
  290HOH     H1 1075   0.517   0.908   2.908
  290HOH     H2 1076   0.515   0.786   2.997
  291HOH      O 1077   0.440   2.440   2.138
  291HOH     H1 1078   0.526   2.400   2.124
  291HOH     H2 1079   0.404   2.449   2.050
  292HOH      O 1080   1.339   3.017   1.346
  292HOH     H1 1081   1.305   2.929   1.365
  292HOH     H2 1082   1.262   3.074   1.354
  293HOH      O 1083   0.786   1.256   2.319
  293HOH     H1 1084   0.844   1.219   2.252
  293HOH     H2 1085   0.705   1.277   2.273
  294HOH      O 1086   1.804   2.702   1.352
  294HOH     H1 1087   1.809   2.786   1.397
  294HOH     H2 1088   1.714   2.698   1.319
  295HOH      O 1089   3.459   0.078   3.207
  295HOH     H1 1090   3.377   0.085   3.254
  295HOH     H2 1091   3.459   0.153   3.147
  296HOH      O 1092   0.451   2.078   0.245
  296HOH     H1 1093   0.543   2.083   0.219
  296HOH     H2 1094   0.403   2.076   0.162
  297HOH      O 1095   1.644   2.466   2.810
  297HOH     H1 1096   1.612   2.469   2.720
  297HOH     H2 1097   1.728   2.421   2.805
  298HOH      O 1098   1.547   1.144   1.463
  298HOH     H1 1099   1.499   1.228   1.463
  298HOH     H2 1100   1.618   1.158   1.401
  299HOH      O 1101   2.224   0.645  -0.006
  299HOH     H1 1102   2.150   0.663   0.052
  299HOH     H2 1103   2.295   0.698   0.029
  300HOH      O 1104   1.444   1.668   1.944
  300HOH     H1 1105   1.508   1.669   1.872
  300HOH     H2 1106   1.369   1.717   1.909
  301HOH      O 1107   2.157   1.374   2.759
  301HOH     H1 1108   2.225   1.390   2.694
  301HOH     H2 1109   2.200   1.325   2.828
  302HOH      O 1110   1.226   3.169   1.067
  302HOH     H1 1111   1.310   3.149   1.024
  302HOH     H2 1112   1.209   3.260   1.043
  303HOH      O 1113   2.492   2.435   3.277
  303HOH     H1 1114   2.516   2.343   3.289
  303HOH     H2 1115   2.484   2.446   3.183
  304HOH      O 1116   2.694   0.604   2.479
  304HOH     H1 1117   2.751   0.541   2.435
  304HOH     H2 1118   2.701   0.583   2.572
  305HOH      O 1119   1.309   2.635   0.907
  305HOH     H1 1120   1.230   2.604   0.952
  305HOH     H2 1121   1.334   2.714   0.953
  306HOH      O 1122   2.046   0.737   0.559
  306HOH     H1 1123   2.003   0.816   0.526
  306HOH     H2 1124   1.975   0.680   0.586
  307HOH      O 1125   2.878   0.909   0.684
  307HOH     H1 1126   2.796   0.885   0.727
  307HOH     H2 1127   2.852   0.935   0.595
  308HOH      O 1128   1.106   1.418   1.694
  308HOH     H1 1129   1.116   1.329   1.659
  308HOH     H2 1130   1.012   1.431   1.701
  309HOH      O 1131   1.460   3.975   2.722
  309HOH     H1 1132   1.497   3.974   2.810
  309HOH     H2 1133   1.532   3.949   2.665
  310HOH      O 1134   3.926   1.944   0.788
  310HOH     H1 1135   3.915   1.906   0.701
  310HOH     H2 1136   3.924   2.038   0.774
  311HOH      O 1137   1.405   2.298   2.965
  311HOH     H1 1138   1.409   2.288   2.870
  311HOH     H2 1139   1.318   2.267   2.990
  312HOH      O 1140   2.530   1.733   1.366
  312HOH     H1 1141   2.493   1.757   1.451
  312HOH     H2 1142   2.488   1.793   1.304
  313HOH      O 1143   2.242   2.639   2.063
  313HOH     H1 1144   2.288   2.723   2.061
  313HOH     H2 1145   2.257   2.601   1.977
  314HOH      O 1146   1.478   1.795   1.558
  314HOH     H1 1147   1.484   1.867   1.496
  314HOH     H2 1148   1.431   1.832   1.633
  315HOH      O 1149   2.889   3.418   0.712
  315HOH     H1 1150   2.842   3.357   0.655
  315HOH     H2 1151   2.820   3.469   0.754
  316HOH      O 1152   1.498   3.328   2.490
  316HOH     H1 1153   1.508   3.350   2.398
  316HOH     H2 1154   1.567   3.377   2.534
  317HOH      O 1155   1.992   1.750   1.404
  317HOH     H1 1156   2.055   1.822   1.406
  317HOH     H2 1157   1.956   1.751   1.315
  318HOH      O 1158   1.469   3.678   3.060
  318HOH     H1 1159   1.538   3.642   3.004
  318HOH     H2 1160   1.389   3.636   3.028
  319HOH      O 1161   2.346   0.519   2.147
  319HOH     H1 1162   2.402   0.493   2.073
  319HOH     H2 1163   2.274   0.456   2.145
  320HOH      O 1164   1.034   2.999   3.692
  320HOH     H1 1165   0.992   2.913   3.701
  320HOH     H2 1166   1.081   3.011   3.775
  321HOH      O 1167   0.161   1.315   0.451
  321HOH     H1 1168   0.095   1.247   0.437
  321HOH     H2 1169   0.131   1.389   0.398
  322HOH      O 1170   1.021   2.158   3.121
  322HOH     H1 1171   1.031   2.088   3.057
  322HOH     H2 1172   0.954   2.215   3.084
  323HOH      O 1173   2.437   1.555   3.965
  323HOH     H1 1174   2.528   1.574   3.986
  323HOH     H2 1175   2.398   1.641   3.948
  324HOH      O 1176   3.281   3.914   1.358
  324HOH     H1 1177   3.226   3.874   1.425
  324HOH     H2 1178   3.323   3.840   1.315
  325HOH      O 1179   0.250   0.300   2.215
  325HOH     H1 1180   0.246   0.387   2.175
  325HOH     H2 1181   0.343   0.277   2.213
  326HOH      O 1182   1.314   1.909   1.774
  326HOH     H1 1183   1.342   1.982   1.829
  326HOH     H2 1184   1.256   1.948   1.709
  327HOH      O 1185   2.395   0.133   1.533
  327HOH     H1 1186   2.391   0.209   1.591
  327HOH     H2 1187   2.443   0.067   1.583
  328HOH      O 1188   3.393   0.548   1.015
  328HOH     H1 1189   3.426   0.487   0.949
  328HOH     H2 1190   3.429   0.633   0.989
  329HOH      O 1191   0.700   2.340   2.056
  329HOH     H1 1192   0.726   2.280   1.986
  329HOH     H2 1193   0.726   2.426   2.024
  330HOH      O 1194   1.675   3.590   0.388
  330HOH     H1 1195   1.613   3.591   0.461
  330HOH     H2 1196   1.720   3.505   0.395
  331HOH      O 1197   2.772   2.143   0.190
  331HOH     H1 1198   2.854   2.110   0.227
  331HOH     H2 1199   2.773   2.237   0.208
  332HOH      O 1200   2.966   3.794   2.049
  332HOH     H1 1201   3.036   3.788   2.113
  332HOH     H2 1202   2.995   3.739   1.976
  333HOH      O 1203   0.654   3.406   2.610
  333HOH     H1 1204   0.577   3.449   2.647
  333HOH     H2 1205   0.728   3.443   2.659
  334HOH      O 1206   2.152   2.483   3.277
  334HOH     H1 1207   2.148   2.452   3.186
  334HOH     H2 1208   2.180   2.574   3.270
  335HOH      O 1209   0.916   1.026   3.524
  335HOH     H1 1210   0.920   1.076   3.442
  335HOH     H2 1211   0.851   1.073   3.577
  336HOH      O 1212   2.987   2.035   1.187
  336HOH     H1 1213   2.893   2.020   1.190
  336HOH     H2 1214   3.026   1.949   1.206
  337HOH      O 1215   2.372   1.825   3.927
  337HOH     H1 1216   2.292   1.866   3.958
  337HOH     H2 1217   2.367   1.833   3.831
  338HOH      O 1218   1.982   1.500   3.644
  338HOH     H1 1219   1.940   1.569   3.592
  338HOH     H2 1220   1.911   1.461   3.695
  339HOH      O 1221   2.425   0.757   1.077
  339HOH     H1 1222   2.341   0.729   1.041
  339HOH     H2 1223   2.491   0.716   1.021
  340HOH      O 1224   0.803   0.999   2.903
  340HOH     H1 1225   0.738   1.006   2.973
  340HOH     H2 1226   0.877   0.955   2.945
  341HOH      O 1227   3.624   3.750   2.258
  341HOH     H1 1228   3.561   3.814   2.291
  341HOH     H2 1229   3.577   3.704   2.188
  342HOH      O 1230   0.503   1.673   1.197
  342HOH     H1 1231   0.485   1.638   1.109
  342HOH     H2 1232   0.464   1.760   1.196
  343HOH      O 1233   0.718   2.844   0.674
  343HOH     H1 1234   0.697   2.860   0.582
  343HOH     H2 1235   0.674   2.915   0.721
  344HOH      O 1236   0.644   3.293   0.806
  344HOH     H1 1237   0.619   3.358   0.872
  344HOH     H2 1238   0.734   3.268   0.830
  345HOH      O 1239   3.189   0.470   2.703
  345HOH     H1 1240   3.162   0.385   2.669
  345HOH     H2 1241   3.279   0.456   2.732
  346HOH      O 1242   0.691   2.376   3.780
  346HOH     H1 1243   0.686   2.334   3.694
  346HOH     H2 1244   0.616   2.435   3.782
  347HOH      O 1245   1.851   2.168   0.607
  347HOH     H1 1246   1.764   2.131   0.624
  347HOH     H2 1247   1.834   2.255   0.571
  348HOH      O 1248   3.662   0.520   4.026
  348HOH     H1 1249   3.628   0.440   3.986
  348HOH     H2 1250   3.748   0.532   3.985
  349HOH      O 1251   2.264   0.050   2.115
  349HOH     H1 1252   2.321   0.012   2.049
  349HOH     H2 1253   2.190  -0.011   2.122
  350HOH      O 1254   2.636   4.013   1.202
  350HOH     H1 1255   2.638   3.918   1.188
  350HOH     H2 1256   2.565   4.026   1.264
  351HOH      O 1257   0.813   2.609   2.436
  351HOH     H1 1258   0.754   2.582   2.506
  351HOH     H2 1259   0.755   2.633   2.363
  352HOH      O 1260   2.474   0.294   2.832
  352HOH     H1 1261   2.462   0.211   2.879
  352HOH     H2 1262   2.401   0.297   2.770
  353HOH      O 1263   3.940   1.024   1.912
  353HOH     H1 1264   3.871   1.043   1.975
  353HOH     H2 1265   4.007   1.090   1.930
  354HOH      O 1266   3.885   2.779   2.087
  354HOH     H1 1267   3.805   2.759   2.039
  354HOH     H2 1268   3.935   2.698   2.085
  355HOH      O 1269   2.601   3.049   3.656
  355HOH     H1 1270   2.621   2.991   3.583
  355HOH     H2 1271   2.631   3.135   3.627
  356HOH      O 1272   0.363   2.361   0.351
  356HOH     H1 1273   0.275   2.350   0.316
  356HOH     H2 1274   0.357   2.329   0.441
  357HOH      O 1275   0.348   1.720   3.484
  357HOH     H1 1276   0.340   1.664   3.406
  357HOH     H2 1277   0.258   1.734   3.512
  358HOH      O 1278   3.534   3.075   3.688
  358HOH     H1 1279   3.616   3.041   3.724
  358HOH     H2 1280   3.486   2.998   3.658
  359HOH      O 1281   1.859   2.804   2.902
  359HOH     H1 1282   1.888   2.869   2.967
  359HOH     H2 1283   1.763   2.805   2.908
  360HOH      O 1284   1.640   1.412   3.276
  360HOH     H1 1285   1.706   1.368   3.329
  360HOH     H2 1286   1.561   1.412   3.330
  361HOH      O 1287   1.986   3.704   2.763
  361HOH     H1 1288   2.069   3.667   2.794
  361HOH     H2 1289   1.945   3.739   2.842
  362HOH      O 1290   3.649   1.781   3.320
  362HOH     H1 1291   3.607   1.695   3.308
  362HOH     H2 1292   3.728   1.777   3.266
  363HOH      O 1293   3.082   0.340   2.443
  363HOH     H1 1294   3.091   0.245   2.439
  363HOH     H2 1295   2.987   0.355   2.447
  364HOH      O 1296   3.499   2.929   2.889
  364HOH     H1 1297   3.571   2.971   2.936
  364HOH     H2 1298   3.493   2.976   2.807
  365HOH      O 1299   2.196   3.434   1.618
  365HOH     H1 1300   2.189   3.399   1.707
  365HOH     H2 1301   2.113   3.479   1.604
  366HOH      O 1302   2.968   0.660   0.604
  366HOH     H1 1303   2.884   0.614   0.607
  366HOH     H2 1304   2.945   0.752   0.598
  367HOH      O 1305   3.867   3.331   1.667
  367HOH     H1 1306   3.797   3.270   1.648
  367HOH     H2 1307   3.831   3.387   1.737
  368HOH      O 1308   4.057   0.571   0.131
  368HOH     H1 1309   4.065   0.493   0.185
  368HOH     H2 1310   3.993   0.547   0.064
  369HOH      O 1311   2.395   3.783   1.056
  369HOH     H1 1312   2.455   3.799   1.129
  369HOH     H2 1313   2.452   3.775   0.979
  370HOH      O 1314   1.057   0.135   1.572
  370HOH     H1 1315   1.043   0.132   1.666
  370HOH     H2 1316   1.108   0.056   1.553
  371HOH      O 1317   3.125   0.598   0.792
  371HOH     H1 1318   3.146   0.675   0.846
  371HOH     H2 1319   3.077   0.634   0.718
  372HOH      O 1320   3.731   2.387   3.440
  372HOH     H1 1321   3.732   2.465   3.385
  372HOH     H2 1322   3.763   2.418   3.525
  373HOH      O 1323   3.989   0.791   2.796
  373HOH     H1 1324   4.029   0.876   2.811
  373HOH     H2 1325   3.917   0.787   2.860
  374HOH      O 1326   1.286   2.386   1.712
  374HOH     H1 1327   1.273   2.341   1.629
  374HOH     H2 1328   1.380   2.398   1.719
  375HOH      O 1329   3.606   2.542   0.714
  375HOH     H1 1330   3.571   2.568   0.799
  375HOH     H2 1331   3.614   2.447   0.718
  376HOH      O 1332   2.121   1.665   0.056
  376HOH     H1 1333   2.146   1.624   0.139
  376HOH     H2 1334   2.146   1.601  -0.011
  377HOH      O 1335   1.265   3.811   3.401
  377HOH     H1 1336   1.256   3.892   3.352
  377HOH     H2 1337   1.224   3.744   3.345
  378HOH      O 1338   1.825   2.369   1.181
  378HOH     H1 1339   1.871   2.302   1.130
  378HOH     H2 1340   1.816   2.443   1.121
  379HOH      O 1341   3.745   1.854   2.037
  379HOH     H1 1342   3.660   1.833   2.076
  379HOH     H2 1343   3.786   1.912   2.101
  380HOH      O 1344   2.627   1.740   0.710
  380HOH     H1 1345   2.673   1.662   0.678
  380HOH     H2 1346   2.605   1.788   0.630
  381HOH      O 1347   3.458   1.256   0.304
  381HOH     H1 1348   3.518   1.231   0.233
  381HOH     H2 1349   3.469   1.188   0.370
  382HOH      O 1350   1.715   1.129   0.967
  382HOH     H1 1351   1.660   1.189   0.917
  382HOH     H2 1352   1.722   1.050   0.912
  383HOH      O 1353   2.221   0.226   0.712
  383HOH     H1 1354   2.311   0.258   0.704
  383HOH     H2 1355   2.166   0.304   0.701
  384HOH      O 1356   1.969   3.190   1.737
  384HOH     H1 1357   2.031   3.120   1.719
  384HOH     H2 1358   1.925   3.206   1.654
  385HOH      O 1359   0.851   3.975   0.031
  385HOH     H1 1360   0.811   3.962   0.117
  385HOH     H2 1361   0.885   4.065   0.035
  386HOH      O 1362   3.308   2.056   1.389
  386HOH     H1 1363   3.236   1.999   1.418
  386HOH     H2 1364   3.300   2.134   1.444
  387HOH      O 1365   2.936   2.226   2.036
  387HOH     H1 1366   2.878   2.159   2.000
  387HOH     H2 1367   2.938   2.209   2.130
  388HOH      O 1368   3.874   0.390   1.398
  388HOH     H1 1369   3.890   0.484   1.392
  388HOH     H2 1370   3.933   0.351   1.333
  389HOH      O 1371   3.243   2.674   2.325
  389HOH     H1 1372   3.152   2.685   2.298
  389HOH     H2 1373   3.269   2.759   2.360
  390HOH      O 1374   1.510   1.395   0.428
  390HOH     H1 1375   1.454   1.350   0.365
  390HOH     H2 1376   1.565   1.452   0.375
  391HOH      O 1377   0.691   2.924   3.794
  391HOH     H1 1378   0.671   2.995   3.854
  391HOH     H2 1379   0.726   2.855   3.850
  392HOH      O 1380   3.140   1.383   2.208
  392HOH     H1 1381   3.119   1.453   2.146
  392HOH     H2 1382   3.227   1.353   2.182
  393HOH      O 1383   2.243   1.539   3.504
  393HOH     H1 1384   2.178   1.609   3.495
  393HOH     H2 1385   2.217   1.494   3.585
  394HOH      O 1386   2.755   2.347   1.448
  394HOH     H1 1387   2.834   2.323   1.399
  394HOH     H2 1388   2.691   2.280   1.425
  395HOH      O 1389   3.472   3.503   3.218
  395HOH     H1 1390   3.451   3.491   3.311
  395HOH     H2 1391   3.549   3.449   3.203
  396HOH      O 1392   1.586   3.355   1.811
  396HOH     H1 1393   1.641   3.381   1.737
  396HOH     H2 1394   1.626   3.274   1.843
  397HOH      O 1395   2.822   3.859   2.995
  397HOH     H1 1396   2.796   3.855   2.903
  397HOH     H2 1397   2.833   3.767   3.021
  398HOH      O 1398   2.030   2.896   2.365
  398HOH     H1 1399   2.081   2.976   2.370
  398HOH     H2 1400   1.940   2.926   2.356
  399HOH      O 1401   0.411   3.161   2.582
  399HOH     H1 1402   0.351   3.087   2.571
  399HOH     H2 1403   0.354   3.235   2.601
  400HOH      O 1404   3.106   1.215   1.892
  400HOH     H1 1405   3.075   1.137   1.848
  400HOH     H2 1406   3.159   1.183   1.965
  401HOH      O 1407   3.924   2.169   0.106
  401HOH     H1 1408   3.889   2.182   0.018
  401HOH     H2 1409   3.945   2.076   0.111
  402HOH      O 1410   2.724   3.085   1.393
  402HOH     H1 1411   2.686   3.000   1.371
  402HOH     H2 1412   2.739   3.127   1.309
  403HOH      O 1413   0.873   4.021   2.756
  403HOH     H1 1414   0.865   4.012   2.851
  403HOH     H2 1415   0.862   3.932   2.722
  404HOH      O 1416   2.251   3.493   3.518
  404HOH     H1 1417   2.309   3.476   3.592
  404HOH     H2 1418   2.275   3.581   3.489
  405HOH      O 1419   3.763   0.743   2.097
  405HOH     H1 1420   3.713   0.735   2.178
  405HOH     H2 1421   3.802   0.656   2.085
  406HOH      O 1422   0.522   1.905   1.496
  406HOH     H1 1423   0.482   1.987   1.526
  406HOH     H2 1424   0.508   1.905   1.401
  407HOH      O 1425   2.077   3.957   3.134
  407HOH     H1 1426   2.024   3.958   3.214
  407HOH     H2 1427   2.107   4.048   3.125
  408HOH      O 1428   0.101   0.473   2.963
  408HOH     H1 1429   0.175   0.431   2.920
  408HOH     H2 1430   0.048   0.508   2.892
  409HOH      O 1431   2.611   1.539   3.534
  409HOH     H1 1432   2.610   1.484   3.456
  409HOH     H2 1433   2.519   1.544   3.561
  410HOH      O 1434   1.217   0.013   3.274
  410HOH     H1 1435   1.293  -0.000   3.217
  410HOH     H2 1436   1.160   0.073   3.224
  411HOH      O 1437   0.584   2.544   0.697
  411HOH     H1 1438   0.525   2.604   0.741
  411HOH     H2 1439   0.671   2.566   0.731
  412HOH      O 1440   2.263   0.926   0.624
  412HOH     H1 1441   2.348   0.881   0.623
  412HOH     H2 1442   2.199   0.856   0.614
  413HOH      O 1443   1.477   2.260   0.440
  413HOH     H1 1444   1.529   2.215   0.506
  413HOH     H2 1445   1.538   2.320   0.398
  414HOH      O 1446   2.915   3.692   2.760
  414HOH     H1 1447   2.858   3.633   2.709
  414HOH     H2 1448   2.923   3.650   2.845
  415HOH      O 1449   0.845   1.493   1.015
  415HOH     H1 1450   0.821   1.578   1.053
  415HOH     H2 1451   0.904   1.515   0.943
  416HOH      O 1452   2.615   0.242   3.800
  416HOH     H1 1453   2.677   0.244   3.873
  416HOH     H2 1454   2.590   0.333   3.786
  417HOH      O 1455   0.948   2.003   2.339
  417HOH     H1 1456   0.898   2.084   2.337
  417HOH     H2 1457   0.887   1.938   2.376
  418HOH      O 1458   0.705   0.068   2.552
  418HOH     H1 1459   0.782   0.035   2.598
  418HOH     H2 1460   0.635   0.065   2.618
  419HOH      O 1461   0.700   2.510   1.445
  419HOH     H1 1462   0.641   2.576   1.410
  419HOH     H2 1463   0.643   2.436   1.465
  420HOH      O 1464   1.228   0.841   2.122
  420HOH     H1 1465   1.141   0.802   2.111
  420HOH     H2 1466   1.283   0.796   2.057
  421HOH      O 1467   1.985   0.432   1.441
  421HOH     H1 1468   2.077   0.446   1.463
  421HOH     H2 1469   1.950   0.521   1.430
  422HOH      O 1470   0.673   2.840   1.573
  422HOH     H1 1471   0.597   2.855   1.629
  422HOH     H2 1472   0.642   2.781   1.505
  423HOH      O 1473   2.602   1.097   3.850
  423HOH     H1 1474   2.672   1.032   3.855
  423HOH     H2 1475   2.646   1.177   3.821
  424HOH      O 1476   3.020   4.037   3.167
  424HOH     H1 1477   3.007   3.961   3.109
  424HOH     H2 1478   2.972   4.108   3.124
  425HOH      O 1479   2.979   0.876   1.531
  425HOH     H1 1480   3.075   0.878   1.531
  425HOH     H2 1481   2.957   0.783   1.531
  426HOH      O 1482   2.719   1.484   4.060
  426HOH     H1 1483   2.645   1.429   4.033
  426HOH     H2 1484   2.749   1.524   3.978
  427HOH      O 1485   0.617   0.526   2.019
  427HOH     H1 1486   0.532   0.543   2.058
  427HOH     H2 1487   0.607   0.442   1.976
  428HOH      O 1488   3.610   3.171   1.797
  428HOH     H1 1489   3.593   3.093   1.745
  428HOH     H2 1490   3.560   3.241   1.752
  429HOH      O 1491   3.738   1.642   0.175
  429HOH     H1 1492   3.643   1.635   0.190
  429HOH     H2 1493   3.776   1.578   0.236
  430HOH      O 1494   1.968   0.665   3.228
  430HOH     H1 1495   1.959   0.669   3.133
  430HOH     H2 1496   1.877   0.669   3.260
  431HOH      O 1497   1.318   3.638   0.970
  431HOH     H1 1498   1.324   3.608   1.061
  431HOH     H2 1499   1.277   3.565   0.924
  432HOH      O 1500   3.792   1.121   2.151
  432HOH     H1 1501   3.716   1.063   2.149
  432HOH     H2 1502   3.757   1.206   2.125
  433HOH      O 1503   2.438   3.404   3.717
  433HOH     H1 1504   2.517   3.354   3.694
  433HOH     H2 1505   2.421   3.380   3.809
  434HOH      O 1506   3.517   1.882   2.547
  434HOH     H1 1507   3.559   1.950   2.600
  434HOH     H2 1508   3.491   1.815   2.610
  435HOH      O 1509   3.596   1.521   3.299
  435HOH     H1 1510   3.545   1.444   3.326
  435HOH     H2 1511   3.655   1.488   3.231
  436HOH      O 1512   0.311   1.204   3.289
  436HOH     H1 1513   0.292   1.242   3.203
  436HOH     H2 1514   0.239   1.233   3.345
  437HOH      O 1515   2.661   2.863   0.403
  437HOH     H1 1516   2.648   2.930   0.336
  437HOH     H2 1517   2.736   2.894   0.454
  438HOH      O 1518   1.744   1.102   2.712
  438HOH     H1 1519   1.788   1.171   2.761
  438HOH     H2 1520   1.799   1.087   2.635
  439HOH      O 1521   2.606   0.777   0.343
  439HOH     H1 1522   2.531   0.835   0.359
  439HOH     H2 1523   2.587   0.737   0.258
  440HOH      O 1524   2.440   2.825   3.080
  440HOH     H1 1525   2.509   2.759   3.081
  440HOH     H2 1526   2.466   2.886   3.011
  441HOH      O 1527   3.351   0.202   0.910
  441HOH     H1 1528   3.388   0.196   0.998
  441HOH     H2 1529   3.387   0.283   0.874
  442HOH      O 1530   1.512   0.639   2.723
  442HOH     H1 1531   1.591   0.682   2.689
  442HOH     H2 1532   1.541   0.550   2.745
  443HOH      O 1533   2.920   2.315   0.454
  443HOH     H1 1534   2.942   2.382   0.519
  443HOH     H2 1535   2.839   2.347   0.413
  444HOH      O 1536   3.998   0.502   2.186
  444HOH     H1 1537   4.054   0.485   2.111
  444HOH     H2 1538   3.939   0.427   2.190
  445HOH      O 1539   3.917   3.042   1.972
  445HOH     H1 1540   3.890   3.027   1.881
  445HOH     H2 1541   3.897   2.960   2.017
  446HOH      O 1542   2.047   1.297   0.232
  446HOH     H1 1543   2.060   1.250   0.314
  446HOH     H2 1544   2.078   1.386   0.249
  447HOH      O 1545   2.993   2.538   3.689
  447HOH     H1 1546   2.977   2.479   3.762
  447HOH     H2 1547   2.925   2.518   3.625
  448HOH      O 1548   2.721   0.582   2.065
  448HOH     H1 1549   2.781   0.603   1.993
  448HOH     H2 1550   2.655   0.526   2.025
  449HOH      O 1551   3.513   1.040   2.587
  449HOH     H1 1552   3.504   0.950   2.619
  449HOH     H2 1553   3.595   1.039   2.537
  450HOH      O 1554   2.471   1.918   0.927
  450HOH     H1 1555   2.523   1.852   0.880
  450HOH     H2 1556   2.497   2.001   0.888
  451HOH      O 1557   3.283   2.139   3.753
  451HOH     H1 1558   3.280   2.155   3.658
  451HOH     H2 1559   3.227   2.063   3.766
  452HOH      O 1560   1.088   3.299   2.229
  452HOH     H1 1561   1.166   3.335   2.188
  452HOH     H2 1562   1.072   3.355   2.305
  453HOH      O 1563   2.189   0.682   0.967
  453HOH     H1 1564   2.132   0.605   0.964
  453HOH     H2 1565   2.129   0.756   0.969
  454HOH      O 1566   2.745   1.015   1.633
  454HOH     H1 1567   2.810   0.970   1.580
  454HOH     H2 1568   2.758   0.981   1.721
  455HOH      O 1569   1.718   3.943   0.423
  455HOH     H1 1570   1.767   3.878   0.372
  455HOH     H2 1571   1.757   3.940   0.510
  456HOH      O 1572   3.254   3.049   3.947
  456HOH     H1 1573   3.306   3.080   4.021
  456HOH     H2 1574   3.296   3.087   3.870
  457HOH      O 1575   2.720   1.483   2.859
  457HOH     H1 1576   2.654   1.446   2.799
  457HOH     H2 1577   2.739   1.411   2.920
  458HOH      O 1578   1.619   0.712   0.066
  458HOH     H1 1579   1.582   0.671  -0.012
  458HOH     H2 1580   1.650   0.639   0.120
  459HOH      O 1581   2.513   1.916   2.516
  459HOH     H1 1582   2.494   1.884   2.604
  459HOH     H2 1583   2.598   1.877   2.495
  460HOH      O 1584   0.651   2.366   3.308
  460HOH     H1 1585   0.737   2.370   3.267
  460HOH     H2 1586   0.623   2.457   3.313
  461HOH      O 1587   2.351   0.909   0.268
  461HOH     H1 1588   2.373   0.981   0.208
  461HOH     H2 1589   2.266   0.877   0.236
  462HOH      O 1590   0.080   2.309   0.300
  462HOH     H1 1591   0.021   2.284   0.229
  462HOH     H2 1592   0.069   2.241   0.366
  463HOH      O 1593   0.575   2.616   3.329
  463HOH     H1 1594   0.604   2.697   3.287
  463HOH     H2 1595   0.497   2.590   3.280
  464HOH      O 1596   1.978   2.662   3.440
  464HOH     H1 1597   2.017   2.575   3.430
  464HOH     H2 1598   2.050   2.722   3.422
  465HOH      O 1599   3.895   1.874   3.486
  465HOH     H1 1600   3.912   1.929   3.410
  465HOH     H2 1601   3.863   1.792   3.450
  466HOH      O 1602   0.424   3.571   2.666
  466HOH     H1 1603   0.437   3.632   2.739
  466HOH     H2 1604   0.455   3.618   2.589
  467HOH      O 1605   3.387   1.271   2.191
  467HOH     H1 1606   3.471   1.247   2.151
  467HOH     H2 1607   3.333   1.193   2.180
  468HOH      O 1608   0.399   0.925   1.168
  468HOH     H1 1609   0.360   0.936   1.081
  468HOH     H2 1610   0.445   1.008   1.184
  469HOH      O 1611   3.417   1.162   2.921
  469HOH     H1 1612   3.372   1.089   2.879
  469HOH     H2 1613   3.493   1.122   2.963
  470HOH      O 1614   2.278   2.426   2.208
  470HOH     H1 1615   2.262   2.351   2.151
  470HOH     H2 1616   2.242   2.501   2.159
  471HOH      O 1617   3.665   2.104   2.377
  471HOH     H1 1618   3.721   2.119   2.453
  471HOH     H2 1619   3.645   2.010   2.379
  472HOH      O 1620   0.481   0.241   0.628
  472HOH     H1 1621   0.506   0.289   0.707
  472HOH     H2 1622   0.456   0.154   0.661
  473HOH      O 1623   2.286   2.181   3.924
  473HOH     H1 1624   2.311   2.273   3.928
  473HOH     H2 1625   2.319   2.151   3.839
  474HOH      O 1626   3.484   1.671   1.331
  474HOH     H1 1627   3.518   1.728   1.262
  474HOH     H2 1628   3.414   1.622   1.288
  475HOH      O 1629   3.909   1.140   1.087
  475HOH     H1 1630   3.959   1.156   1.167
  475HOH     H2 1631   3.929   1.049   1.065
  476HOH      O 1632   2.265   0.620   2.989
  476HOH     H1 1633   2.304   0.638   2.903
  476HOH     H2 1634   2.307   0.682   3.048
  477HOH      O 1635   2.184   0.631   0.330
  477HOH     H1 1636   2.238   0.572   0.381
  477HOH     H2 1637   2.164   0.704   0.389
  478HOH      O 1638   3.642   2.171   0.497
  478HOH     H1 1639   3.654   2.076   0.499
  478HOH     H2 1640   3.585   2.189   0.571
  479HOH      O 1641   0.570   3.968   3.823
  479HOH     H1 1642   0.590   3.929   3.908
  479HOH     H2 1643   0.652   3.963   3.775
  480HOH      O 1644   1.255   2.374   2.571
  480HOH     H1 1645   1.318   2.324   2.520
  480HOH     H2 1646   1.181   2.387   2.511
  481HOH      O 1647   2.492   1.281   3.635
  481HOH     H1 1648   2.536   1.275   3.550
  481HOH     H2 1649   2.406   1.242   3.620
  482HOH      O 1650   1.013   0.824   2.985
  482HOH     H1 1651   1.002   0.730   2.998
  482HOH     H2 1652   1.083   0.848   3.046
  483HOH      O 1653   1.473   3.077   2.583
  483HOH     H1 1654   1.427   3.078   2.667
  483HOH     H2 1655   1.474   3.169   2.554
  484HOH      O 1656   2.660   2.568   1.600
  484HOH     H1 1657   2.572   2.583   1.564
  484HOH     H2 1658   2.690   2.488   1.557
  485HOH      O 1659   1.680   1.186   1.786
  485HOH     H1 1660   1.659   1.278   1.771
  485HOH     H2 1661   1.767   1.174   1.748
  486HOH      O 1662   1.558   1.839   0.994
  486HOH     H1 1663   1.633   1.834   1.052
  486HOH     H2 1664   1.514   1.754   1.005
  487HOH      O 1665   2.528   2.642   1.886
  487HOH     H1 1666   2.603   2.678   1.839
  487HOH     H2 1667   2.560   2.626   1.974
  488HOH      O 1668   3.221   3.821   2.191
  488HOH     H1 1669   3.268   3.867   2.261
  488HOH     H2 1670   3.219   3.730   2.219
  489HOH      O 1671   0.365   0.577   0.473
  489HOH     H1 1672   0.280   0.574   0.518
  489HOH     H2 1673   0.429   0.587   0.544
  490HOH      O 1674   0.125   0.829   0.573
  490HOH     H1 1675   0.161   0.746   0.603
  490HOH     H2 1676   0.162   0.840   0.485
  491HOH      O 1677   0.540   0.404   3.158
  491HOH     H1 1678   0.452   0.432   3.182
  491HOH     H2 1679   0.586   0.486   3.137
  492HOH      O 1680   1.702   3.866   1.250
  492HOH     H1 1681   1.731   3.821   1.329
  492HOH     H2 1682   1.724   3.807   1.178
  493HOH      O 1683   3.633   0.994   1.212
  493HOH     H1 1684   3.709   0.971   1.266
  493HOH     H2 1685   3.663   1.070   1.160
  494HOH      O 1686   2.270   2.122   0.162
  494HOH     H1 1687   2.281   2.182   0.088
  494HOH     H2 1688   2.354   2.124   0.207
  495HOH      O 1689   3.462   0.678   1.588
  495HOH     H1 1690   3.421   0.678   1.675
  495HOH     H2 1691   3.554   0.697   1.605
  496HOH      O 1692   1.314   3.788   2.577
  496HOH     H1 1693   1.382   3.727   2.604
  496HOH     H2 1694   1.327   3.865   2.634
  497HOH      O 1695   2.930   3.615   3.039
  497HOH     H1 1696   2.918   3.537   3.093
  497HOH     H2 1697   3.018   3.646   3.061
  498HOH      O 1698   1.839   1.617   3.202
  498HOH     H1 1699   1.767   1.642   3.261
  498HOH     H2 1700   1.850   1.524   3.217
  499HOH      O 1701   2.864   2.194   1.693
  499HOH     H1 1702   2.795   2.182   1.758
  499HOH     H2 1703   2.819   2.231   1.617
  500HOH      O 1704   1.507   0.200   3.273
  500HOH     H1 1705   1.483   0.203   3.366
  500HOH     H2 1706   1.556   0.118   3.264
  501HOH      O 1707   2.582   2.865   1.342
  501HOH     H1 1708   2.488   2.847   1.339
  501HOH     H2 1709   2.623   2.781   1.325
  502HOH      O 1710   3.359   2.717   1.227
  502HOH     H1 1711   3.333   2.785   1.165
  502HOH     H2 1712   3.283   2.709   1.285
  503HOH      O 1713   0.381   1.756   2.026
  503HOH     H1 1714   0.439   1.693   2.069
  503HOH     H2 1715   0.436   1.797   1.959
  504HOH      O 1716   3.197   2.802   3.081
  504HOH     H1 1717   3.282   2.814   3.039
  504HOH     H2 1718   3.143   2.873   3.048
  505HOH      O 1719   1.901   3.802   2.512
  505HOH     H1 1720   1.916   3.758   2.596
  505HOH     H2 1721   1.975   3.776   2.458
  506HOH      O 1722   0.679   0.180   1.242
  506HOH     H1 1723   0.723   0.259   1.209
  506HOH     H2 1724   0.597   0.177   1.193
  507HOH      O 1725   0.252   2.358   1.281
  507HOH     H1 1726   0.264   2.410   1.203
  507HOH     H2 1727   0.169   2.388   1.318
  508HOH      O 1728   2.110   1.372   1.212
  508HOH     H1 1729   2.134   1.289   1.253
  508HOH     H2 1730   2.187   1.397   1.162
  509HOH      O 1731   2.847   2.156   0.709
  509HOH     H1 1732   2.857   2.199   0.624
  509HOH     H2 1733   2.872   2.065   0.693
  510HOH      O 1734   1.028   0.681   0.148
  510HOH     H1 1735   0.937   0.655   0.137
  510HOH     H2 1736   1.058   0.635   0.226
  511HOH      O 1737   1.770   1.784   2.235
  511HOH     H1 1738   1.707   1.852   2.211
  511HOH     H2 1739   1.802   1.810   2.321
  512HOH      O 1740   2.008   1.791   1.136
  512HOH     H1 1741   2.075   1.722   1.133
  512HOH     H2 1742   2.032   1.850   1.064
  513HOH      O 1743   0.565   2.707   1.340
  513HOH     H1 1744   0.475   2.708   1.306
  513HOH     H2 1745   0.621   2.713   1.263
  514HOH      O 1746   0.337   0.688   3.843
  514HOH     H1 1747   0.344   0.679   3.938
  514HOH     H2 1748   0.426   0.669   3.811
  515HOH      O 1749   0.141   2.680   1.591
  515HOH     H1 1750   0.231   2.651   1.579
  515HOH     H2 1751   0.093   2.601   1.617
  516HOH      O 1752   1.931   0.332   3.326
  516HOH     H1 1753   1.995   0.271   3.289
  516HOH     H2 1754   1.945   0.326   3.420
  517HOH      O 1755   1.497   2.529   2.576
  517HOH     H1 1756   1.413   2.515   2.619
  517HOH     H2 1757   1.487   2.487   2.490
  518HOH      O 1758   1.477   2.828   1.526
  518HOH     H1 1759   1.432   2.765   1.582
  518HOH     H2 1760   1.456   2.914   1.564
  519HOH      O 1761   1.353   0.433   1.513
  519HOH     H1 1762   1.327   0.349   1.475
  519HOH     H2 1763   1.440   0.449   1.478
  520HOH      O 1764   1.457   1.738   0.056
  520HOH     H1 1765   1.373   1.753   0.012
  520HOH     H2 1766   1.480   1.648   0.034
  521HOH      O 1767   1.197   2.623   3.893
  521HOH     H1 1768   1.239   2.666   3.967
  521HOH     H2 1769   1.229   2.671   3.816
  522HOH      O 1770   1.764   2.752   3.278
  522HOH     H1 1771   1.714   2.685   3.325
  522HOH     H2 1772   1.848   2.756   3.324
  523HOH      O 1773   2.916   2.049   3.145
  523HOH     H1 1774   2.974   1.984   3.106
  523HOH     H2 1775   2.898   2.110   3.075
  524HOH      O 1776   3.422   1.435   0.507
  524HOH     H1 1777   3.331   1.418   0.531
  524HOH     H2 1778   3.436   1.383   0.428
  525HOH      O 1779   0.687   2.698   1.059
  525HOH     H1 1780   0.765   2.732   1.014
  525HOH     H2 1781   0.616   2.708   0.996
  526HOH      O 1782   3.312   0.700   1.828
  526HOH     H1 1783   3.224   0.683   1.861
  526HOH     H2 1784   3.365   0.714   1.907
  527HOH      O 1785   0.888   1.788   1.608
  527HOH     H1 1786   0.976   1.803   1.576
  527HOH     H2 1787   0.857   1.875   1.636
  528HOH      O 1788   2.441   3.620   2.605
  528HOH     H1 1789   2.480   3.631   2.518
  528HOH     H2 1790   2.415   3.709   2.630
  529HOH      O 1791   0.675   0.026   0.865
  529HOH     H1 1792   0.584   0.044   0.890
  529HOH     H2 1793   0.691  -0.063   0.896
  530HOH      O 1794   1.763   3.737   1.472
  530HOH     H1 1795   1.742   3.769   1.559
  530HOH     H2 1796   1.857   3.750   1.463
  531HOH      O 1797   0.161   2.199   3.836
  531HOH     H1 1798   0.156   2.105   3.816
  531HOH     H2 1799   0.077   2.234   3.808
  532HOH      O 1800   1.533   0.254   4.009
  532HOH     H1 1801   1.575   0.233   4.092
  532HOH     H2 1802   1.548   0.178   3.953
  533HOH      O 1803   0.125   0.534   1.745
  533HOH     H1 1804   0.053   0.573   1.694
  533HOH     H2 1805   0.083   0.501   1.824
  534HOH      O 1806   3.734   0.356   2.850
  534HOH     H1 1807   3.829   0.353   2.863
  534HOH     H2 1808   3.718   0.299   2.775
  535HOH      O 1809   2.055   0.909   2.368
  535HOH     H1 1810   2.081   0.930   2.278
  535HOH     H2 1811   2.001   0.831   2.361
  536HOH      O 1812   2.843   0.924   1.086
  536HOH     H1 1813   2.831   1.014   1.117
  536HOH     H2 1814   2.762   0.903   1.041
  537HOH      O 1815   3.911   1.326   1.367
  537HOH     H1 1816   3.919   1.420   1.351
  537HOH     H2 1817   3.855   1.319   1.444
  538HOH      O 1818   0.388   1.428   0.895
  538HOH     H1 1819   0.425   1.516   0.907
  538HOH     H2 1820   0.434   1.393   0.819
  539HOH      O 1821   0.870   1.236   0.929
  539HOH     H1 1822   0.958   1.228   0.966
  539HOH     H2 1823   0.839   1.321   0.959
  540HOH      O 1824   2.424   3.077   1.202
  540HOH     H1 1825   2.364   3.021   1.251
  540HOH     H2 1826   2.509   3.033   1.209
  541HOH      O 1827   0.248   0.740   1.895
  541HOH     H1 1828   0.205   0.699   1.819
  541HOH     H2 1829   0.176   0.781   1.943
  542HOH      O 1830   1.552   2.933   2.029
  542HOH     H1 1831   1.505   3.011   2.002
  542HOH     H2 1832   1.635   2.937   1.982
  543HOH      O 1833   1.671   3.598   1.101
  543HOH     H1 1834   1.732   3.532   1.066
  543HOH     H2 1835   1.632   3.556   1.178
  544HOH      O 1836   0.563   1.336   2.186
  544HOH     H1 1837   0.581   1.417   2.138
  544HOH     H2 1838   0.487   1.298   2.140
  545HOH      O 1839   0.974   3.521   2.448
  545HOH     H1 1840   0.951   3.514   2.541
  545HOH     H2 1841   1.008   3.610   2.439
  546HOH      O 1842   1.278   1.102   3.795
  546HOH     H1 1843   1.340   1.030   3.795
  546HOH     H2 1844   1.195   1.063   3.770
  547HOH      O 1845   2.917   0.969   2.398
  547HOH     H1 1846   3.006   1.004   2.386
  547HOH     H2 1847   2.893   0.935   2.312
  548HOH      O 1848   2.518   3.456   0.232
  548HOH     H1 1849   2.450   3.447   0.299
  548HOH     H2 1850   2.542   3.549   0.236
  549HOH      O 1851   3.183   3.006   1.953
  549HOH     H1 1852   3.255   2.949   1.981
  549HOH     H2 1853   3.195   3.016   1.859
  550HOH      O 1854   2.288   1.342   3.333
  550HOH     H1 1855   2.196   1.351   3.306
  550HOH     H2 1856   2.297   1.402   3.406
  551HOH      O 1857   0.496   3.488   3.131
  551HOH     H1 1858   0.573   3.477   3.187
  551HOH     H2 1859   0.471   3.579   3.143
  552HOH      O 1860   2.649   2.655   3.047
  552HOH     H1 1861   2.668   2.586   2.984
  552HOH     H2 1862   2.665   2.614   3.132
  553HOH      O 1863   3.566   3.027   3.348
  553HOH     H1 1864   3.599   3.111   3.380
  553HOH     H2 1865   3.498   3.003   3.411
  554HOH      O 1866   3.263   1.637   1.166
  554HOH     H1 1867   3.287   1.715   1.116
  554HOH     H2 1868   3.235   1.573   1.100
  555HOH      O 1869   0.103   1.808   0.404
  555HOH     H1 1870   0.176   1.868   0.421
  555HOH     H2 1871   0.090   1.812   0.310
  556HOH      O 1872   0.893   3.739   1.619
  556HOH     H1 1873   0.827   3.803   1.644
  556HOH     H2 1874   0.956   3.741   1.691
  557HOH      O 1875   1.375   0.457   2.173
  557HOH     H1 1876   1.364   0.450   2.078
  557HOH     H2 1877   1.300   0.509   2.202
  558HOH      O 1878   0.097   1.748   1.979
  558HOH     H1 1879   0.100   1.709   1.891
  558HOH     H2 1880   0.187   1.743   2.010
  559HOH      O 1881   2.235   2.882   1.324
  559HOH     H1 1882   2.272   2.872   1.412
  559HOH     H2 1883   2.191   2.799   1.306
  560HOH      O 1884   0.317   3.041   3.158
  560HOH     H1 1885   0.336   2.996   3.241
  560HOH     H2 1886   0.335   3.133   3.177
  561HOH      O 1887   2.691   2.977   0.939
  561HOH     H1 1888   2.765   2.938   0.893
  561HOH     H2 1889   2.645   3.028   0.873
  562HOH      O 1890   3.048   1.831   1.596
  562HOH     H1 1891   3.023   1.804   1.684
  562HOH     H2 1892   3.072   1.749   1.552
  563HOH      O 1893   3.195   0.501   0.451
  563HOH     H1 1894   3.117   0.465   0.408
  563HOH     H2 1895   3.269   0.458   0.407
  564HOH      O 1896   0.519   1.750   0.509
  564HOH     H1 1897   0.518   1.712   0.421
  564HOH     H2 1898   0.449   1.815   0.508
  565HOH      O 1899   1.657   3.056   2.299
  565HOH     H1 1900   1.616   2.996   2.362
  565HOH     H2 1901   1.617   3.034   2.215
  566HOH      O 1902   1.337   0.139   2.501
  566HOH     H1 1903   1.412   0.127   2.559
  566HOH     H2 1904   1.364   0.210   2.442
  567HOH      O 1905   2.885   1.428   3.357
  567HOH     H1 1906   2.925   1.347   3.327
  567HOH     H2 1907   2.959   1.482   3.387
  568HOH      O 1908   0.543   1.363   1.658
  568HOH     H1 1909   0.629   1.349   1.618
  568HOH     H2 1910   0.507   1.275   1.667
  569HOH      O 1911   2.418   2.038   1.609
  569HOH     H1 1912   2.502   2.081   1.626
  569HOH     H2 1913   2.422   1.956   1.658
  570HOH      O 1914   2.926   0.588   3.173
  570HOH     H1 1915   2.945   0.496   3.159
  570HOH     H2 1916   2.845   0.588   3.226
  571HOH      O 1917   1.542   2.727   1.277
  571HOH     H1 1918   1.457   2.753   1.241
  571HOH     H2 1919   1.531   2.734   1.372
  572HOH      O 1920   0.708   0.241   3.610
  572HOH     H1 1921   0.736   0.305   3.675
  572HOH     H2 1922   0.747   0.158   3.640
  573HOH      O 1923   2.686   2.918   3.902
  573HOH     H1 1924   2.733   3.000   3.917
  573HOH     H2 1925   2.634   2.935   3.823
  574HOH      O 1926   0.937   2.536   0.513
  574HOH     H1 1927   0.869   2.561   0.450
  574HOH     H2 1928   0.893   2.541   0.598
  575HOH      O 1929   0.455   1.688   0.902
  575HOH     H1 1930   0.428   1.779   0.884
  575HOH     H2 1931   0.513   1.666   0.830
  576HOH      O 1932   1.832   1.324   3.786
  576HOH     H1 1933   1.868   1.235   3.791
  576HOH     H2 1934   1.741   1.314   3.814
  577HOH      O 1935   0.647   0.268   1.937
  577HOH     H1 1936   0.702   0.271   1.859
  577HOH     H2 1937   0.706   0.245   2.008
  578HOH      O 1938   2.975   3.652   0.115
  578HOH     H1 1939   3.059   3.696   0.116
  578HOH     H2 1940   2.962   3.621   0.205
  579HOH      O 1941   1.192   2.791   1.376
  579HOH     H1 1942   1.203   2.717   1.437
  579HOH     H2 1943   1.109   2.773   1.332
  580HOH      O 1944   3.796   2.058   1.430
  580HOH     H1 1945   3.785   1.981   1.486
  580HOH     H2 1946   3.788   2.024   1.340
  581HOH      O 1947   1.529   2.132   0.735
  581HOH     H1 1948   1.465   2.160   0.801
  581HOH     H2 1949   1.588   2.207   0.725
  582HOH      O 1950   3.918   1.657   2.503
  582HOH     H1 1951   3.825   1.669   2.484
  582HOH     H2 1952   3.961   1.663   2.417
  583HOH      O 1953   0.648   0.974   2.173
  583HOH     H1 1954   0.691   1.041   2.119
  583HOH     H2 1955   0.611   0.913   2.109
  584HOH      O 1956   1.490   2.161   3.856
  584HOH     H1 1957   1.480   2.250   3.891
  584HOH     H2 1958   1.504   2.106   3.933
  585HOH      O 1959   0.089   0.906   1.475
  585HOH     H1 1960   0.113   0.998   1.488
  585HOH     H2 1961   0.156   0.873   1.415
  586HOH      O 1962   1.410   2.935   0.628
  586HOH     H1 1963   1.322   2.925   0.665
  586HOH     H2 1964   1.433   2.848   0.597
  587HOH      O 1965   1.259   1.601   0.482
  587HOH     H1 1966   1.257   1.629   0.573
  587HOH     H2 1967   1.177   1.634   0.445
  588HOH      O 1968   3.934   2.032   2.503
  588HOH     H1 1969   3.922   2.120   2.539
  588HOH     H2 1970   3.913   1.973   2.575
  589HOH      O 1971   0.365   1.564   3.265
  589HOH     H1 1972   0.421   1.545   3.189
  589HOH     H2 1973   0.281   1.588   3.227
  590HOH      O 1974   2.723   0.278   1.872
  590HOH     H1 1975   2.798   0.274   1.813
  590HOH     H2 1976   2.665   0.208   1.843
  591HOH      O 1977   1.327   2.862   1.081
  591HOH     H1 1978   1.358   2.929   1.020
  591HOH     H2 1979   1.259   2.906   1.132
  592HOH      O 1980   2.306   3.784   4.055
  592HOH     H1 1981   2.370   3.851   4.079
  592HOH     H2 1982   2.346   3.737   3.982
  593HOH      O 1983   0.083   1.963   1.575
  593HOH     H1 1984   0.070   2.020   1.499
  593HOH     H2 1985   0.143   1.895   1.543
  594HOH      O 1986   2.957   1.418   0.171
  594HOH     H1 1987   3.026   1.478   0.142
  594HOH     H2 1988   2.890   1.423   0.104
  595HOH      O 1989   0.060   3.590   1.992
  595HOH     H1 1990   0.128   3.598   2.059
  595HOH     H2 1991  -0.015   3.551   2.038
  596HOH      O 1992   3.518   1.885   0.052
  596HOH     H1 1993   3.512   1.823   0.124
  596HOH     H2 1994   3.480   1.838  -0.023
  597HOH      O 1995   1.042   2.322   0.362
  597HOH     H1 1996   1.094   2.344   0.285
  597HOH     H2 1997   1.014   2.406   0.397
  598HOH      O 1998   3.247   3.955   3.548
  598HOH     H1 1999   3.216   3.927   3.634
  598HOH     H2 2000   3.341   3.966   3.559
  599HOH      O 2001   3.955   0.857   1.045
  599HOH     H1 2002   3.983   0.845   0.954
  599HOH     H2 2003   3.885   0.794   1.058
  600HOH      O 2004   4.019   2.136   1.092
  600HOH     H1 2005   4.016   2.221   1.048
  600HOH     H2 2006   3.928   2.107   1.095
  601HOH      O 2007   2.142   3.310   1.911
  601HOH     H1 2008   2.077   3.271   1.852
  601HOH     H2 2009   2.185   3.234   1.951
  602HOH      O 2010   0.209   0.348   1.152
  602HOH     H1 2011   0.288   0.314   1.192
  602HOH     H2 2012   0.225   0.340   1.058
  603HOH      O 2013   2.476   3.668   3.853
  603HOH     H1 2014   2.553   3.724   3.843
  603HOH     H2 2015   2.463   3.630   3.766
  604HOH      O 2016   2.007   3.451   2.911
  604HOH     H1 2017   2.063   3.374   2.901
  604HOH     H2 2018   1.970   3.465   2.823
  605HOH      O 2019   0.610   1.353   0.725
  605HOH     H1 2020   0.555   1.356   0.646
  605HOH     H2 2021   0.633   1.445   0.741
  606HOH      O 2022   0.123   0.970  -0.018
  606HOH     H1 2023   0.168   1.055  -0.018
  606HOH     H2 2024   0.086   0.964   0.070
  607HOH      O 2025   0.540   3.023   0.819
  607HOH     H1 2026   0.580   3.107   0.796
  607HOH     H2 2027   0.557   3.014   0.913
  608HOH      O 2028   0.432   2.902   1.967
  608HOH     H1 2029   0.410   2.885   1.876
  608HOH     H2 2030   0.404   2.824   2.014
  609HOH      O 2031   3.116   3.075   2.367
  609HOH     H1 2032   3.189   3.014   2.367
  609HOH     H2 2033   3.152   3.157   2.399
  610HOH      O 2034   3.863   0.040   1.696
  610HOH     H1 2035   3.869   0.034   1.601
  610HOH     H2 2036   3.799  -0.027   1.720
  611HOH      O 2037   1.587   2.802   3.017
  611HOH     H1 2038   1.628   2.757   3.091
  611HOH     H2 2039   1.538   2.734   2.971
  612HOH      O 2040   0.567   1.668   1.638
  612HOH     H1 2041   0.545   1.583   1.600
  612HOH     H2 2042   0.537   1.732   1.573
  613HOH      O 2043   0.533   0.201   2.385
  613HOH     H1 2044   0.575   0.140   2.445
  613HOH     H2 2045   0.577   0.284   2.399
  614HOH      O 2046   0.588   1.094   1.433
  614HOH     H1 2047   0.676   1.059   1.438
  614HOH     H2 2048   0.581   1.130   1.344
  615HOH      O 2049   3.840   3.562   1.465
  615HOH     H1 2050   3.755   3.533   1.430
  615HOH     H2 2051   3.865   3.494   1.527
  616HOH      O 2052   3.938   1.861   2.702
  616HOH     H1 2053   3.987   1.833   2.779
  616HOH     H2 2054   3.947   1.789   2.639
  617HOH      O 2055   0.127   3.517   1.374
  617HOH     H1 2056   0.112   3.487   1.463
  617HOH     H2 2057   0.044   3.503   1.329
  618HOH      O 2058   0.868   0.690   2.501
  618HOH     H1 2059   0.836   0.700   2.591
  618HOH     H2 2060   0.955   0.652   2.511
  619HOH      O 2061   2.724   3.775   1.711
  619HOH     H1 2062   2.772   3.717   1.770
  619HOH     H2 2063   2.744   3.741   1.623
  620HOH      O 2064   0.885   3.492   0.232
  620HOH     H1 2065   0.955   3.544   0.270
  620HOH     H2 2066   0.853   3.546   0.159
  621HOH      O 2067   1.388   1.269   1.158
  621HOH     H1 2068   1.450   1.242   1.226
  621HOH     H2 2069   1.433   1.340   1.112
  622HOH      O 2070  -0.012   3.128   3.403
  622HOH     H1 2071  -0.040   3.063   3.467
  622HOH     H2 2072   0.080   3.143   3.422
  623HOH      O 2073   3.345   3.091   1.446
  623HOH     H1 2074   3.367   3.184   1.454
  623HOH     H2 2075   3.429   3.045   1.456
  624HOH      O 2076   2.187   0.247   1.066
  624HOH     H1 2077   2.242   0.173   1.092
  624HOH     H2 2078   2.178   0.300   1.145
  625HOH      O 2079   0.893   2.866   3.262
  625HOH     H1 2080   0.916   2.843   3.352
  625HOH     H2 2081   0.858   2.955   3.269
  626HOH      O 2082   2.543   2.357   3.553
  626HOH     H1 2083   2.484   2.398   3.617
  626HOH     H2 2084   2.508   2.384   3.468
  627HOH      O 2085   2.658   2.987   2.122
  627HOH     H1 2086   2.733   2.971   2.064
  627HOH     H2 2087   2.697   3.008   2.207
  628HOH      O 2088   0.029   3.108   0.001
  628HOH     H1 2089   0.107   3.080   0.049
  628HOH     H2 2090  -0.044   3.063   0.044
  629HOH      O 2091   2.693   1.891   0.398
  629HOH     H1 2092   2.741   1.961   0.354
  629HOH     H2 2093   2.722   1.811   0.354
  630HOH      O 2094   0.128   2.989   2.212
  630HOH     H1 2095   0.033   2.987   2.201
  630HOH     H2 2096   0.160   3.044   2.140
  631HOH      O 2097   3.465   2.230   0.708
  631HOH     H1 2098   3.406   2.201   0.777
  631HOH     H2 2099   3.425   2.311   0.675
  632HOH      O 2100   1.755   0.175   1.514
  632HOH     H1 2101   1.737   0.264   1.545
  632HOH     H2 2102   1.702   0.119   1.572
  633HOH      O 2103   2.521   2.476   2.541
  633HOH     H1 2104   2.465   2.436   2.607
  633HOH     H2 2105   2.509   2.570   2.552
  634HOH      O 2106   3.405   0.803   1.223
  634HOH     H1 2107   3.457   0.741   1.274
  634HOH     H2 2108   3.469   0.860   1.181
  635HOH      O 2109   3.323   0.973   3.678
  635HOH     H1 2110   3.298   1.010   3.594
  635HOH     H2 2111   3.334   0.880   3.661
  636HOH      O 2112   2.125   0.885   3.887
  636HOH     H1 2113   2.156   0.975   3.880
  636HOH     H2 2114   2.167   0.838   3.815
  637HOH      O 2115   0.785   1.912   1.353
  637HOH     H1 2116   0.709   1.883   1.402
  637HOH     H2 2117   0.835   1.966   1.414
  638HOH      O 2118   3.200   1.194   0.680
  638HOH     H1 2119   3.171   1.266   0.624
  638HOH     H2 2120   3.296   1.203   0.682
  639HOH      O 2121   2.071   2.672   1.278
  639HOH     H1 2122   1.976   2.669   1.289
  639HOH     H2 2123   2.104   2.607   1.341
  640HOH      O 2124   1.462   0.034   0.754
  640HOH     H1 2125   1.450  -0.030   0.825
  640HOH     H2 2126   1.376   0.041   0.713
  641HOH      O 2127   0.266   0.817   3.242
  641HOH     H1 2128   0.229   0.862   3.166
  641HOH     H2 2129   0.193   0.768   3.279
  642HOH      O 2130   1.899   2.381   0.819
  642HOH     H1 2131   1.983   2.423   0.804
  642HOH     H2 2132   1.919   2.304   0.872
  643HOH      O 2133   2.282   2.529   3.572
  643HOH     H1 2134   2.304   2.503   3.483
  643HOH     H2 2135   2.197   2.488   3.589
  644HOH      O 2136   2.286   3.081   2.444
  644HOH     H1 2137   2.252   3.104   2.530
  644HOH     H2 2138   2.264   3.155   2.388
  645HOH      O 2139   2.472   0.418   1.279
  645HOH     H1 2140   2.449   0.506   1.306
  645HOH     H2 2141   2.565   0.409   1.303
  646HOH      O 2142   1.486   0.852   1.076
  646HOH     H1 2143   1.496   0.860   1.170
  646HOH     H2 2144   1.421   0.920   1.054
  647HOH      O 2145   2.539   2.721   1.008
  647HOH     H1 2146   2.565   2.813   1.011
  647HOH     H2 2147   2.529   2.702   0.915
  648HOH      O 2148   0.977   2.168   3.395
  648HOH     H1 2149   1.004   2.173   3.304
  648HOH     H2 2150   0.972   2.259   3.424
  649HOH      O 2151   2.820   2.449   1.928
  649HOH     H1 2152   2.889   2.386   1.949
  649HOH     H2 2153   2.852   2.494   1.850
  650HOH      O 2154   1.158   1.343   0.532
  650HOH     H1 2155   1.140   1.305   0.446
  650HOH     H2 2156   1.206   1.424   0.514
  651HOH      O 2157   1.286   1.150   3.082
  651HOH     H1 2158   1.372   1.156   3.124
  651HOH     H2 2159   1.294   1.204   3.003
  652HOH      O 2160   2.398   2.602   1.196
  652HOH     H1 2161   2.464   2.644   1.141
  652HOH     H2 2162   2.354   2.540   1.138
  653HOH      O 2163   3.324   2.744   2.820
  653HOH     H1 2164   3.337   2.670   2.880
  653HOH     H2 2165   3.361   2.819   2.865
  654HOH      O 2166   2.159   0.187   3.268
  654HOH     H1 2167   2.233   0.129   3.288
  654HOH     H2 2168   2.198   0.274   3.265
  655HOH      O 2169   2.146   0.505   2.476
  655HOH     H1 2170   2.101   0.450   2.540
  655HOH     H2 2171   2.238   0.498   2.499
  656HOH      O 2172   4.051   1.061   2.264
  656HOH     H1 2173   4.037   0.967   2.271
  656HOH     H2 2174   3.971   1.095   2.226
  657HOH      O 2175   1.514   3.239   1.293
  657HOH     H1 2176   1.439   3.185   1.318
  657HOH     H2 2177   1.502   3.256   1.200
  658HOH      O 2178   1.081  -0.017   0.269
  658HOH     H1 2179   1.023   0.030   0.329
  658HOH     H2 2180   1.060   0.019   0.183
  659HOH      O 2181   4.022   0.339   1.922
  659HOH     H1 2182   3.989   0.297   1.842
  659HOH     H2 2183   4.062   0.268   1.972
  660HOH      O 2184   1.760   1.925   3.959
  660HOH     H1 2185   1.729   1.977   4.033
  660HOH     H2 2186   1.768   1.988   3.887
  661HOH      O 2187   2.251   0.257   1.342
  661HOH     H1 2188   2.296   0.207   1.410
  661HOH     H2 2189   2.315   0.323   1.314
  662HOH      O 2190   0.140   4.006   1.215
  662HOH     H1 2191   0.072   4.071   1.198
  662HOH     H2 2192   0.205   4.022   1.147
  663HOH      O 2193   0.223   2.430   3.481
  663HOH     H1 2194   0.311   2.391   3.480
  663HOH     H2 2195   0.164   2.355   3.468
  664HOH      O 2196   3.821   2.856   3.739
  664HOH     H1 2197   3.742   2.814   3.707
  664HOH     H2 2198   3.801   2.879   3.830
  665HOH      O 2199   1.952   0.248   0.915
  665HOH     H1 2200   1.901   0.172   0.943
  665HOH     H2 2201   2.038   0.236   0.955
  666HOH      O 2202   0.143   0.582   0.701
  666HOH     H1 2203   0.185   0.543   0.778
  666HOH     H2 2204   0.057   0.541   0.698
  667HOH      O 2205   3.484   0.133   2.790
  667HOH     H1 2206   3.550   0.065   2.805
  667HOH     H2 2207   3.403   0.097   2.827
  668HOH      O 2208   3.797   0.265   0.341
  668HOH     H1 2209   3.744   0.195   0.303
  668HOH     H2 2210   3.838   0.308   0.266
  669HOH      O 2211   0.139   1.870   0.737
  669HOH     H1 2212   0.048   1.849   0.756
  669HOH     H2 2213   0.183   1.785   0.730
  670HOH      O 2214   2.178   0.497   1.628
  670HOH     H1 2215   2.155   0.585   1.597
  670HOH     H2 2216   2.100   0.466   1.673
  671HOH      O 2217   0.903   0.458   0.973
  671HOH     H1 2218   0.929   0.457   0.881
  671HOH     H2 2219   0.915   0.367   1.001
  672HOH      O 2220   0.299   2.703   3.516
  672HOH     H1 2221   0.300   2.609   3.498
  672HOH     H2 2222   0.207   2.726   3.521
  673HOH      O 2223   0.488   1.980   3.472
  673HOH     H1 2224   0.491   1.976   3.567
  673HOH     H2 2225   0.464   1.891   3.445
  674HOH      O 2226   3.732   0.911   3.611
  674HOH     H1 2227   3.670   0.982   3.597
  674HOH     H2 2228   3.766   0.925   3.699
  675HOH      O 2229   0.605   3.060   2.958
  675HOH     H1 2230   0.629   2.969   2.972
  675HOH     H2 2231   0.510   3.059   2.951
  676HOH      O 2232   3.707   1.709   2.886
  676HOH     H1 2233   3.755   1.791   2.891
  676HOH     H2 2234   3.641   1.723   2.818
  677HOH      O 2235   3.983   2.711   2.576
  677HOH     H1 2236   4.072   2.691   2.605
  677HOH     H2 2237   3.982   2.807   2.568
  678HOH      O 2238   0.792   1.424   0.464
  678HOH     H1 2239   0.857   1.495   0.464
  678HOH     H2 2240   0.805   1.381   0.548
  679HOH      O 2241   2.420   0.364   1.661
  679HOH     H1 2242   2.495   0.424   1.652
  679HOH     H2 2243   2.343   0.421   1.656
  680HOH      O 2244   3.174   1.118   0.322
  680HOH     H1 2245   3.086   1.120   0.285
  680HOH     H2 2246   3.231   1.098   0.248
  681HOH      O 2247   0.266   2.553   1.068
  681HOH     H1 2248   0.209   2.616   1.112
  681HOH     H2 2249   0.250   2.568   0.975
  682HOH      O 2250   0.019   2.397   2.131
  682HOH     H1 2251   0.095   2.345   2.158
  682HOH     H2 2252  -0.056   2.338   2.140
  683HOH      O 2253   0.343   0.300   2.539
  683HOH     H1 2254   0.345   0.390   2.506
  683HOH     H2 2255   0.396   0.250   2.478
  684HOH      O 2256   0.960   0.609   0.417
  684HOH     H1 2257   1.003   0.551   0.480
  684HOH     H2 2258   0.910   0.549   0.361
  685HOH      O 2259   0.842   1.610   0.053
  685HOH     H1 2260   0.828   1.586  -0.039
  685HOH     H2 2261   0.754   1.606   0.092
  686HOH      O 2262   1.541   1.126   2.038
  686HOH     H1 2263   1.597   1.120   1.960
  686HOH     H2 2264   1.510   1.216   2.037
  687HOH      O 2265   0.627   1.589   2.434
  687HOH     H1 2266   0.599   1.518   2.492
  687HOH     H2 2267   0.715   1.563   2.406
  688HOH      O 2268   1.341   2.742   3.703
  688HOH     H1 2269   1.331   2.816   3.642
  688HOH     H2 2270   1.434   2.743   3.725
  689HOH      O 2271   3.316   1.092   3.428
  689HOH     H1 2272   3.326   1.179   3.391
  689HOH     H2 2273   3.318   1.033   3.353
  690HOH      O 2274   3.087   1.957   3.736
  690HOH     H1 2275   3.087   1.908   3.818
  690HOH     H2 2276   3.007   1.930   3.692
  691HOH      O 2277   0.143   1.189   1.490
  691HOH     H1 2278   0.066   1.246   1.481
  691HOH     H2 2279   0.197   1.211   1.414
  692HOH      O 2280   3.486   2.408   1.264
  692HOH     H1 2281   3.422   2.387   1.332
  692HOH     H2 2282   3.469   2.500   1.242
  693HOH      O 2283   0.810   1.431   3.365
  693HOH     H1 2284   0.731   1.425   3.419
  693HOH     H2 2285   0.805   1.518   3.326
  694HOH      O 2286   1.284   2.530   3.503
  694HOH     H1 2287   1.342   2.604   3.518
  694HOH     H2 2288   1.290   2.477   3.582
  695HOH      O 2289   0.377   0.485   0.205
  695HOH     H1 2290   0.350   0.567   0.164
  695HOH     H2 2291   0.357   0.497   0.298
  696HOH      O 2292   1.386   0.539   2.481
  696HOH     H1 2293   1.473   0.550   2.442
  696HOH     H2 2294   1.393   0.584   2.565
  697HOH      O 2295   3.461   0.462   2.264
  697HOH     H1 2296   3.527   0.438   2.329
  697HOH     H2 2297   3.477   0.404   2.190
  698HOH      O 2298   1.765   2.099   3.732
  698HOH     H1 2299   1.744   2.097   3.639
  698HOH     H2 2300   1.698   2.155   3.771
  699HOH      O 2301   0.547   0.329   3.944
  699HOH     H1 2302   0.453   0.331   3.965
  699HOH     H2 2303   0.589   0.301   4.025
  700HOH      O 2304   2.615   3.432   2.989
  700HOH     H1 2305   2.551   3.489   2.945
  700HOH     H2 2306   2.639   3.480   3.068
  701HOH      O 2307   1.812   3.106   3.997
  701HOH     H1 2308   1.809   3.022   3.951
  701HOH     H2 2309   1.797   3.171   3.928
  702HOH      O 2310   1.433   1.395   1.401
  702HOH     H1 2311   1.367   1.377   1.334
  702HOH     H2 2312   1.383   1.419   1.479
  703HOH      O 2313   3.078   0.330   1.465
  703HOH     H1 2314   3.022   0.318   1.389
  703HOH     H2 2315   3.030   0.288   1.537
  704HOH      O 2316   0.973   2.567   3.739
  704HOH     H1 2317   1.052   2.571   3.792
  704HOH     H2 2318   0.901   2.580   3.801
  705HOH      O 2319   0.885   1.970   1.961
  705HOH     H1 2320   0.938   2.049   1.969
  705HOH     H2 2321   0.943   1.908   1.917
  706HOH      O 2322   0.823   1.529   1.469
  706HOH     H1 2323   0.836   1.608   1.522
  706HOH     H2 2324   0.846   1.457   1.527
  707HOH      O 2325   2.188   2.396   2.444
  707HOH     H1 2326   2.241   2.392   2.364
  707HOH     H2 2327   2.141   2.479   2.437
  708HOH      O 2328   1.623   3.358   0.579
  708HOH     H1 2329   1.624   3.305   0.500
  708HOH     H2 2330   1.715   3.382   0.593
  709HOH      O 2331   3.700   2.929   3.966
  709HOH     H1 2332   3.756   2.976   4.029
  709HOH     H2 2333   3.629   2.893   4.019
  710HOH      O 2334   2.480   1.807   3.667
  710HOH     H1 2335   2.518   1.780   3.583
  710HOH     H2 2336   2.541   1.872   3.702
  711HOH      O 2337   2.393   0.598   2.740
  711HOH     H1 2338   2.487   0.612   2.756
  711HOH     H2 2339   2.382   0.622   2.648
  712HOH      O 2340   2.789   0.501   3.694
  712HOH     H1 2341   2.752   0.546   3.770
  712HOH     H2 2342   2.810   0.572   3.632
  713HOH      O 2343   1.617   1.354   0.793
  713HOH     H1 2344   1.661   1.423   0.744
  713HOH     H2 2345   1.575   1.300   0.725
  714HOH      O 2346   1.272   0.846   1.711
  714HOH     H1 2347   1.324   0.922   1.739
  714HOH     H2 2348   1.289   0.780   1.778
  715HOH      O 2349   0.193   3.837   2.738
  715HOH     H1 2350   0.279   3.799   2.755
  715HOH     H2 2351   0.153   3.846   2.825
  716HOH      O 2352   2.572   1.354   2.655
  716HOH     H1 2353   2.513   1.420   2.619
  716HOH     H2 2354   2.542   1.272   2.617
  717HOH      O 2355   3.497   2.582   0.962
  717HOH     H1 2356   3.411   2.560   0.997
  717HOH     H2 2357   3.515   2.670   0.996
  718HOH      O 2358   3.650   2.466   2.896
  718HOH     H1 2359   3.707   2.390   2.879
  718HOH     H2 2360   3.674   2.529   2.828
  719HOH      O 2361   1.724   3.731   2.281
  719HOH     H1 2362   1.779   3.756   2.208
  719HOH     H2 2363   1.778   3.745   2.359
  720HOH      O 2364   3.710   3.414   3.677
  720HOH     H1 2365   3.630   3.392   3.725
  720HOH     H2 2366   3.684   3.488   3.622
  721HOH      O 2367   1.633   3.588   0.722
  721HOH     H1 2368   1.625   3.505   0.674
  721HOH     H2 2369   1.574   3.648   0.676
  722HOH      O 2370   1.476   2.429   2.070
  722HOH     H1 2371   1.565   2.461   2.083
  722HOH     H2 2372   1.428   2.503   2.033
  723HOH      O 2373   3.676   2.428   3.899
  723HOH     H1 2374   3.590   2.390   3.884
  723HOH     H2 2375   3.691   2.418   3.993
  724HOH      O 2376   1.763   1.169   1.314
  724HOH     H1 2377   1.816   1.222   1.373
  724HOH     H2 2378   1.794   1.193   1.226
  725HOH      O 2379   1.861   3.837   2.068
  725HOH     H1 2380   1.820   3.915   2.030
  725HOH     H2 2381   1.911   3.799   1.996
  726HOH      O 2382   3.850   0.258   2.209
  726HOH     H1 2383   3.853   0.206   2.129
  726HOH     H2 2384   3.918   0.220   2.265
  727HOH      O 2385   1.595   2.963   3.344
  727HOH     H1 2386   1.632   2.894   3.289
  727HOH     H2 2387   1.504   2.937   3.357
  728HOH      O 2388   1.303   1.289   2.277
  728HOH     H1 2389   1.355   1.304   2.198
  728HOH     H2 2390   1.335   1.353   2.340
  729HOH      O 2391   3.662   0.733   2.373
  729HOH     H1 2392   3.571   0.719   2.400
  729HOH     H2 2393   3.712   0.722   2.454
  730HOH      O 2394   2.313   1.470   2.568
  730HOH     H1 2395   2.281   1.560   2.557
  730HOH     H2 2396   2.288   1.426   2.487
  731HOH      O 2397   2.102   0.920   0.150
  731HOH     H1 2398   2.088   0.889   0.061
  731HOH     H2 2399   2.051   1.001   0.156
  732HOH      O 2400   1.575   0.055   1.079
  732HOH     H1 2401   1.577   0.033   1.172
  732HOH     H2 2402   1.640  -0.003   1.040
  733HOH      O 2403   1.975   1.149   1.710
  733HOH     H1 2404   2.064   1.115   1.701
  733HOH     H2 2405   1.969   1.216   1.642
  734HOH      O 2406   3.502   0.833   0.911
  734HOH     H1 2407   3.484   0.801   0.822
  734HOH     H2 2408   3.597   0.836   0.916
  735HOH      O 2409   1.675   0.639   1.833
  735HOH     H1 2410   1.726   0.717   1.858
  735HOH     H2 2411   1.621   0.620   1.910
  736HOH      O 2412   0.761   0.860   3.860
  736HOH     H1 2413   0.834   0.913   3.830
  736HOH     H2 2414   0.697   0.924   3.891
  737HOH      O 2415   3.331   1.082   0.976
  737HOH     H1 2416   3.361   0.998   0.939
  737HOH     H2 2417   3.412   1.128   0.999
  738HOH      O 2418   2.196   0.061   0.122
  738HOH     H1 2419   2.252   0.132   0.152
  738HOH     H2 2420   2.257  -0.004   0.086
  739HOH      O 2421   1.227   3.934   1.459
  739HOH     H1 2422   1.234   3.908   1.367
  739HOH     H2 2423   1.280   3.870   1.506
  740HOH      O 2424   1.086   3.900   0.862
  740HOH     H1 2425   1.138   3.956   0.804
  740HOH     H2 2426   1.083   3.947   0.945
  741HOH      O 2427   1.448   1.463   3.476
  741HOH     H1 2428   1.479   1.536   3.529
  741HOH     H2 2429   1.355   1.479   3.464
  742HOH      O 2430   1.060   1.005   0.265
  742HOH     H1 2431   0.985   0.959   0.302
  742HOH     H2 2432   1.064   0.974   0.174
  743HOH      O 2433   1.798   0.089   2.761
  743HOH     H1 2434   1.733   0.069   2.828
  743HOH     H2 2435   1.758   0.058   2.679
  744HOH      O 2436   2.477  -0.008   0.561
  744HOH     H1 2437   2.451   0.015   0.650
  744HOH     H2 2438   2.571   0.008   0.559
  745HOH      O 2439   2.381   1.740   1.600
  745HOH     H1 2440   2.332   1.669   1.640
  745HOH     H2 2441   2.314   1.795   1.559
  746HOH      O 2442   0.563   0.339   0.396
  746HOH     H1 2443   0.530   0.299   0.476
  746HOH     H2 2444   0.492   0.396   0.366
  747HOH      O 2445   1.133   1.454   1.969
  747HOH     H1 2446   1.081   1.385   2.010
  747HOH     H2 2447   1.128   1.435   1.876
  748HOH      O 2448   0.861   2.754   1.790
  748HOH     H1 2449   0.922   2.798   1.730
  748HOH     H2 2450   0.774   2.781   1.761
  749HOH      O 2451   1.409   3.113   0.889
  749HOH     H1 2452   1.415   3.068   0.804
  749HOH     H2 2453   1.468   3.188   0.880
  750HOH      O 2454   3.422   0.455   1.451
  750HOH     H1 2455   3.443   0.524   1.514
  750HOH     H2 2456   3.497   0.396   1.454
  751HOH      O 2457   2.522   1.915   1.860
  751HOH     H1 2458   2.581   1.848   1.825
  751HOH     H2 2459   2.450   1.866   1.899
  752HOH      O 2460   3.818   2.350   0.402
  752HOH     H1 2461   3.770   2.397   0.334
  752HOH     H2 2462   3.761   2.277   0.425
  753HOH      O 2463   0.544   2.474   1.082
  753HOH     H1 2464   0.461   2.509   1.048
  753HOH     H2 2465   0.601   2.551   1.090
  754HOH      O 2466   1.101   2.994   0.236
  754HOH     H1 2467   1.188   3.032   0.221
  754HOH     H2 2468   1.101   2.971   0.329
  755HOH      O 2469   1.238   0.838   2.419
  755HOH     H1 2470   1.249   0.850   2.325
  755HOH     H2 2471   1.208   0.748   2.428
  756HOH      O 2472   0.377   3.413   1.362
  756HOH     H1 2473   0.316   3.473   1.406
  756HOH     H2 2474   0.332   3.387   1.282
  757HOH      O 2475   1.421   0.071   1.856
  757HOH     H1 2476   1.366   0.150   1.848
  757HOH     H2 2477   1.478   0.089   1.930
  758HOH      O 2478   2.630   1.540   1.194
  758HOH     H1 2479   2.578   1.599   1.249
  758HOH     H2 2480   2.695   1.502   1.254
  759HOH      O 2481   0.350   0.663   2.741
  759HOH     H1 2482   0.345   0.735   2.679
  759HOH     H2 2483   0.377   0.703   2.824
  760HOH      O 2484   1.890   1.399   2.231
  760HOH     H1 2485   1.905   1.311   2.196
  760HOH     H2 2486   1.921   1.458   2.163
  761HOH      O 2487   3.190   0.606   3.588
  761HOH     H1 2488   3.242   0.636   3.662
  761HOH     H2 2489   3.220   0.659   3.514
  762HOH      O 2490   2.103   1.119   2.139
  762HOH     H1 2491   2.012   1.105   2.113
  762HOH     H2 2492   2.154   1.087   2.065
  763HOH      O 2493   3.768   0.532   3.661
  763HOH     H1 2494   3.675   0.511   3.661
  763HOH     H2 2495   3.801   0.495   3.579
  764HOH      O 2496   0.052   3.969   2.532
  764HOH     H1 2497   0.102   3.922   2.599
  764HOH     H2 2498   0.056   4.061   2.558
  765HOH      O 2499   2.025   0.146   1.619
  765HOH     H1 2500   2.062   0.093   1.549
  765HOH     H2 2501   1.965   0.206   1.575
  766HOH      O 2502   0.114   2.113   1.341
  766HOH     H1 2503   0.179   2.183   1.340
  766HOH     H2 2504   0.072   2.119   1.255
  767HOH      O 2505   3.582   0.699   3.497
  767HOH     H1 2506   3.637   0.692   3.418
  767HOH     H2 2507   3.634   0.754   3.556
  768HOH      O 2508   3.427   1.678   3.041
  768HOH     H1 2509   3.341   1.637   3.053
  768HOH     H2 2510   3.489   1.612   3.072
  769HOH      O 2511   0.740   1.554   3.812
  769HOH     H1 2512   0.802   1.539   3.741
  769HOH     H2 2513   0.667   1.600   3.770
  770HOH      O 2514   2.699   3.579   3.505
  770HOH     H1 2515   2.768   3.641   3.528
  770HOH     H2 2516   2.736   3.493   3.527
  771HOH      O 2517   0.953   3.683   3.182
  771HOH     H1 2518   0.938   3.639   3.266
  771HOH     H2 2519   0.933   3.616   3.116
  772HOH      O 2520   0.152   2.109   3.232
  772HOH     H1 2521   0.130   2.202   3.231
  772HOH     H2 2522   0.240   2.105   3.194
  773HOH      O 2523   0.233   2.215   2.142
  773HOH     H1 2524   0.285   2.195   2.219
  773HOH     H2 2525   0.291   2.267   2.086
  774HOH      O 2526   0.542   2.547   2.942
  774HOH     H1 2527   0.519   2.639   2.954
  774HOH     H2 2528   0.468   2.509   2.895
  775HOH      O 2529   3.334   2.493   0.666
  775HOH     H1 2530   3.370   2.581   0.656
  775HOH     H2 2531   3.261   2.504   0.727
  776HOH      O 2532   1.778   0.639   0.524
  776HOH     H1 2533   1.737   0.604   0.603
  776HOH     H2 2534   1.771   0.568   0.460
  777HOH      O 2535   2.095   0.345   2.696
  777HOH     H1 2536   2.111   0.252   2.709
  777HOH     H2 2537   2.100   0.383   2.784
  778HOH      O 2538   1.101   3.720   1.797
  778HOH     H1 2539   1.075   3.755   1.882
  778HOH     H2 2540   1.099   3.625   1.809
  779HOH      O 2541   0.938   3.843   1.975
  779HOH     H1 2542   0.917   3.814   2.064
  779HOH     H2 2543   0.854   3.868   1.938
  780HOH      O 2544   3.334   3.954   2.888
  780HOH     H1 2545   3.277   3.903   2.830
  780HOH     H2 2546   3.384   3.888   2.936
  781HOH      O 2547   2.897   1.726   0.041
  781HOH     H1 2548   2.805   1.722   0.012
  781HOH     H2 2549   2.892   1.720   0.136
  782HOH      O 2550   3.201   0.267   0.657
  782HOH     H1 2551   3.177   0.246   0.567
  782HOH     H2 2552   3.223   0.183   0.697
  783HOH      O 2553   1.164   0.744   2.749
  783HOH     H1 2554   1.112   0.768   2.826
  783HOH     H2 2555   1.102   0.745   2.677
  784HOH      O 2556   0.691   3.591   2.957
  784HOH     H1 2557   0.754   3.567   3.025
  784HOH     H2 2558   0.606   3.578   2.999
  785HOH      O 2559   1.193   0.208   0.421
  785HOH     H1 2560   1.129   0.152   0.377
  785HOH     H2 2561   1.266   0.214   0.359
  786HOH      O 2562   2.223   2.726   3.227
  786HOH     H1 2563   2.306   2.741   3.182
  786HOH     H2 2564   2.188   2.814   3.243
  787HOH      O 2565   1.113   2.163   0.597
  787HOH     H1 2566   1.096   2.192   0.508
  787HOH     H2 2567   1.187   2.217   0.625
  788HOH      O 2568   1.881   4.022   0.946
  788HOH     H1 2569   1.819   3.949   0.938
  788HOH     H2 2570   1.962   3.989   0.908
  789HOH      O 2571   1.806   3.114   2.810
  789HOH     H1 2572   1.784   3.037   2.758
  789HOH     H2 2573   1.863   3.081   2.880
  790HOH      O 2574   0.040   0.246   3.785
  790HOH     H1 2575   0.058   0.273   3.695
  790HOH     H2 2576   0.102   0.297   3.838
  791HOH      O 2577   1.387   3.941   3.108
  791HOH     H1 2578   1.401   3.853   3.073
  791HOH     H2 2579   1.346   3.989   3.036
  792HOH      O 2580   3.400   2.549   2.988
  792HOH     H1 2581   3.481   2.504   2.963
  792HOH     H2 2582   3.363   2.494   3.057
  793HOH      O 2583   2.071   2.565   0.135
  793HOH     H1 2584   2.120   2.590   0.214
  793HOH     H2 2585   2.139   2.545   0.070
  794HOH      O 2586   3.560   2.674   2.682
  794HOH     H1 2587   3.482   2.706   2.727
  794HOH     H2 2588   3.609   2.753   2.660
  795HOH      O 2589   0.382   3.118   3.783
  795HOH     H1 2590   0.302   3.068   3.799
  795HOH     H2 2591   0.424   3.124   3.868
  796HOH      O 2592   1.272   0.410   3.343
  796HOH     H1 2593   1.276   0.478   3.410
  796HOH     H2 2594   1.305   0.452   3.263
  797HOH      O 2595   3.831   0.280   3.211
  797HOH     H1 2596   3.891   0.260   3.282
  797HOH     H2 2597   3.802   0.194   3.180
  798HOH      O 2598   1.250   2.790   0.068
  798HOH     H1 2599   1.237   2.819   0.158
  798HOH     H2 2600   1.279   2.869   0.021
  799HOH      O 2601   3.556   2.401   2.214
  799HOH     H1 2602   3.643   2.362   2.226
  799HOH     H2 2603   3.496   2.337   2.253
  800HOH      O 2604   2.010   2.867   0.433
  800HOH     H1 2605   1.984   2.847   0.343
  800HOH     H2 2606   2.000   2.962   0.440
  801HOH      O 2607   3.764   3.529   1.874
  801HOH     H1 2608   3.813   3.525   1.956
  801HOH     H2 2609   3.672   3.530   1.902
  802HOH      O 2610   2.408   4.012   3.732
  802HOH     H1 2611   2.481   4.011   3.794
  802HOH     H2 2612   2.425   4.087   3.675
  803HOH      O 2613   0.129   0.199   0.179
  803HOH     H1 2614   0.107   0.107   0.194
  803HOH     H2 2615   0.064   0.230   0.116
  804HOH      O 2616   2.550   1.294   0.162
  804HOH     H1 2617   2.504   1.311   0.244
  804HOH     H2 2618   2.508   1.216   0.126
  805HOH      O 2619   3.439   1.036   1.446
  805HOH     H1 2620   3.498   1.055   1.373
  805HOH     H2 2621   3.489   1.057   1.524
  806HOH      O 2622   2.688   3.818   3.780
  806HOH     H1 2623   2.729   3.904   3.772
  806HOH     H2 2624   2.722   3.782   3.862
  807HOH      O 2625   1.107   1.814   2.205
  807HOH     H1 2626   1.112   1.732   2.253
  807HOH     H2 2627   1.036   1.863   2.247
  808HOH      O 2628   3.593   2.746   3.673
  808HOH     H1 2629   3.530   2.693   3.623
  808HOH     H2 2630   3.548   2.766   3.755
  809HOH      O 2631   1.895   3.689   3.390
  809HOH     H1 2632   1.810   3.697   3.347
  809HOH     H2 2633   1.875   3.697   3.484
  810HOH      O 2634   3.390   0.728   0.673
  810HOH     H1 2635   3.306   0.772   0.679
  810HOH     H2 2636   3.426   0.756   0.588
  811HOH      O 2637   0.547   3.223   2.287
  811HOH     H1 2638   0.502   3.305   2.266
  811HOH     H2 2639   0.556   3.178   2.203
  812HOH      O 2640   1.509   0.051   0.369
  812HOH     H1 2641   1.589   0.002   0.388
  812HOH     H2 2642   1.444  -0.016   0.349
  813HOH      O 2643   2.405   1.438   1.094
  813HOH     H1 2644   2.493   1.466   1.120
  813HOH     H2 2645   2.420   1.375   1.023
  814HOH      O 2646   4.004   0.985   3.779
  814HOH     H1 2647   4.008   0.890   3.767
  814HOH     H2 2648   4.048   1.001   3.862
  815HOH      O 2649   3.591   0.258   4.005
  815HOH     H1 2650   3.594   0.180   4.061
  815HOH     H2 2651   3.651   0.238   3.933
  816HOH      O 2652   0.159   1.556   0.313
  816HOH     H1 2653   0.250   1.568   0.286
  816HOH     H2 2654   0.142   1.626   0.376
  817HOH      O 2655   0.696   3.739   3.410
  817HOH     H1 2656   0.778   3.761   3.453
  817HOH     H2 2657   0.722   3.711   3.322
  818HOH      O 2658   3.577   0.982   2.105
  818HOH     H1 2659   3.496   0.980   2.054
  818HOH     H2 2660   3.622   0.900   2.082
  819HOH      O 2661   1.234   1.385   2.717
  819HOH     H1 2662   1.218   1.292   2.731
  819HOH     H2 2663   1.166   1.412   2.656
  820HOH      O 2664   1.735   3.145   1.899
  820HOH     H1 2665   1.801   3.146   1.829
  820HOH     H2 2666   1.786   3.147   1.980
  821HOH      O 2667   2.445   0.425   2.496
  821HOH     H1 2668   2.514   0.446   2.432
  821HOH     H2 2669   2.486   0.438   2.581
  822HOH      O 2670   1.264   2.829   2.474
  822HOH     H1 2671   1.247   2.920   2.449
  822HOH     H2 2672   1.280   2.832   2.568
  823HOH      O 2673   3.274   0.331   1.722
  823HOH     H1 2674   3.359   0.376   1.716
  823HOH     H2 2675   3.285   0.253   1.668
  824HOH      O 2676   0.949   2.612   1.351
  824HOH     H1 2677   0.868   2.561   1.351
  824HOH     H2 2678   1.010   2.560   1.402
  825HOH      O 2679   0.781   3.063   3.373
  825HOH     H1 2680   0.705   3.048   3.429
  825HOH     H2 2681   0.838   3.121   3.424
  826HOH      O 2682   3.124   0.787   2.174
  826HOH     H1 2683   3.030   0.801   2.159
  826HOH     H2 2684   3.128   0.712   2.233
  827HOH      O 2685   0.491   1.033   1.675
  827HOH     H1 2686   0.554   0.972   1.712
  827HOH     H2 2687   0.523   1.048   1.585
  828HOH      O 2688   1.304   3.403   1.490
  828HOH     H1 2689   1.217   3.418   1.454
  828HOH     H2 2690   1.362   3.454   1.434
  829HOH      O 2691   1.114   3.151   1.382
  829HOH     H1 2692   1.031   3.103   1.382
  829HOH     H2 2693   1.093   3.234   1.339
  830HOH      O 2694   3.701   2.280   0.858
  830HOH     H1 2695   3.649   2.317   0.930
  830HOH     H2 2696   3.643   2.216   0.817
  831HOH      O 2697   1.707   3.797   1.744
  831HOH     H1 2698   1.612   3.803   1.747
  831HOH     H2 2699   1.729   3.731   1.811
  832HOH      O 2700   1.844   1.243   3.385
  832HOH     H1 2701   1.924   1.221   3.433
  832HOH     H2 2702   1.794   1.161   3.382
  833HOH      O 2703   2.111   0.475   0.676
  833HOH     H1 2704   2.133   0.566   0.657
  833HOH     H2 2705   2.048   0.480   0.749
  834HOH      O 2706   1.573   3.219   3.495
  834HOH     H1 2707   1.605   3.154   3.432
  834HOH     H2 2708   1.483   3.237   3.467
  835HOH      O 2709   1.823   3.384   3.841
  835HOH     H1 2710   1.800   3.448   3.909
  835HOH     H2 2711   1.918   3.391   3.832
  836HOH      O 2712   2.605   3.876   2.285
  836HOH     H1 2713   2.547   3.917   2.221
  836HOH     H2 2714   2.602   3.934   2.361
  837HOH      O 2715   2.737   3.160   1.123
  837HOH     H1 2716   2.778   3.241   1.091
  837HOH     H2 2717   2.722   3.108   1.044
  838HOH      O 2718   2.211   3.802   3.536
  838HOH     H1 2719   2.302   3.818   3.562
  838HOH     H2 2720   2.216   3.782   3.443
  839HOH      O 2721   0.751   3.947   0.625
  839HOH     H1 2722   0.699   3.877   0.586
  839HOH     H2 2723   0.705   3.968   0.706
  840HOH      O 2724   3.190   3.655   3.511
  840HOH     H1 2725   3.273   3.609   3.495
  840HOH     H2 2726   3.201   3.739   3.467
  841HOH      O 2727   3.157   1.037   3.074
  841HOH     H1 2728   3.230   1.073   3.025
  841HOH     H2 2729   3.189   0.952   3.106
  842HOH      O 2730   1.708   1.566   2.948
  842HOH     H1 2731   1.662   1.647   2.927
  842HOH     H2 2732   1.749   1.582   3.033
  843HOH      O 2733   3.112   1.353   0.479
  843HOH     H1 2734   3.149   1.406   0.408
  843HOH     H2 2735   3.105   1.265   0.441
  844HOH      O 2736   2.747   1.788   1.713
  844HOH     H1 2737   2.764   1.726   1.642
  844HOH     H2 2738   2.812   1.766   1.779
  845HOH      O 2739   2.466   0.690   1.336
  845HOH     H1 2740   2.443   0.705   1.245
  845HOH     H2 2741   2.406   0.745   1.386
  846HOH      O 2742   0.602   3.729   2.500
  846HOH     H1 2743   0.619   3.752   2.409
  846HOH     H2 2744   0.686   3.740   2.545
  847HOH      O 2745   1.258   3.426   0.633
  847HOH     H1 2746   1.331   3.415   0.572
  847HOH     H2 2747   1.221   3.511   0.612
  848HOH      O 2748   2.240   3.012   1.979
  848HOH     H1 2749   2.210   2.985   1.892
  848HOH     H2 2750   2.313   2.953   1.998
  849HOH      O 2751   1.620   1.999   2.559
  849HOH     H1 2752   1.683   1.968   2.624
  849HOH     H2 2753   1.535   1.989   2.601
  850HOH      O 2754   1.384   0.751   1.453
  850HOH     H1 2755   1.458   0.691   1.457
  850HOH     H2 2756   1.355   0.760   1.544
  851HOH      O 2757   0.894   0.086   0.443
  851HOH     H1 2758   0.837   0.010   0.432
  851HOH     H2 2759   0.879   0.114   0.533
  852HOH      O 2760   1.723   0.970   3.384
  852HOH     H1 2761   1.759   0.939   3.467
  852HOH     H2 2762   1.632   0.994   3.405
  853HOH      O 2763   1.020   0.684   2.026
  853HOH     H1 2764   1.009   0.724   1.940
  853HOH     H2 2765   1.064   0.601   2.008
  854HOH      O 2766   3.654   1.667   2.468
  854HOH     H1 2767   3.600   1.613   2.410
  854HOH     H2 2768   3.609   1.751   2.471
  855HOH      O 2769   0.993   0.223   1.073
  855HOH     H1 2770   0.976   0.129   1.079
  855HOH     H2 2771   1.034   0.245   1.156
  856HOH      O 2772   1.434   1.402   2.045
  856HOH     H1 2773   1.347   1.397   2.006
  856HOH     H2 2774   1.458   1.495   2.038
  857HOH      O 2775   1.196   0.298   0.874
  857HOH     H1 2776   1.226   0.244   0.800
  857HOH     H2 2777   1.171   0.235   0.941
  858HOH      O 2778   1.337   3.134   2.826
  858HOH     H1 2779   1.393   3.127   2.903
  858HOH     H2 2780   1.299   3.222   2.832
  859HOH      O 2781   1.129   0.549   0.611
  859HOH     H1 2782   1.167   0.572   0.696
  859HOH     H2 2783   1.203   0.516   0.560
  860HOH      O 2784   2.409   0.783   1.712
  860HOH     H1 2785   2.402   0.838   1.791
  860HOH     H2 2786   2.333   0.807   1.660
  861HOH      O 2787   0.329   1.955   0.461
  861HOH     H1 2788   0.379   1.982   0.384
  861HOH     H2 2789   0.307   2.037   0.506
  862HOH      O 2790   1.192   3.321   0.278
  862HOH     H1 2791   1.194   3.413   0.301
  862HOH     H2 2792   1.102   3.293   0.294
  863HOH      O 2793   3.280   0.177   1.951
  863HOH     H1 2794   3.274   0.219   1.865
  863HOH     H2 2795   3.294   0.085   1.932
  864HOH      O 2796   2.550   0.391   0.728
  864HOH     H1 2797   2.612   0.326   0.694
  864HOH     H2 2798   2.565   0.391   0.822
  865HOH      O 2799   3.656   3.184   2.122
  865HOH     H1 2800   3.649   3.090   2.137
  865HOH     H2 2801   3.691   3.192   2.033
  866HOH      O 2802   1.933   1.675   3.860
  866HOH     H1 2803   1.866   1.642   3.801
  866HOH     H2 2804   2.013   1.679   3.807
  867HOH      O 2805   2.750   2.686   2.477
  867HOH     H1 2806   2.790   2.768   2.509
  867HOH     H2 2807   2.760   2.625   2.550
  868HOH      O 2808   2.964   3.987   3.976
  868HOH     H1 2809   2.904   3.959   4.046
  868HOH     H2 2810   2.913   4.049   3.924
  869HOH      O 2811   1.295   2.575   3.201
  869HOH     H1 2812   1.351   2.535   3.135
  869HOH     H2 2813   1.330   2.544   3.284
  870HOH      O 2814   2.115   0.905   3.196
  870HOH     H1 2815   2.064   0.830   3.229
  870HOH     H2 2816   2.053   0.955   3.144
  871HOH      O 2817   1.278   2.830   0.362
  871HOH     H1 2818   1.231   2.753   0.394
  871HOH     H2 2819   1.367   2.820   0.397
  872HOH      O 2820   4.049   1.476   3.385
  872HOH     H1 2821   3.963   1.496   3.421
  872HOH     H2 2822   4.051   1.381   3.379
  873HOH      O 2823   3.645   0.431   1.159
  873HOH     H1 2824   3.613   0.487   1.230
  873HOH     H2 2825   3.574   0.368   1.144
  874HOH      O 2826   1.597   3.202   3.771
  874HOH     H1 2827   1.659   3.274   3.782
  874HOH     H2 2828   1.605   3.176   3.679
  875HOH      O 2829   2.970   2.029   0.367
  875HOH     H1 2830   3.031   1.955   0.379
  875HOH     H2 2831   3.020   2.105   0.395
  876HOH      O 2832   0.412   1.658   0.268
  876HOH     H1 2833   0.362   1.715   0.210
  876HOH     H2 2834   0.472   1.611   0.209
  877HOH      O 2835   1.538   2.769   0.436
  877HOH     H1 2836   1.605   2.837   0.431
  877HOH     H2 2837   1.587   2.687   0.430
  878HOH      O 2838   3.335   3.632   2.377
  878HOH     H1 2839   3.394   3.598   2.310
  878HOH     H2 2840   3.379   3.614   2.460
  879HOH      O 2841   1.740   0.594   3.008
  879HOH     H1 2842   1.820   0.629   2.969
  879HOH     H2 2843   1.749   0.499   3.001
  880HOH      O 2844   1.975   0.233   2.295
  880HOH     H1 2845   2.065   0.247   2.322
  880HOH     H2 2846   1.967   0.280   2.212
  881HOH      O 2847   3.248   1.516   0.755
  881HOH     H1 2848   3.223   1.492   0.844
  881HOH     H2 2849   3.298   1.597   0.766
  882HOH      O 2850   0.560   0.652   0.990
  882HOH     H1 2851   0.484   0.690   0.946
  882HOH     H2 2852   0.634   0.704   0.958
  883HOH      O 2853   1.583   0.063   1.349
  883HOH     H1 2854   1.637   0.121   1.403
  883HOH     H2 2855   1.633  -0.018   1.343
  884HOH      O 2856   2.361   0.256   3.953
  884HOH     H1 2857   2.375   0.318   3.882
  884HOH     H2 2858   2.425   0.187   3.938
  885HOH      O 2859   0.791   2.248   2.301
  885HOH     H1 2860   0.744   2.265   2.219
  885HOH     H2 2861   0.852   2.322   2.308
  886HOH      O 2862   1.499   2.296   3.462
  886HOH     H1 2863   1.419   2.263   3.502
  886HOH     H2 2864   1.503   2.252   3.377
  887HOH      O 2865   0.413   2.145   3.004
  887HOH     H1 2866   0.486   2.115   2.949
  887HOH     H2 2867   0.447   2.140   3.093
  888HOH      O 2868   1.787   0.454   1.673
  888HOH     H1 2869   1.871   0.427   1.708
  888HOH     H2 2870   1.748   0.507   1.743
  889HOH      O 2871   2.069   2.627   2.367
  889HOH     H1 2872   2.080   2.721   2.382
  889HOH     H2 2873   2.130   2.607   2.296
  890HOH      O 2874   0.509   0.936   0.108
  890HOH     H1 2875   0.489   0.960   0.018
  890HOH     H2 2876   0.505   1.019   0.156
  891HOH      O 2877   3.459   3.326   3.714
  891HOH     H1 2878   3.480   3.239   3.682
  891HOH     H2 2879   3.370   3.319   3.748
  892HOH      O 2880   3.108   1.867   4.000
  892HOH     H1 2881   3.149   1.907   4.078
  892HOH     H2 2882   3.036   1.815   4.035
  893HOH      O 2883   2.001   3.111   2.118
  893HOH     H1 2884   2.088   3.087   2.087
  893HOH     H2 2885   1.949   3.031   2.109
  894HOH      O 2886   2.394  -0.000   3.145
  894HOH     H1 2887   2.428  -0.019   3.232
  894HOH     H2 2888   2.471   0.020   3.092
  895HOH      O 2889   0.130   0.122   2.958
  895HOH     H1 2890   0.223   0.115   2.981
  895HOH     H2 2891   0.084   0.117   3.042
  896HOH      O 2892   2.727   2.644   1.284
  896HOH     H1 2893   2.730   2.596   1.201
  896HOH     H2 2894   2.709   2.577   1.349
  897HOH      O 2895   3.423   0.886   0.219
  897HOH     H1 2896   3.420   0.806   0.167
  897HOH     H2 2897   3.352   0.877   0.282
  898HOH      O 2898   3.041   2.738   2.789
  898HOH     H1 2899   2.988   2.758   2.866
  898HOH     H2 2900   3.131   2.742   2.821
  899HOH      O 2901   2.297   2.550   1.799
  899HOH     H1 2902   2.380   2.598   1.798
  899HOH     H2 2903   2.321   2.461   1.775
  900HOH      O 2904   0.997   0.614   1.168
  900HOH     H1 2905   0.976   0.557   1.094
  900HOH     H2 2906   0.967   0.566   1.245
  901HOH      O 2907   0.319   2.460   0.641
  901HOH     H1 2908   0.277   2.387   0.687
  901HOH     H2 2909   0.408   2.463   0.678
  902HOH      O 2910   1.897   0.907   1.343
  902HOH     H1 2911   1.860   0.843   1.283
  902HOH     H2 2912   1.864   0.991   1.312
  903HOH      O 2913   3.994   0.645   1.255
  903HOH     H1 2914   3.901   0.669   1.258
  903HOH     H2 2915   4.036   0.718   1.209
  904HOH      O 2916   0.278   0.782   2.257
  904HOH     H1 2917   0.322   0.867   2.262
  904HOH     H2 2918   0.189   0.799   2.287
  905HOH      O 2919   1.432   3.663   0.517
  905HOH     H1 2920   1.359   3.705   0.560
  905HOH     H2 2921   1.416   3.677   0.424
  906HOH      O 2922   3.369   2.229   0.329
  906HOH     H1 2923   3.454   2.211   0.371
  906HOH     H2 2924   3.381   2.203   0.238
  907HOH      O 2925   2.602   3.179   0.382
  907HOH     H1 2926   2.625   3.113   0.317
  907HOH     H2 2927   2.599   3.261   0.332
  908HOH      O 2928   0.132   1.716   1.142
  908HOH     H1 2929   0.195   1.782   1.170
  908HOH     H2 2930   0.067   1.765   1.091
  909HOH      O 2931   0.450   2.401   1.478
  909HOH     H1 2932   0.386   2.397   1.407
  909HOH     H2 2933   0.427   2.328   1.535
  910HOH      O 2934   1.994   3.397   3.486
  910HOH     H1 2935   1.964   3.485   3.508
  910HOH     H2 2936   2.089   3.403   3.484
  911HOH      O 2937   2.004   3.806   1.403
  911HOH     H1 2938   2.003   3.902   1.397
  911HOH     H2 2939   2.074   3.780   1.344
  912HOH      O 2940   3.996   1.351   1.721
  912HOH     H1 2941   4.044   1.429   1.692
  912HOH     H2 2942   4.055   1.310   1.784
  913HOH      O 2943   2.997   2.214   3.472
  913HOH     H1 2944   2.977   2.120   3.474
  913HOH     H2 2945   3.088   2.219   3.441
  914HOH      O 2946   0.512   0.824   1.971
  914HOH     H1 2947   0.420   0.848   1.968
  914HOH     H2 2948   0.514   0.743   2.023
  915HOH      O 2949   2.227   1.760   2.624
  915HOH     H1 2950   2.134   1.775   2.638
  915HOH     H2 2951   2.267   1.846   2.632
  916HOH      O 2952   3.053   0.853   0.885
  916HOH     H1 2953   3.048   0.896   0.970
  916HOH     H2 2954   2.968   0.871   0.844
  917HOH      O 2955   3.052   4.009   2.722
  917HOH     H1 2956   3.085   3.924   2.692
  917HOH     H2 2957   2.962   4.013   2.688
  918HOH      O 2958   0.647   2.553   2.656
  918HOH     H1 2959   0.608   2.535   2.741
  918HOH     H2 2960   0.577   2.538   2.593
  919HOH      O 2961   0.323   3.801   2.369
  919HOH     H1 2962   0.338   3.803   2.464
  919HOH     H2 2963   0.341   3.891   2.341
  920HOH      O 2964   2.113   0.362   2.977
  920HOH     H1 2965   2.114   0.324   3.065
  920HOH     H2 2966   2.164   0.442   2.985
  921HOH      O 2967   3.763   2.233   2.143
  921HOH     H1 2968   3.747   2.161   2.204
  921HOH     H2 2969   3.743   2.196   2.057
  922HOH      O 2970   2.805   1.729   3.469
  922HOH     H1 2971   2.802   1.695   3.379
  922HOH     H2 2972   2.754   1.666   3.519
  923HOH      O 2973   2.247   0.306   1.954
  923HOH     H1 2974   2.257   0.235   1.890
  923HOH     H2 2975   2.277   0.268   2.037
  924HOH      O 2976   3.175   1.050   2.537
  924HOH     H1 2977   3.217   0.975   2.495
  924HOH     H2 2978   3.201   1.043   2.629
  925HOH      O 2979   3.604   0.752   1.854
  925HOH     H1 2980   3.685   0.770   1.902
  925HOH     H2 2981   3.540   0.735   1.923
  926HOH      O 2982   3.084   2.919   3.796
  926HOH     H1 2983   3.137   2.975   3.852
  926HOH     H2 2984   3.121   2.831   3.808
  927HOH      O 2985   2.741   1.413   0.345
  927HOH     H1 2986   2.821   1.401   0.295
  927HOH     H2 2987   2.672   1.378   0.289
  928HOH      O 2988   0.995   1.281   4.072
  928HOH     H1 2989   0.997   1.190   4.041
  928HOH     H2 2990   1.028   1.332   3.997
  929HOH      O 2991   0.930   3.193   3.559
  929HOH     H1 2992   0.974   3.117   3.596
  929HOH     H2 2993   0.896   3.240   3.635
  930HOH      O 2994   1.988   2.201   1.003
  930HOH     H1 2995   2.011   2.110   0.981
  930HOH     H2 2996   2.063   2.233   1.052
  931HOH      O 2997   3.321   0.435   3.854
  931HOH     H1 2998   3.364   0.357   3.890
  931HOH     H2 2999   3.247   0.400   3.804
  932HOH      O 3000   2.274   3.301   0.676
  932HOH     H1 3001   2.207   3.359   0.712
  932HOH     H2 3002   2.338   3.290   0.747
  933HOH      O 3003   2.765   3.982   1.928
  933HOH     H1 3004   2.821   3.910   1.954
  933HOH     H2 3005   2.808   4.060   1.962
  934HOH      O 3006   3.860   3.806   1.289
  934HOH     H1 3007   3.880   3.728   1.342
  934HOH     H2 3008   3.838   3.771   1.203
  935HOH      O 3009   1.882   2.435   1.433
  935HOH     H1 3010   1.859   2.526   1.448
  935HOH     H2 3011   1.866   2.422   1.339
  936HOH      O 3012   0.841   3.780   2.618
  936HOH     H1 3013   0.903   3.792   2.547
  936HOH     H2 3014   0.868   3.699   2.661
  937HOH      O 3015   3.673   1.404   2.591
  937HOH     H1 3016   3.679   1.497   2.568
  937HOH     H2 3017   3.591   1.375   2.552
  938HOH      O 3018   0.010   2.436   0.586
  938HOH     H1 3019   0.100   2.405   0.579
  938HOH     H2 3020  -0.030   2.413   0.501
  939HOH      O 3021   2.610   0.019   1.673
  939HOH     H1 3022   2.659  -0.062   1.685
  939HOH     H2 3023   2.653   0.062   1.599
  940HOH      O 3024   3.761   0.510   0.455
  940HOH     H1 3025   3.767   0.430   0.403
  940HOH     H2 3026   3.694   0.491   0.521
  941HOH      O 3027   0.957   3.816   0.467
  941HOH     H1 3028   0.893   3.851   0.529
  941HOH     H2 3029   0.981   3.891   0.412
  942HOH      O 3030   0.781   4.032   3.163
  942HOH     H1 3031   0.786   4.086   3.242
  942HOH     H2 3032   0.698   3.985   3.172
  943HOH      O 3033   0.936   2.253   1.007
  943HOH     H1 3034   0.918   2.190   0.937
  943HOH     H2 3035   0.858   2.250   1.063
  944HOH      O 3036   1.159   1.823   0.649
  944HOH     H1 3037   1.242   1.835   0.695
  944HOH     H2 3038   1.137   1.911   0.616
  945HOH      O 3039   0.316   0.480   3.480
  945HOH     H1 3040   0.374   0.435   3.542
  945HOH     H2 3041   0.366   0.481   3.398
  946HOH      O 3042   1.618   0.037   2.959
  946HOH     H1 3043   1.557   0.110   2.963
  946HOH     H2 3044   1.633   0.012   3.050
  947HOH      O 3045   0.774   1.822   0.458
  947HOH     H1 3046   0.796   1.913   0.476
  947HOH     H2 3047   0.682   1.814   0.483
  948HOH      O 3048   0.403   2.082   1.824
  948HOH     H1 3049   0.466   2.010   1.827
  948HOH     H2 3050   0.319   2.042   1.844
  949HOH      O 3051   1.850   0.150   0.663
  949HOH     H1 3052   1.910   0.177   0.733
  949HOH     H2 3053   1.772   0.204   0.677
  950HOH      O 3054   3.631   3.412   1.413
  950HOH     H1 3055   3.544   3.379   1.434
  950HOH     H2 3056   3.689   3.337   1.426
  951HOH      O 3057   2.061   0.273   3.894
  951HOH     H1 3058   2.138   0.257   3.949
  951HOH     H2 3059   2.064   0.202   3.829
  952HOH      O 3060   1.115   2.315   1.208
  952HOH     H1 3061   1.203   2.296   1.178
  952HOH     H2 3062   1.059   2.303   1.131
  953HOH      O 3063   0.384   0.588   1.219
  953HOH     H1 3064   0.307   0.560   1.168
  953HOH     H2 3065   0.442   0.629   1.155
  954HOH      O 3066   1.148   1.394   2.972
  954HOH     H1 3067   1.221   1.372   3.030
  954HOH     H2 3068   1.190   1.428   2.893
  955HOH      O 3069   3.642   2.937   2.185
  955HOH     H1 3070   3.707   2.895   2.129
  955HOH     H2 3071   3.606   2.865   2.238
  956HOH      O 3072   1.918   2.221   3.952
  956HOH     H1 3073   1.973   2.291   3.917
  956HOH     H2 3074   1.896   2.167   3.876
  957HOH      O 3075   1.254   0.625   3.506
  957HOH     H1 3076   1.183   0.687   3.490
  957HOH     H2 3077   1.332   0.680   3.515
  958HOH      O 3078   3.282   3.825   1.739
  958HOH     H1 3079   3.345   3.846   1.670
  958HOH     H2 3080   3.317   3.870   1.817
  959HOH      O 3081   2.897   4.052   1.255
  959HOH     H1 3082   2.902   3.970   1.206
  959HOH     H2 3083   2.808   4.084   1.239
  960HOH      O 3084   0.525   2.578   3.870
  960HOH     H1 3085   0.491   2.661   3.836
  960HOH     H2 3086   0.448   2.521   3.877
  961HOH      O 3087   0.725   1.351   1.938
  961HOH     H1 3088   0.632   1.351   1.915
  961HOH     H2 3089   0.751   1.443   1.936
  962HOH      O 3090   2.269   1.234   2.936
  962HOH     H1 3091   2.279   1.140   2.921
  962HOH     H2 3092   2.290   1.246   3.029
  963HOH      O 3093   0.746   0.435   3.795
  963HOH     H1 3094   0.820   0.386   3.830
  963HOH     H2 3095   0.671   0.405   3.846
  964HOH      O 3096   0.013   3.835   1.680
  964HOH     H1 3097  -0.033   3.913   1.649
  964HOH     H2 3098   0.049   3.795   1.601
  965HOH      O 3099   1.542   2.934   0.083
  965HOH     H1 3100   1.611   2.997   0.100
  965HOH     H2 3101   1.471   2.959   0.142
  966HOH      O 3102   3.265   0.674   2.994
  966HOH     H1 3103   3.227   0.694   2.908
  966HOH     H2 3104   3.221   0.733   3.054
  967HOH      O 3105   1.698   1.608   2.641
  967HOH     H1 3106   1.637   1.651   2.582
  967HOH     H2 3107   1.641   1.560   2.703
  968HOH      O 3108   1.355   3.542   1.233
  968HOH     H1 3109   1.447   3.553   1.256
  968HOH     H2 3110   1.308   3.595   1.297
  969HOH      O 3111   2.020   2.579   1.749
  969HOH     H1 3112   2.109   2.565   1.781
  969HOH     H2 3113   1.966   2.521   1.803
  970HOH      O 3114   2.922   0.351   1.093
  970HOH     H1 3115   2.961   0.348   1.005
  970HOH     H2 3116   2.980   0.409   1.143
  971HOH      O 3117   1.086   0.792   0.831
  971HOH     H1 3118   1.126   0.712   0.865
  971HOH     H2 3119   1.106   0.859   0.897
  972HOH      O 3120   0.198   2.053   2.630
  972HOH     H1 3121   0.284   2.053   2.589
  972HOH     H2 3122   0.139   2.086   2.563
  973HOH      O 3123   0.206   3.329   4.007
  973HOH     H1 3124   0.166   3.389   4.069
  973HOH     H2 3125   0.151   3.251   4.010
  974HOH      O 3126   1.658   3.697   3.273
  974HOH     H1 3127   1.654   3.604   3.249
  974HOH     H2 3128   1.590   3.738   3.221
  975HOH      O 3129   3.999   0.525   2.739
  975HOH     H1 3130   4.009   0.528   2.644
  975HOH     H2 3131   4.008   0.616   2.767
  976HOH      O 3132   3.199   0.925   0.678
  976HOH     H1 3133   3.204   1.020   0.688
  976HOH     H2 3134   3.144   0.896   0.751
  977HOH      O 3135   1.970   0.418   2.078
  977HOH     H1 3136   1.943   0.388   1.992
  977HOH     H2 3137   2.005   0.506   2.064
  978HOH      O 3138   1.404   1.896   0.782
  978HOH     H1 3139   1.466   1.876   0.851
  978HOH     H2 3140   1.436   1.976   0.741
  979HOH      O 3141   3.907   1.813   0.556
  979HOH     H1 3142   3.990   1.807   0.507
  979HOH     H2 3143   3.885   1.722   0.576
  980HOH      O 3144   1.129   3.010   3.368
  980HOH     H1 3145   1.065   2.944   3.391
  980HOH     H2 3146   1.186   2.967   3.303
  981HOH      O 3147   1.578   2.619   3.804
  981HOH     H1 3148   1.564   2.648   3.894
  981HOH     H2 3149   1.673   2.603   3.799
  982HOH      O 3150   0.848   3.533   2.736
  982HOH     H1 3151   0.928   3.487   2.761
  982HOH     H2 3152   0.815   3.569   2.819
  983HOH      O 3153   3.051   3.170   2.099
  983HOH     H1 3154   3.064   3.125   2.182
  983HOH     H2 3155   3.116   3.132   2.041
  984HOH      O 3156   3.404   0.682   3.762
  984HOH     H1 3157   3.472   0.646   3.704
  984HOH     H2 3158   3.372   0.606   3.811
  985HOH      O 3159   1.117   1.264   0.279
  985HOH     H1 3160   1.101   1.170   0.280
  985HOH     H2 3161   1.081   1.294   0.196
  986HOH      O 3162   3.773   1.414   0.324
  986HOH     H1 3163   3.790   1.408   0.418
  986HOH     H2 3164   3.783   1.325   0.291
  987HOH      O 3165   2.129   1.511   3.007
  987HOH     H1 3166   2.113   1.459   2.929
  987HOH     H2 3167   2.089   1.461   3.078
  988HOH      O 3168   0.252   1.362   2.989
  988HOH     H1 3169   0.200   1.427   2.942
  988HOH     H2 3170   0.340   1.400   2.992
  989HOH      O 3171   3.894   3.004   0.195
  989HOH     H1 3172   3.850   2.926   0.229
  989HOH     H2 3173   3.925   3.050   0.273
  990HOH      O 3174   2.214   2.235   1.144
  990HOH     H1 3175   2.235   2.142   1.159
  990HOH     H2 3176   2.200   2.270   1.232
  991HOH      O 3177   2.154   1.931   3.740
  991HOH     H1 3178   2.220   1.977   3.687
  991HOH     H2 3179   2.096   2.001   3.770
  992HOH      O 3180   3.775   3.638   3.181
  992HOH     H1 3181   3.823   3.619   3.262
  992HOH     H2 3182   3.840   3.627   3.112
  993HOH      O 3183   0.815   3.173   3.102
  993HOH     H1 3184   0.792   3.168   3.194
  993HOH     H2 3185   0.745   3.127   3.056
  994HOH      O 3186   0.838   0.228   2.959
  994HOH     H1 3187   0.752   0.212   2.998
  994HOH     H2 3188   0.894   0.159   2.994
  995HOH      O 3189   2.082   3.125   1.422
  995HOH     H1 3190   2.115   3.052   1.370
  995HOH     H2 3191   2.138   3.199   1.399
  996HOH      O 3192   0.175   2.200   2.850
  996HOH     H1 3193   0.247   2.179   2.909
  996HOH     H2 3194   0.174   2.129   2.786
  997HOH      O 3195   1.585   2.662   0.034
  997HOH     H1 3196   1.572   2.749   0.072
  997HOH     H2 3197   1.551   2.602   0.099
  998HOH      O 3198   1.765   1.408   0.548
  998HOH     H1 3199   1.677   1.409   0.511
  998HOH     H2 3200   1.801   1.494   0.528
  999HOH      O 3201   2.720   1.505   0.603
  999HOH     H1 3202   2.810   1.532   0.622
  999HOH     H2 3203   2.724   1.467   0.516
 1000HOH      O 3204   0.415   1.593   2.759
 1000HOH     H1 3205   0.369   1.644   2.692
 1000HOH     H2 3206   0.378   1.625   2.841
 1001HOH      O 3207   1.064   2.878   1.668
 1001HOH     H1 3208   1.133   2.825   1.630
 1001HOH     H2 3209   1.100   2.909   1.752
 1002HOH      O 3210   2.477   3.984   1.953
 1002HOH     H1 3211   2.441   4.032   1.878
 1002HOH     H2 3212   2.571   3.986   1.939
 1003HOH      O 3213   3.977   1.592   0.881
 1003HOH     H1 3214   3.967   1.517   0.939
 1003HOH     H2 3215   3.940   1.666   0.930
 1004HOH      O 3216   1.266   0.718   0.374
 1004HOH     H1 3217   1.330   0.733   0.443
 1004HOH     H2 3218   1.204   0.791   0.382
 1005HOH      O 3219   2.680   0.783   2.918
 1005HOH     H1 3220   2.691   0.794   3.012
 1005HOH     H2 3221   2.679   0.872   2.883
 1006HOH      O 3222   0.592   1.430   3.555
 1006HOH     H1 3223   0.509   1.382   3.546
 1006HOH     H2 3224   0.566   1.521   3.566
 1007HOH      O 3225   1.898   2.512   3.055
 1007HOH     H1 3226   1.865   2.602   3.054
 1007HOH     H2 3227   1.921   2.494   2.964
 1008HOH      O 3228   2.423   1.087   0.045
 1008HOH     H1 3229   2.338   1.079   0.002
 1008HOH     H2 3230   2.487   1.070  -0.024
 1009HOH      O 3231   1.895   1.001   0.559
 1009HOH     H1 3232   1.949   1.071   0.595
 1009HOH     H2 3233   1.805   1.032   0.570
 1010HOH      O 3234   1.769   2.392   3.498
 1010HOH     H1 3235   1.815   2.383   3.415
 1010HOH     H2 3236   1.690   2.338   3.488
 1011HOH      O 3237   3.205   2.544   0.945
 1011HOH     H1 3238   3.166   2.537   1.032
 1011HOH     H2 3239   3.199   2.638   0.924
 1012HOH      O 3240   0.355   1.103   2.785
 1012HOH     H1 3241   0.436   1.113   2.734
 1012HOH     H2 3242   0.374   1.145   2.869
 1013HOH      O 3243   1.452   0.319   0.307
 1013HOH     H1 3244   1.480   0.227   0.307
 1013HOH     H2 3245   1.515   0.364   0.363
 1014HOH      O 3246   0.060   1.427   2.638
 1014HOH     H1 3247   0.002   1.464   2.572
 1014HOH     H2 3248   0.015   1.349   2.670
 1015HOH      O 3249   3.041   0.433   2.049
 1015HOH     H1 3250   3.034   0.515   2.000
 1015HOH     H2 3251   3.084   0.458   2.131
 1016HOH      O 3252   0.131   2.371   3.211
 1016HOH     H1 3253   0.087   2.373   3.126
 1016HOH     H2 3254   0.198   2.439   3.205
 1017HOH      O 3255   3.785   2.236   2.601
 1017HOH     H1 3256   3.718   2.215   2.666
 1017HOH     H2 3257   3.785   2.331   2.597
 1018HOH      O 3258   2.330   1.620   2.866
 1018HOH     H1 3259   2.264   1.609   2.934
 1018HOH     H2 3260   2.283   1.610   2.784
 1019HOH      O 3261   3.428   1.305   2.558
 1019HOH     H1 3262   3.415   1.211   2.543
 1019HOH     H2 3263   3.362   1.347   2.503
 1020HOH      O 3264   3.896   3.707   2.330
 1020HOH     H1 3265   3.957   3.779   2.313
 1020HOH     H2 3266   3.813   3.750   2.349
 1021HOH      O 3267   2.073   3.329   3.801
 1021HOH     H1 3268   2.116   3.349   3.718
 1021HOH     H2 3269   2.072   3.234   3.805
 1022HOH      O 3270   1.040   3.576   2.106
 1022HOH     H1 3271   0.981   3.572   2.181
 1022HOH     H2 3272   1.024   3.495   2.058
 1023HOH      O 3273   3.791   0.234   2.577
 1023HOH     H1 3274   3.864   0.282   2.538
 1023HOH     H2 3275   3.801   0.145   2.544
 1024HOH      O 3276   1.888   3.266   0.767
 1024HOH     H1 3277   1.967   3.318   0.754
 1024HOH     H2 3278   1.912   3.203   0.836
 1025HOH      O 3279   0.373   0.017   2.273
 1025HOH     H1 3280   0.389   0.050   2.184
 1025HOH     H2 3281   0.416   0.081   2.330
 1026HOH      O 3282   0.905   1.207   0.631
 1026HOH     H1 3283   0.890   1.226   0.723
 1026HOH     H2 3284   0.989   1.247   0.611
 1027HOH      O 3285   0.698   3.020   0.402
 1027HOH     H1 3286   0.633   3.080   0.364
 1027HOH     H2 3287   0.782   3.062   0.385
 1028HOH      O 3288   2.461   0.202   3.589
 1028HOH     H1 3289   2.405   0.279   3.577
 1028HOH     H2 3290   2.528   0.231   3.651
 1029HOH      O 3291   2.595   3.525   3.263
 1029HOH     H1 3292   2.622   3.562   3.347
 1029HOH     H2 3293   2.505   3.555   3.250
 1030HOH      O 3294   3.236   1.777   3.622
 1030HOH     H1 3295   3.196   1.854   3.662
 1030HOH     H2 3296   3.252   1.802   3.531
 1031HOH      O 3297   3.687   3.149   2.524
 1031HOH     H1 3298   3.759   3.130   2.464
 1031HOH     H2 3299   3.647   3.229   2.488
 1032HOH      O 3300   3.702   0.078   0.165
 1032HOH     H1 3301   3.640   0.009   0.140
 1032HOH     H2 3302   3.781   0.057   0.116
 1033HOH      O 3303   1.529   2.414   1.094
 1033HOH     H1 3304   1.604   2.454   1.050
 1033HOH     H2 3305   1.568   2.356   1.159
 1034HOH      O 3306   3.178   3.056   1.674
 1034HOH     H1 3307   3.095   3.059   1.627
 1034HOH     H2 3308   3.245   3.060   1.606
 1035HOH      O 3309   1.952   3.071   0.940
 1035HOH     H1 3310   1.882   3.008   0.953
 1035HOH     H2 3311   2.017   3.025   0.887
 1036HOH      O 3312   1.328   3.739   4.066
 1036HOH     H1 3313   1.303   3.654   4.029
 1036HOH     H2 3314   1.321   3.800   3.992
 1037HOH      O 3315   0.894   3.998   2.317
 1037HOH     H1 3316   0.826   3.931   2.311
 1037HOH     H2 3317   0.971   3.957   2.278
 1038HOH      O 3318   3.889   1.565   0.643
 1038HOH     H1 3319   3.928   1.560   0.730
 1038HOH     H2 3320   3.901   1.478   0.606
 1039HOH      O 3321   2.997   0.374   1.781
 1039HOH     H1 3322   3.010   0.361   1.875
 1039HOH     H2 3323   3.085   0.393   1.747
 1040HOH      O 3324   2.526   1.174   1.503
 1040HOH     H1 3325   2.606   1.212   1.466
 1040HOH     H2 3326   2.558   1.111   1.568
 1041HOH      O 3327   0.834   2.132   0.364
 1041HOH     H1 3328   0.795   2.138   0.452
 1041HOH     H2 3329   0.908   2.192   0.367
 1042HOH      O 3330   1.251   1.331   0.794
 1042HOH     H1 3331   1.243   1.423   0.819
 1042HOH     H2 3332   1.221   1.329   0.703
 1043HOH      O 3333   1.014   3.767   3.981
 1043HOH     H1 3334   1.037   3.796   3.893
 1043HOH     H2 3335   0.971   3.842   4.021
 1044HOH      O 3336   2.479   2.130   2.049
 1044HOH     H1 3337   2.507   2.060   1.990
 1044HOH     H2 3338   2.498   2.095   2.137
 1045HOH      O 3339   3.863   3.526   2.124
 1045HOH     H1 3340   3.848   3.443   2.171
 1045HOH     H2 3341   3.838   3.594   2.187
 1046HOH      O 3342   1.319   3.402   2.050
 1046HOH     H1 3343   1.299   3.438   1.964
 1046HOH     H2 3344   1.363   3.473   2.097
 1047HOH      O 3345   2.788   0.239   4.007
 1047HOH     H1 3346   2.867   0.292   3.998
 1047HOH     H2 3347   2.794   0.203   4.095
 1048HOH      O 3348   0.073   1.229   1.927
 1048HOH     H1 3349   0.101   1.270   2.009
 1048HOH     H2 3350   0.155   1.213   1.879
 1049HOH      O 3351   2.943   0.487   2.843
 1049HOH     H1 3352   3.013   0.480   2.779
 1049HOH     H2 3353   2.987   0.489   2.927
 1050HOH      O 3354   1.257   3.467   2.642
 1050HOH     H1 3355   1.260   3.560   2.620
 1050HOH     H2 3356   1.317   3.426   2.579
 1051HOH      O 3357   3.039   2.625   0.383
 1051HOH     H1 3358   3.073   2.708   0.349
 1051HOH     H2 3359   3.116   2.570   0.396
 1052HOH      O 3360   1.070   1.977   0.340
 1052HOH     H1 3361   0.984   2.018   0.330
 1052HOH     H2 3362   1.068   1.903   0.279
 1053HOH      O 3363   2.077   3.232   0.044
 1053HOH     H1 3364   2.015   3.191  -0.017
 1053HOH     H2 3365   2.151   3.257  -0.011
 1054HOH      O 3366   1.167   2.839   2.194
 1054HOH     H1 3367   1.156   2.924   2.234
 1054HOH     H2 3368   1.176   2.778   2.267
 1055HOH      O 3369   1.445   1.999   3.612
 1055HOH     H1 3370   1.396   2.068   3.567
 1055HOH     H2 3371   1.478   2.040   3.692
 1056HOH      O 3372   0.606   3.848   1.462
 1056HOH     H1 3373   0.632   3.758   1.441
 1056HOH     H2 3374   0.538   3.838   1.529
 1057HOH      O 3375   2.871   3.375   2.035
 1057HOH     H1 3376   2.917   3.292   2.042
 1057HOH     H2 3377   2.796   3.357   1.978
 1058HOH      O 3378   1.554   0.775   2.977
 1058HOH     H1 3379   1.490   0.742   2.915
 1058HOH     H2 3380   1.616   0.702   2.989
 1059HOH      O 3381   0.925   0.131   0.737
 1059HOH     H1 3382   0.942   0.192   0.809
 1059HOH     H2 3383   0.864   0.067   0.774
 1060HOH      O 3384   3.536   3.429   2.235
 1060HOH     H1 3385   3.595   3.359   2.210
 1060HOH     H2 3386   3.482   3.445   2.157
 1061HOH      O 3387   3.439   1.719   2.770
 1061HOH     H1 3388   3.375   1.650   2.757
 1061HOH     H2 3389   3.444   1.729   2.866
 1062HOH      O 3390   0.667   2.688   0.137
 1062HOH     H1 3391   0.611   2.638   0.197
 1062HOH     H2 3392   0.637   2.664   0.050
 1063HOH      O 3393   3.917   1.211   0.233
 1063HOH     H1 3394   3.885   1.134   0.185
 1063HOH     H2 3395   3.973   1.175   0.301
 1064HOH      O 3396   1.633   2.383   0.699
 1064HOH     H1 3397   1.724   2.379   0.728
 1064HOH     H2 3398   1.622   2.472   0.667
 1065HOH      O 3399   2.922   0.817   2.626
 1065HOH     H1 3400   2.913   0.866   2.544
 1065HOH     H2 3401   2.837   0.774   2.637
 1066HOH      O 3402   1.907   2.110   3.169
 1066HOH     H1 3403   1.867   2.029   3.137
 1066HOH     H2 3404   1.974   2.132   3.104
 1067HOH      O 3405   1.019   3.955   3.049
 1067HOH     H1 3406   0.938   3.960   3.099
 1067HOH     H2 3407   1.073   3.892   3.097
 1068HOH      O 3408   3.827   2.754   2.875
 1068HOH     H1 3409   3.779   2.792   2.802
 1068HOH     H2 3410   3.778   2.782   2.953
 1069HOH      O 3411   0.394   1.862   2.997
 1069HOH     H1 3412   0.466   1.829   3.050
 1069HOH     H2 3413   0.398   1.957   3.008
 1070HOH      O 3414   3.171   2.791   0.880
 1070HOH     H1 3415   3.089   2.813   0.836
 1070HOH     H2 3416   3.223   2.871   0.876
 1071HOH      O 3417   1.338   1.340   3.867
 1071HOH     H1 3418   1.320   1.251   3.835
 1071HOH     H2 3419   1.259   1.389   3.846
 1072HOH      O 3420   0.744   0.468   2.401
 1072HOH     H1 3421   0.737   0.553   2.445
 1072HOH     H2 3422   0.735   0.489   2.308
 1073HOH      O 3423   1.000   2.518   3.216
 1073HOH     H1 3424   1.095   2.515   3.200
 1073HOH     H2 3425   0.991   2.514   3.311
 1074HOH      O 3426   2.273   1.819   0.685
 1074HOH     H1 3427   2.359   1.845   0.653
 1074HOH     H2 3428   2.227   1.785   0.608
 1075HOH      O 3429   3.788   3.988   2.111
 1075HOH     H1 3430   3.870   3.988   2.161
 1075HOH     H2 3431   3.753   3.899   2.123
 1076HOH      O 3432   3.814   2.717   0.281
 1076HOH     H1 3433   3.821   2.720   0.376
 1076HOH     H2 3434   3.737   2.663   0.264
 1077HOH      O 3435   3.066   2.993   3.310
 1077HOH     H1 3436   3.011   2.954   3.379
 1077HOH     H2 3437   3.105   2.918   3.266
 1078HOH      O 3438   1.128   1.973   1.543
 1078HOH     H1 3439   1.070   2.046   1.524
 1078HOH     H2 3440   1.182   1.964   1.464
 1079HOH      O 3441   0.319   3.321   3.031
 1079HOH     H1 3442   0.393   3.360   3.078
 1079HOH     H2 3443   0.320   3.362   2.945
 1080HOH      O 3444   1.045   0.766   3.428
 1080HOH     H1 3445   0.976   0.820   3.464
 1080HOH     H2 3446   1.048   0.788   3.335
 1081HOH      O 3447   1.858   0.884   1.804
 1081HOH     H1 3448   1.787   0.879   1.740
 1081HOH     H2 3449   1.893   0.973   1.793
 1082HOH      O 3450   3.513   3.345   2.475
 1082HOH     H1 3451   3.553   3.423   2.514
 1082HOH     H2 3452   3.509   3.365   2.382
 1083HOH      O 3453   0.057   0.889   0.236
 1083HOH     H1 3454   0.140   0.892   0.284
 1083HOH     H2 3455   0.008   0.819   0.278
 1084HOH      O 3456   2.095   2.603   0.486
 1084HOH     H1 3457   2.145   2.612   0.567
 1084HOH     H2 3458   2.082   2.693   0.456
 1085HOH      O 3459   1.371   3.132   0.191
 1085HOH     H1 3460   1.390   3.156   0.100
 1085HOH     H2 3461   1.305   3.196   0.219
 1086HOH      O 3462   1.540   1.167   3.424
 1086HOH     H1 3463   1.525   1.254   3.461
 1086HOH     H2 3464   1.552   1.183   3.331
 1087HOH      O 3465   3.084   1.606   3.417
 1087HOH     H1 3466   3.075   1.642   3.506
 1087HOH     H2 3467   3.136   1.671   3.371
 1088HOH      O 3468   3.648   0.273   1.522
 1088HOH     H1 3469   3.721   0.311   1.474
 1088HOH     H2 3470   3.623   0.196   1.471
 1089HOH      O 3471   0.825   0.385   2.740
 1089HOH     H1 3472   0.853   0.337   2.662
 1089HOH     H2 3473   0.834   0.322   2.812
 1090HOH      O 3474   0.074   3.699   3.273
 1090HOH     H1 3475  -0.014   3.679   3.304
 1090HOH     H2 3476   0.125   3.714   3.353
 1091HOH      O 3477   3.705   1.256   3.501
 1091HOH     H1 3478   3.627   1.218   3.541
 1091HOH     H2 3479   3.778   1.224   3.554
 1092HOH      O 3480   1.607   2.209   3.212
 1092HOH     H1 3481   1.558   2.252   3.142
 1092HOH     H2 3482   1.685   2.263   3.224
 1093HOH      O 3483   2.763   0.847   3.830
 1093HOH     H1 3484   2.755   0.760   3.869
 1093HOH     H2 3485   2.857   0.860   3.820
 1094HOH      O 3486   0.508   3.609   3.564
 1094HOH     H1 3487   0.580   3.634   3.506
 1094HOH     H2 3488   0.432   3.656   3.530
 1095HOH      O 3489   3.353   3.742   3.847
 1095HOH     H1 3490   3.301   3.793   3.784
 1095HOH     H2 3491   3.290   3.715   3.914
 1096HOH      O 3492   1.092   0.310   3.566
 1096HOH     H1 3493   1.153   0.325   3.494
 1096HOH     H2 3494   1.026   0.378   3.557
 1097HOH      O 3495   1.673   0.312   1.031
 1097HOH     H1 3496   1.743   0.325   1.094
 1097HOH     H2 3497   1.635   0.227   1.054
 1098HOH      O 3498   0.158   3.958   0.129
 1098HOH     H1 3499   0.181   3.964   0.222
 1098HOH     H2 3500   0.224   3.900   0.092
 1099HOH      O 3501   0.566   1.857   1.840
 1099HOH     H1 3502   0.655   1.882   1.865
 1099HOH     H2 3503   0.577   1.810   1.757
 1100HOH      O 3504   2.759   3.970   0.620
 1100HOH     H1 3505   2.796   4.041   0.568
 1100HOH     H2 3506   2.819   3.960   0.694
 1101HOH      O 3507   0.542   0.901   0.778
 1101HOH     H1 3508   0.611   0.890   0.714
 1101HOH     H2 3509   0.565   0.981   0.825
 1102HOH      O 3510   0.034   3.560   2.695
 1102HOH     H1 3511  -0.007   3.539   2.612
 1102HOH     H2 3512   0.041   3.656   2.695
 1103HOH      O 3513   4.018   2.808   3.212
 1103HOH     H1 3514   3.963   2.744   3.166
 1103HOH     H2 3515   3.995   2.892   3.173
 1104HOH      O 3516   2.065   2.281   3.645
 1104HOH     H1 3517   2.128   2.234   3.590
 1104HOH     H2 3518   1.983   2.278   3.595
 1105HOH      O 3519   0.613   0.683   3.721
 1105HOH     H1 3520   0.671   0.608   3.708
 1105HOH     H2 3521   0.668   0.748   3.765
 1106HOH      O 3522   1.927   3.022   3.091
 1106HOH     H1 3523   1.910   2.968   3.168
 1106HOH     H2 3524   1.979   3.095   3.124
 1107HOH      O 3525   4.030   2.760   1.379
 1107HOH     H1 3526   4.099   2.746   1.444
 1107HOH     H2 3527   3.949   2.758   1.429
 1108HOH      O 3528   1.417   1.627   1.086
 1108HOH     H1 3529   1.496   1.577   1.109
 1108HOH     H2 3530   1.367   1.630   1.168
 1109HOH      O 3531   1.393   3.161   1.923
 1109HOH     H1 3532   1.428   3.210   1.849
 1109HOH     H2 3533   1.350   3.227   1.978
 1110HOH      O 3534   3.183   2.233   1.934
 1110HOH     H1 3535   3.097   2.226   1.975
 1110HOH     H2 3536   3.228   2.302   1.983
 1111HOH      O 3537   3.401   0.651   2.475
 1111HOH     H1 3538   3.399   0.568   2.427
 1111HOH     H2 3539   3.309   0.667   2.498
 1112HOH      O 3540   1.064   1.847   1.127
 1112HOH     H1 3541   1.063   1.799   1.210
 1112HOH     H2 3542   1.137   1.908   1.135
 1113HOH      O 3543   1.950   2.111   2.365
 1113HOH     H1 3544   2.028   2.166   2.358
 1113HOH     H2 3545   1.970   2.049   2.434
 1114HOH      O 3546   0.901   3.208   0.869
 1114HOH     H1 3547   0.980   3.179   0.824
 1114HOH     H2 3548   0.912   3.177   0.959
 1115HOH      O 3549   0.352   2.927   1.405
 1115HOH     H1 3550   0.264   2.964   1.397
 1115HOH     H2 3551   0.374   2.899   1.316
 1116HOH      O 3552   1.967   3.573   1.689
 1116HOH     H1 3553   1.948   3.666   1.686
 1116HOH     H2 3554   1.988   3.555   1.781
 1117HOH      O 3555   2.633   2.059   3.594
 1117HOH     H1 3556   2.644   2.058   3.499
 1117HOH     H2 3557   2.652   2.149   3.620
 1118HOH      O 3558   2.317   1.355   1.772
 1118HOH     H1 3559   2.309   1.326   1.681
 1118HOH     H2 3560   2.259   1.431   1.777
 1119HOH      O 3561   2.731   1.941   1.163
 1119HOH     H1 3562   2.691   1.855   1.177
 1119HOH     H2 3563   2.766   1.937   1.074
 1120HOH      O 3564   3.806   1.515   3.488
 1120HOH     H1 3565   3.770   1.430   3.514
 1120HOH     H2 3566   3.737   1.554   3.434
 1121HOH      O 3567   2.896   3.553   0.351
 1121HOH     H1 3568   2.901   3.581   0.442
 1121HOH     H2 3569   2.931   3.464   0.351
 1122HOH      O 3570   0.443   1.304   1.929
 1122HOH     H1 3571   0.425   1.388   1.887
 1122HOH     H2 3572   0.374   1.245   1.898
 1123HOH      O 3573   1.045   1.034   1.846
 1123HOH     H1 3574   1.111   0.996   1.788
 1123HOH     H2 3575   0.965   1.036   1.793
 1124HOH      O 3576   2.202   2.493   2.986
 1124HOH     H1 3577   2.170   2.583   2.984
 1124HOH     H2 3578   2.288   2.497   2.943
 1125HOH      O 3579   1.067   1.931   2.962
 1125HOH     H1 3580   1.091   1.958   2.874
 1125HOH     H2 3581   0.994   1.870   2.949
 1126HOH      O 3582   1.940   1.133   1.115
 1126HOH     H1 3583   1.874   1.126   1.045
 1126HOH     H2 3584   1.977   1.220   1.104
 1127HOH      O 3585   1.296   2.119   3.401
 1127HOH     H1 3586   1.222   2.117   3.461
 1127HOH     H2 3587   1.261   2.083   3.319
 1128HOH      O 3588   2.290   2.297   1.652
 1128HOH     H1 3589   2.344   2.218   1.645
 1128HOH     H2 3590   2.214   2.269   1.703
 1129HOH      O 3591   3.746   2.023   1.118
 1129HOH     H1 3592   3.684   1.951   1.128
 1129HOH     H2 3593   3.694   2.102   1.135
 1130HOH      O 3594   3.957   0.287   4.072
 1130HOH     H1 3595   3.943   0.198   4.042
 1130HOH     H2 3596   3.947   0.341   3.993
 1131HOH      O 3597   3.773   1.802   3.922
 1131HOH     H1 3598   3.772   1.720   3.972
 1131HOH     H2 3599   3.681   1.826   3.913
 1132HOH      O 3600   3.506   3.912   2.594
 1132HOH     H1 3601   3.584   3.924   2.540
 1132HOH     H2 3602   3.515   3.975   2.665
 1133HOH      O 3603   0.282   3.767   3.472
 1133HOH     H1 3604   0.265   3.763   3.566
 1133HOH     H2 3605   0.328   3.850   3.460
 1134HOH      O 3606   2.716   2.699   3.648
 1134HOH     H1 3607   2.738   2.707   3.741
 1134HOH     H2 3608   2.711   2.605   3.632
 1135HOH      O 3609   0.680   2.230   3.560
 1135HOH     H1 3610   0.703   2.139   3.541
 1135HOH     H2 3611   0.681   2.273   3.475
 1136HOH      O 3612   1.133   2.862   0.706
 1136HOH     H1 3613   1.080   2.854   0.785
 1136HOH     H2 3614   1.070   2.853   0.634
 1137HOH      O 3615   3.109   2.288   1.680
 1137HOH     H1 3616   3.135   2.280   1.771
 1137HOH     H2 3617   3.037   2.225   1.670
 1138HOH      O 3618   2.496   0.006   3.416
 1138HOH     H1 3619   2.491   0.077   3.480
 1138HOH     H2 3620   2.518  -0.072   3.467
 1139HOH      O 3621   2.336   3.847   2.675
 1139HOH     H1 3622   2.303   3.860   2.586
 1139HOH     H2 3623   2.356   3.935   2.707
 1140HOH      O 3624   3.923   0.451   0.797
 1140HOH     H1 3625   3.941   0.430   0.889
 1140HOH     H2 3626   3.948   0.372   0.749
 1141HOH      O 3627   3.122   2.273   2.786
 1141HOH     H1 3628   3.210   2.240   2.799
 1141HOH     H2 3629   3.117   2.350   2.842
 1142HOH      O 3630   0.278   2.697   2.451
 1142HOH     H1 3631   0.332   2.622   2.474
 1142HOH     H2 3632   0.217   2.663   2.385
 1143HOH      O 3633   0.821   2.352   1.713
 1143HOH     H1 3634   0.880   2.380   1.783
 1143HOH     H2 3635   0.819   2.426   1.652
 1144HOH      O 3636   2.658   0.804   0.770
 1144HOH     H1 3637   2.656   0.735   0.836
 1144HOH     H2 3638   2.633   0.761   0.689
 1145HOH      O 3639   0.927   2.303   2.611
 1145HOH     H1 3640   0.859   2.288   2.677
 1145HOH     H2 3641   0.885   2.359   2.546
 1146HOH      O 3642   0.656   1.620   0.719
 1146HOH     H1 3643   0.616   1.632   0.633
 1146HOH     H2 3644   0.745   1.654   0.708
 1147HOH      O 3645   3.031   1.077   3.486
 1147HOH     H1 3646   3.032   1.112   3.575
 1147HOH     H2 3647   3.123   1.058   3.468
 1148HOH      O 3648   0.413   2.863   1.702
 1148HOH     H1 3649   0.388   2.907   1.621
 1148HOH     H2 3650   0.424   2.771   1.676
 1149HOH      O 3651   1.825   1.833   2.742
 1149HOH     H1 3652   1.777   1.764   2.696
 1149HOH     H2 3653   1.826   1.805   2.833
 1150HOH      O 3654   3.372   1.714   0.506
 1150HOH     H1 3655   3.408   1.756   0.584
 1150HOH     H2 3656   3.371   1.620   0.528
 1151HOH      O 3657   3.984   3.247   2.118
 1151HOH     H1 3658   4.040   3.315   2.082
 1151HOH     H2 3659   3.983   3.179   2.050
 1152HOH      O 3660   1.030   0.737   1.753
 1152HOH     H1 3661   1.099   0.798   1.729
 1152HOH     H2 3662   1.055   0.654   1.712
 1153HOH      O 3663   1.289   3.453   1.781
 1153HOH     H1 3664   1.226   3.390   1.745
 1153HOH     H2 3665   1.373   3.407   1.779
 1154HOH      O 3666   2.335   2.251   0.737
 1154HOH     H1 3667   2.404   2.185   0.749
 1154HOH     H2 3668   2.317   2.282   0.826
 1155HOH      O 3669   1.677   0.849   0.869
 1155HOH     H1 3670   1.704   0.760   0.845
 1155HOH     H2 3671   1.605   0.836   0.931
 1156HOH      O 3672   1.305   1.728   2.827
 1156HOH     H1 3673   1.212   1.710   2.841
 1156HOH     H2 3674   1.306   1.791   2.755
 1157HOH      O 3675   1.536   0.698   3.532
 1157HOH     H1 3676   1.620   0.719   3.493
 1157HOH     H2 3677   1.529   0.602   3.525
 1158HOH      O 3678   2.319   3.163   0.944
 1158HOH     H1 3679   2.285   3.111   0.871
 1158HOH     H2 3680   2.348   3.098   1.008
 1159HOH      O 3681   0.153   3.815   3.817
 1159HOH     H1 3682   0.073   3.866   3.805
 1159HOH     H2 3683   0.127   3.725   3.794
 1160HOH      O 3684   3.278   3.383   3.055
 1160HOH     H1 3685   3.348   3.416   3.111
 1160HOH     H2 3686   3.290   3.288   3.054
 1161HOH      O 3687   1.285   2.858   2.920
 1161HOH     H1 3688   1.333   2.805   2.857
 1161HOH     H2 3689   1.288   2.947   2.884
 1162HOH      O 3690   0.836   3.117   2.149
 1162HOH     H1 3691   0.757   3.139   2.100
 1162HOH     H2 3692   0.903   3.174   2.113
 1163HOH      O 3693   3.112   0.794   3.192
 1163HOH     H1 3694   3.174   0.787   3.264
 1163HOH     H2 3695   3.057   0.716   3.201
 1164HOH      O 3696   2.811   3.063   2.871
 1164HOH     H1 3697   2.846   3.147   2.898
 1164HOH     H2 3698   2.727   3.084   2.831
 1165HOH      O 3699   1.085   0.027   3.498
 1165HOH     H1 3700   1.052   0.116   3.512
 1165HOH     H2 3701   1.115   0.026   3.408
 1166HOH      O 3702   2.794   3.655   1.461
 1166HOH     H1 3703   2.803   3.668   1.367
 1166HOH     H2 3704   2.711   3.608   1.471
 1167HOH      O 3705   3.802   0.173   3.836
 1167HOH     H1 3706   3.842   0.086   3.840
 1167HOH     H2 3707   3.874   0.231   3.811
 1168HOH      O 3708   1.738   1.034   4.002
 1168HOH     H1 3709   1.686   1.094   3.949
 1168HOH     H2 3710   1.825   1.075   4.006
 1169HOH      O 3711   3.463   0.755   2.722
 1169HOH     H1 3712   3.531   0.711   2.773
 1169HOH     H2 3713   3.462   0.708   2.639
 1170HOH      O 3714   3.494   0.450   3.618
 1170HOH     H1 3715   3.459   0.370   3.657
 1170HOH     H2 3716   3.471   0.442   3.525
 1171HOH      O 3717   1.567   0.994   2.320
 1171HOH     H1 3718   1.507   1.021   2.250
 1171HOH     H2 3719   1.541   1.048   2.395
 1172HOH      O 3720   2.503   1.478   3.134
 1172HOH     H1 3721   2.436   1.441   3.191
 1172HOH     H2 3722   2.457   1.503   3.055
 1173HOH      O 3723   3.342   2.525   1.962
 1173HOH     H1 3724   3.395   2.570   2.028
 1173HOH     H2 3725   3.283   2.593   1.928
 1174HOH      O 3726   1.477   0.833   3.259
 1174HOH     H1 3727   1.521   0.800   3.180
 1174HOH     H2 3728   1.547   0.836   3.325
 1175HOH      O 3729   1.685   2.928   2.657
 1175HOH     H1 3730   1.619   2.972   2.603
 1175HOH     H2 3731   1.734   2.874   2.595
 1176HOH      O 3732   3.234  -0.013   0.818
 1176HOH     H1 3733   3.162  -0.028   0.879
 1176HOH     H2 3734   3.288   0.054   0.861
 1177HOH      O 3735   0.897   1.402   3.628
 1177HOH     H1 3736   0.830   1.335   3.637
 1177HOH     H2 3737   0.924   1.397   3.536
 1178HOH      O 3738   1.969   0.529   3.877
 1178HOH     H1 3739   2.033   0.583   3.924
 1178HOH     H2 3740   2.003   0.440   3.886
 1179HOH      O 3741   3.979   1.065   0.503
 1179HOH     H1 3742   3.896   1.018   0.501
 1179HOH     H2 3743   4.044   0.999   0.524
 1180HOH      O 3744   2.770   3.477   2.688
 1180HOH     H1 3745   2.714   3.472   2.610
 1180HOH     H2 3746   2.783   3.386   2.714
 1181HOH      O 3747   0.652   2.003   2.943
 1181HOH     H1 3748   0.677   1.938   3.008
 1181HOH     H2 3749   0.677   1.964   2.859
 1182HOH      O 3750   1.826   3.388   1.592
 1182HOH     H1 3751   1.890   3.451   1.625
 1182HOH     H2 3752   1.845   3.383   1.498
 1183HOH      O 3753   3.765   0.627   3.243
 1183HOH     H1 3754   3.679   0.629   3.202
 1183HOH     H2 3755   3.824   0.596   3.173
 1184HOH      O 3756   1.812   0.007   2.327
 1184HOH     H1 3757   1.832   0.101   2.322
 1184HOH     H2 3758   1.896  -0.034   2.349
 1185HOH      O 3759   2.396   3.442   1.831
 1185HOH     H1 3760   2.406   3.537   1.823
 1185HOH     H2 3761   2.349   3.429   1.913
 1186HOH      O 3762   0.504   0.002   2.759
 1186HOH     H1 3763   0.565   0.070   2.788
 1186HOH     H2 3764   0.424   0.049   2.737
 1187HOH      O 3765   2.375   1.871   3.113
 1187HOH     H1 3766   2.407   1.799   3.059
 1187HOH     H2 3767   2.302   1.834   3.162
 1188HOH      O 3768   3.200   1.425   1.007
 1188HOH     H1 3769   3.282   1.384   1.037
 1188HOH     H2 3770   3.139   1.352   0.997
 1189HOH      O 3771   1.692   2.984   0.542
 1189HOH     H1 3772   1.727   3.050   0.602
 1189HOH     H2 3773   1.597   2.998   0.544
 1190HOH      O 3774   3.290   2.439   3.659
 1190HOH     H1 3775   3.258   2.374   3.722
 1190HOH     H2 3776   3.265   2.403   3.574
 1191HOH      O 3777   0.760   3.487   2.240
 1191HOH     H1 3778   0.793   3.434   2.312
 1191HOH     H2 3779   0.743   3.423   2.170
 1192HOH      O 3780   1.974   1.855   2.486
 1192HOH     H1 3781   1.980   1.764   2.458
 1192HOH     H2 3782   1.934   1.852   2.572
 1193HOH      O 3783   0.131   1.048   1.199
 1193HOH     H1 3784   0.151   1.106   1.126
 1193HOH     H2 3785   0.207   0.990   1.205
 1194HOH      O 3786   3.913   3.197   2.374
 1194HOH     H1 3787   3.939   3.204   2.283
 1194HOH     H2 3788   3.925   3.285   2.409
 1195HOH      O 3789   3.418   0.411   0.320
 1195HOH     H1 3790   3.502   0.414   0.273
 1195HOH     H2 3791   3.442   0.413   0.412
 1196HOH      O 3792   3.656   0.623   2.865
 1196HOH     H1 3793   3.717   0.658   2.930
 1196HOH     H2 3794   3.687   0.535   2.847
 1197HOH      O 3795   2.784   2.443   1.090
 1197HOH     H1 3796   2.801   2.497   1.013
 1197HOH     H2 3797   2.852   2.375   1.088
 1198HOH      O 3798   2.342   0.414   0.113
 1198HOH     H1 3799   2.347   0.331   0.066
 1198HOH     H2 3800   2.270   0.461   0.072
 1199HOH      O 3801   2.256   0.750   2.487
 1199HOH     H1 3802   2.201   0.674   2.468
 1199HOH     H2 3803   2.247   0.806   2.410
 1200HOH      O 3804   0.871   2.987   1.519
 1200HOH     H1 3805   0.806   2.924   1.549
 1200HOH     H2 3806   0.954   2.955   1.555
 1201HOH      O 3807   1.982   2.589   2.776
 1201HOH     H1 3808   1.920   2.650   2.816
 1201HOH     H2 3809   2.054   2.645   2.747
 1202HOH      O 3810   2.671   0.191   2.662
 1202HOH     H1 3811   2.739   0.182   2.728
 1202HOH     H2 3812   2.598   0.233   2.708
 1203HOH      O 3813   0.636   2.686   2.223
 1203HOH     H1 3814   0.693   2.753   2.186
 1203HOH     H2 3815   0.551   2.730   2.231
 1204HOH      O 3816   3.186   2.671   3.890
 1204HOH     H1 3817   3.132   2.609   3.842
 1204HOH     H2 3818   3.211   2.625   3.970
 1205HOH      O 3819   3.504   0.298   2.061
 1205HOH     H1 3820   3.555   0.314   1.982
 1205HOH     H2 3821   3.419   0.267   2.029
 1206HOH      O 3822   2.734   3.865   0.060
 1206HOH     H1 3823   2.748   3.770   0.061
 1206HOH     H2 3824   2.743   3.891   0.152
 1207HOH      O 3825   0.409   2.568   1.699
 1207HOH     H1 3826   0.359   2.508   1.756
 1207HOH     H2 3827   0.462   2.510   1.645
 1208HOH      O 3828   1.709   0.769   2.607
 1208HOH     H1 3829   1.790   0.792   2.652
 1208HOH     H2 3830   1.721   0.803   2.518
 1209HOH      O 3831   2.092   3.874   2.218
 1209HOH     H1 3832   2.021   3.857   2.156
 1209HOH     H2 3833   2.109   3.789   2.259
 1210HOH      O 3834   2.031   1.337   3.186
 1210HOH     H1 3835   2.026   1.257   3.134
 1210HOH     H2 3836   1.978   1.318   3.264
 1211HOH      O 3837   0.178   1.965   3.474
 1211HOH     H1 3838   0.136   2.016   3.405
 1211HOH     H2 3839   0.268   1.953   3.442
 1212HOH      O 3840   3.821   1.366   0.973
 1212HOH     H1 3841   3.850   1.277   0.993
 1212HOH     H2 3842   3.780   1.397   1.054
 1213HOH      O 3843   0.551   3.245   1.596
 1213HOH     H1 3844   0.474   3.196   1.626
 1213HOH     H2 3845   0.518   3.301   1.526
 1214HOH      O 3846   3.566   0.311   3.125
 1214HOH     H1 3847   3.614   0.375   3.178
 1214HOH     H2 3848   3.615   0.305   3.043
 1215HOH      O 3849   0.472   2.476   2.424
 1215HOH     H1 3850   0.492   2.382   2.420
 1215HOH     H2 3851   0.481   2.507   2.334
 1216HOH      O 3852   3.623   2.742   1.953
 1216HOH     H1 3853   3.618   2.806   1.882
 1216HOH     H2 3854   3.652   2.661   1.910
 1217HOH      O 3855   2.878   1.026   3.089
 1217HOH     H1 3856   2.964   1.062   3.110
 1217HOH     H2 3857   2.884   1.002   2.996
 1218HOH      O 3858   1.595   1.969   2.186
 1218HOH     H1 3859   1.627   2.038   2.243
 1218HOH     H2 3860   1.502   1.986   2.177
 1219HOH      O 3861   3.038   2.486   3.261
 1219HOH     H1 3862   3.030   2.426   3.336
 1219HOH     H2 3863   2.955   2.533   3.259
 1220HOH      O 3864   0.954   0.552   2.948
 1220HOH     H1 3865   0.898   0.541   2.871
 1220HOH     H2 3866   1.007   0.472   2.951
 1221HOH      O 3867   1.100   3.173   0.664
 1221HOH     H1 3868   1.156   3.102   0.635
 1221HOH     H2 3869   1.155   3.251   0.659
 1222HOH      O 3870   1.433   2.642   0.677
 1222HOH     H1 3871   1.382   2.640   0.758
 1222HOH     H2 3872   1.371   2.617   0.609
 1223HOH      O 3873   0.144   0.529   3.743
 1223HOH     H1 3874   0.207   0.573   3.801
 1223HOH     H2 3875   0.193   0.454   3.708
 1224HOH      O 3876   2.384   3.934   1.362
 1224HOH     H1 3877   2.373   4.000   1.430
 1224HOH     H2 3878   2.358   3.852   1.404
 1225HOH      O 3879   2.218   2.103   2.431
 1225HOH     H1 3880   2.258   2.060   2.507
 1225HOH     H2 3881   2.243   2.196   2.440
 1226HOH      O 3882   3.138   1.551   4.048
 1226HOH     H1 3883   3.126   1.489   3.977
 1226HOH     H2 3884   3.074   1.621   4.030
 1227HOH      O 3885   1.713   1.522   0.286
 1227HOH     H1 3886   1.760   1.513   0.204
 1227HOH     H2 3887   1.683   1.613   0.286
 1228HOH      O 3888   0.229   0.005   0.393
 1228HOH     H1 3889   0.271   0.091   0.389
 1228HOH     H2 3890   0.146   0.021   0.438
 1229HOH      O 3891   0.457   1.022   3.904
 1229HOH     H1 3892   0.373   1.065   3.922
 1229HOH     H2 3893   0.461   1.017   3.808
 1230HOH      O 3894   2.880   2.471   2.642
 1230HOH     H1 3895   2.952   2.532   2.660
 1230HOH     H2 3896   2.918   2.408   2.582
 1231HOH      O 3897   2.178   1.767   3.256
 1231HOH     H1 3898   2.142   1.770   3.345
 1231HOH     H2 3899   2.145   1.685   3.219
 1232HOH      O 3900   3.313   1.752   2.284
 1232HOH     H1 3901   3.284   1.842   2.296
 1232HOH     H2 3902   3.317   1.715   2.372
 1233HOH      O 3903   1.167   0.981   1.139
 1233HOH     H1 3904   1.119   0.906   1.174
 1233HOH     H2 3905   1.219   1.012   1.213
 1234HOH      O 3906   1.767   3.080   0.216
 1234HOH     H1 3907   1.780   3.085   0.121
 1234HOH     H2 3908   1.843   3.125   0.253
 1235HOH      O 3909   1.075   0.299   1.325
 1235HOH     H1 3910   1.170   0.297   1.315
 1235HOH     H2 3911   1.059   0.268   1.414
 1236HOH      O 3912   0.387   3.899   1.948
 1236HOH     H1 3913   0.401   3.950   2.028
 1236HOH     H2 3914   0.294   3.879   1.948
 1237HOH      O 3915   2.081   3.575   3.197
 1237HOH     H1 3916   2.035   3.537   3.122
 1237HOH     H2 3917   2.011   3.607   3.254
 1238HOH      O 3918   3.642   1.457   2.903
 1238HOH     H1 3919   3.670   1.548   2.891
 1238HOH     H2 3920   3.635   1.422   2.814
 1239HOH      O 3921   1.037   1.759   1.922
 1239HOH     H1 3922   1.055   1.781   2.013
 1239HOH     H2 3923   1.094   1.685   1.903
 1240HOH      O 3924   2.461   1.055   1.157
 1240HOH     H1 3925   2.502   1.069   1.072
 1240HOH     H2 3926   2.444   0.961   1.161
 1241HOH      O 3927   1.867   3.754   3.642
 1241HOH     H1 3928   1.948   3.720   3.680
 1241HOH     H2 3929   1.808   3.764   3.716
 1242HOH      O 3930   0.235   2.759   3.091
 1242HOH     H1 3931   0.276   2.845   3.085
 1242HOH     H2 3932   0.157   2.773   3.144
 1243HOH      O 3933   1.349   0.810   3.935
 1243HOH     H1 3934   1.287   0.862   3.986
 1243HOH     H2 3935   1.398   0.760   4.000
 1244HOH      O 3936   2.602   1.739   2.178
 1244HOH     H1 3937   2.539   1.698   2.119
 1244HOH     H2 3938   2.566   1.826   2.195
 1245HOH      O 3939   1.427   1.071   0.036
 1245HOH     H1 3940   1.472   1.118  -0.034
 1245HOH     H2 3941   1.343   1.045  -0.002
 1246HOH      O 3942   0.227   3.478   3.450
 1246HOH     H1 3943   0.154   3.418   3.462
 1246HOH     H2 3944   0.244   3.478   3.356
 1247HOH      O 3945   2.076   0.713   1.461
 1247HOH     H1 3946   2.037   0.781   1.406
 1247HOH     H2 3947   2.170   0.732   1.460
 1248HOH      O 3948   2.039   0.685   3.496
 1248HOH     H1 3949   2.041   0.691   3.401
 1248HOH     H2 3950   1.997   0.601   3.515
 1249HOH      O 3951   2.054   3.673   1.024
 1249HOH     H1 3952   2.105   3.752   1.007
 1249HOH     H2 3953   1.969   3.691   0.985
 1250HOH      O 3954   3.034   0.811   0.113
 1250HOH     H1 3955   3.063   0.810   0.204
 1250HOH     H2 3956   2.979   0.733   0.104
 1251HOH      O 3957   1.671   2.251   0.183
 1251HOH     H1 3958   1.766   2.257   0.197
 1251HOH     H2 3959   1.645   2.340   0.161
 1252HOH      O 3960   2.234   1.361   0.015
 1252HOH     H1 3961   2.215   1.348   0.108
 1252HOH     H2 3962   2.317   1.409   0.014
 1253HOH      O 3963   0.790   3.637   4.056
 1253HOH     H1 3964   0.860   3.696   4.028
 1253HOH     H2 3965   0.737   3.624   3.977
 1254HOH      O 3966   3.652   1.434   1.204
 1254HOH     H1 3967   3.695   1.384   1.274
 1254HOH     H2 3968   3.647   1.523   1.239
 1255HOH      O 3969   3.398   2.271   2.804
 1255HOH     H1 3970   3.467   2.295   2.867
 1255HOH     H2 3971   3.415   2.327   2.728
 1256HOH      O 3972   0.971   2.879   0.040
 1256HOH     H1 3973   1.041   2.903  -0.021
 1256HOH     H2 3974   1.002   2.910   0.125
 1257HOH      O 3975   3.628   2.138   2.954
 1257HOH     H1 3976   3.679   2.177   3.024
 1257HOH     H2 3977   3.608   2.049   2.984
 1258HOH      O 3978   3.776   0.136   1.923
 1258HOH     H1 3979   3.795   0.104   1.834
 1258HOH     H2 3980   3.771   0.057   1.976
 1259HOH      O 3981   0.219   3.115   1.974
 1259HOH     H1 3982   0.304   3.073   1.965
 1259HOH     H2 3983   0.159   3.061   1.923
 1260HOH      O 3984  -0.012   0.195   0.758
 1260HOH     H1 3985   0.057   0.151   0.806
 1260HOH     H2 3986   0.008   0.177   0.666
 1261HOH      O 3987   4.043   1.202   3.408
 1261HOH     H1 3988   4.043   1.107   3.401
 1261HOH     H2 3989   3.982   1.221   3.479
 1262HOH      O 3990   0.453   1.989   2.212
 1262HOH     H1 3991   0.419   1.942   2.136
 1262HOH     H2 3992   0.547   1.972   2.211
 1263HOH      O 3993   0.721   3.362   0.013
 1263HOH     H1 3994   0.757   3.316   0.089
 1263HOH     H2 3995   0.776   3.439   0.003
 1264HOH      O 3996   0.939   0.955   2.238
 1264HOH     H1 3997   1.016   0.992   2.282
 1264HOH     H2 3998   0.911   1.022   2.176
 1265HOH      O 3999   0.330   0.789   1.399
 1265HOH     H1 4000   0.336   0.696   1.374
 1265HOH     H2 4001   0.361   0.836   1.322
 1266HOH      O 4002   3.477   0.254   3.434
 1266HOH     H1 4003   3.513   0.203   3.361
 1266HOH     H2 4004   3.511   0.210   3.512
 1267HOH      O 4005   3.196   2.267   0.028
 1267HOH     H1 4006   3.219   2.191   0.081
 1267HOH     H2 4007   3.118   2.239  -0.020
 1268HOH      O 4008   3.711   3.858   1.760
 1268HOH     H1 4009   3.643   3.852   1.694
 1268HOH     H2 4010   3.755   3.773   1.757
 1269HOH      O 4011   2.342   3.348   2.336
 1269HOH     H1 4012   2.421   3.353   2.284
 1269HOH     H2 4013   2.282   3.410   2.295
 1270HOH      O 4014   2.002   3.261   3.210
 1270HOH     H1 4015   1.974   3.215   3.289
 1270HOH     H2 4016   2.058   3.332   3.242
 1271HOH      O 4017   0.094   0.120   2.032
 1271HOH     H1 4018   0.110   0.110   2.126
 1271HOH     H2 4019   0.133   0.041   1.993
 1272HOH      O 4020   2.305   0.060   2.872
 1272HOH     H1 4021   2.299   0.022   2.960
 1272HOH     H2 4022   2.215   0.067   2.842
 1273HOH      O 4023   3.929   1.194   3.656
 1273HOH     H1 4024   3.936   1.257   3.727
 1273HOH     H2 4025   3.938   1.108   3.698
 1274HOH      O 4026   0.800   2.053   1.702
 1274HOH     H1 4027   0.877   2.049   1.759
 1274HOH     H2 4028   0.800   2.143   1.668
 1275HOH      O 4029   0.158   2.137   0.635
 1275HOH     H1 4030   0.130   2.152   0.725
 1275HOH     H2 4031   0.077   2.123   0.586
 1276HOH      O 4032   2.741   3.661   2.166
 1276HOH     H1 4033   2.812   3.696   2.112
 1276HOH     H2 4034   2.702   3.739   2.206
 1277HOH      O 4035   1.474   1.726   3.615
 1277HOH     H1 4036   1.480   1.820   3.598
 1277HOH     H2 4037   1.534   1.711   3.688
 1278HOH      O 4038   0.095   3.399   1.621
 1278HOH     H1 4039   0.115   3.479   1.671
 1278HOH     H2 4040   0.035   3.350   1.677
 1279HOH      O 4041   2.493   2.140   2.723
 1279HOH     H1 4042   2.555   2.131   2.651
 1279HOH     H2 4043   2.532   2.090   2.795
 1280HOH      O 4044   2.599   0.617   3.223
 1280HOH     H1 4045   2.586   0.563   3.301
 1280HOH     H2 4046   2.510   0.628   3.188
 1281HOH      O 4047   3.275   2.963   1.114
 1281HOH     H1 4048   3.179   2.959   1.113
 1281HOH     H2 4049   3.297   2.991   1.203
 1282HOH      O 4050   3.776   2.505   3.674
 1282HOH     H1 4051   3.746   2.482   3.762
 1282HOH     H2 4052   3.742   2.594   3.660
 1283HOH      O 4053   2.869   1.350   2.304
 1283HOH     H1 4054   2.909   1.300   2.375
 1283HOH     H2 4055   2.942   1.375   2.248
 1284HOH      O 4056   2.682   3.355   1.841
 1284HOH     H1 4057   2.590   3.382   1.833
 1284HOH     H2 4058   2.706   3.326   1.754
 1285HOH      O 4059   1.076   1.334   1.284
 1285HOH     H1 4060   0.983   1.338   1.263
 1285HOH     H2 4061   1.119   1.327   1.198
 1286HOH      O 4062   3.040   1.207   3.246
 1286HOH     H1 4063   3.091   1.145   3.194
 1286HOH     H2 4064   3.026   1.162   3.329
 1287HOH      O 4065   2.424   2.498   0.225
 1287HOH     H1 4066   2.384   2.422   0.268
 1287HOH     H2 4067   2.441   2.559   0.296
 1288HOH      O 4068   1.163   3.394   0.903
 1288HOH     H1 4069   1.075   3.411   0.868
 1288HOH     H2 4070   1.218   3.386   0.825
 1289HOH      O 4071   3.258   0.962   2.788
 1289HOH     H1 4072   3.330   0.899   2.781
 1289HOH     H2 4073   3.188   0.914   2.831
 1290HOH      O 4074   3.659   3.650   3.557
 1290HOH     H1 4075   3.651   3.709   3.482
 1290HOH     H2 4076   3.672   3.709   3.632
 1291HOH      O 4077   0.495   1.171   0.220
 1291HOH     H1 4078   0.586   1.174   0.251
 1291HOH     H2 4079   0.443   1.185   0.298
 1292HOH      O 4080   1.198   3.836   1.171
 1292HOH     H1 4081   1.223   3.750   1.138
 1292HOH     H2 4082   1.132   3.867   1.109
 1293HOH      O 4083   0.480   3.511   2.303
 1293HOH     H1 4084   0.458   3.580   2.365
 1293HOH     H2 4085   0.572   3.492   2.320
 1294HOH      O 4086   0.317   1.398   3.896
 1294HOH     H1 4087   0.279   1.373   3.812
 1294HOH     H2 4088   0.287   1.488   3.910
 1295HOH      O 4089   0.868   0.348   0.347
 1295HOH     H1 4090   0.775   0.328   0.356
 1295HOH     H2 4091   0.907   0.267   0.315
 1296HOH      O 4092   1.607   1.733   3.855
 1296HOH     H1 4093   1.683   1.791   3.867
 1296HOH     H2 4094   1.564   1.733   3.940
 1297HOH      O 4095   2.976   3.398   3.742
 1297HOH     H1 4096   2.963   3.425   3.651
 1297HOH     H2 4097   2.919   3.456   3.792
 1298HOH      O 4098   1.612   3.552   1.353
 1298HOH     H1 4099   1.676   3.483   1.367
 1298HOH     H2 4100   1.641   3.623   1.410
 1299HOH      O 4101   3.783   1.520   1.767
 1299HOH     H1 4102   3.854   1.474   1.722
 1299HOH     H2 4103   3.821   1.606   1.788
 1300HOH      O 4104   0.555   1.694   3.656
 1300HOH     H1 4105   0.543   1.777   3.702
 1300HOH     H2 4106   0.467   1.667   3.631
 1301HOH      O 4107   1.074   3.227   3.233
 1301HOH     H1 4108   1.086   3.147   3.284
 1301HOH     H2 4109   0.997   3.210   3.179
 1302HOH      O 4110   0.723   0.978   0.583
 1302HOH     H1 4111   0.770   0.942   0.508
 1302HOH     H2 4112   0.778   1.049   0.615
 1303HOH      O 4113   1.391   0.200   3.557
 1303HOH     H1 4114   1.354   0.272   3.608
 1303HOH     H2 4115   1.315   0.147   3.532
 1304HOH      O 4116   1.356   2.007   1.390
 1304HOH     H1 4117   1.325   2.011   1.300
 1304HOH     H2 4118   1.381   2.097   1.411
 1305HOH      O 4119   3.953   1.831   1.027
 1305HOH     H1 4120   3.930   1.872   0.944
 1305HOH     H2 4121   3.911   1.886   1.093
 1306HOH      O 4122   0.317   2.101   4.039
 1306HOH     H1 4123   0.249   2.131   3.979
 1306HOH     H2 4124   0.398   2.107   3.988
 1307HOH      O 4125   1.004   1.743   0.211
 1307HOH     H1 4126   0.942   1.694   0.156
 1307HOH     H2 4127   0.999   1.699   0.296
 1308HOH      O 4128   1.248   2.838   3.174
 1308HOH     H1 4129   1.252   2.747   3.203
 1308HOH     H2 4130   1.285   2.838   3.086
 1309HOH      O 4131   2.069   0.063   2.736
 1309HOH     H1 4132   2.069   0.033   2.645
 1309HOH     H2 4133   1.976   0.070   2.758
 1310HOH      O 4134   3.136   1.896   3.059
 1310HOH     H1 4135   3.172   1.826   3.004
 1310HOH     H2 4136   3.193   1.971   3.044
 1311HOH      O 4137   1.870   2.355   2.743
 1311HOH     H1 4138   1.939   2.421   2.742
 1311HOH     H2 4139   1.916   2.272   2.734
 1312HOH      O 4140   2.649   0.374   0.371
 1312HOH     H1 4141   2.556   0.367   0.393
 1312HOH     H2 4142   2.694   0.353   0.453
 1313HOH      O 4143   2.598   1.786   0.035
 1313HOH     H1 4144   2.553   1.769   0.118
 1313HOH     H2 4145   2.529   1.787  -0.030
 1314HOH      O 4146   1.339   3.304   3.077
 1314HOH     H1 4147   1.400   3.230   3.084
 1314HOH     H2 4148   1.271   3.286   3.142
 1315HOH      O 4149   2.966   2.225   0.966
 1315HOH     H1 4150   2.919   2.174   0.900
 1315HOH     H2 4151   2.977   2.164   1.040
 1316HOH      O 4152   2.834   2.604   0.866
 1316HOH     H1 4153   2.880   2.635   0.788
 1316HOH     H2 4154   2.790   2.681   0.901
 1317HOH      O 4155   0.878   1.162   2.061
 1317HOH     H1 4156   0.841   1.235   2.011
 1317HOH     H2 4157   0.915   1.103   1.996
 1318HOH      O 4158   0.277   1.185   0.069
 1318HOH     H1 4159   0.351   1.165   0.126
 1318HOH     H2 4160   0.296   1.272   0.035
 1319HOH      O 4161   0.834   1.576   2.708
 1319HOH     H1 4162   0.851   1.553   2.617
 1319HOH     H2 4163   0.831   1.492   2.754
 1320HOH      O 4164   0.632   3.729   0.505
 1320HOH     H1 4165   0.550   3.725   0.456
 1320HOH     H2 4166   0.608   3.701   0.593
 1321HOH      O 4167   1.882   2.926   1.501
 1321HOH     H1 4168   1.945   2.994   1.477
 1321HOH     H2 4169   1.814   2.973   1.550
 1322HOH      O 4170   3.630   1.436   3.735
 1322HOH     H1 4171   3.702   1.486   3.773
 1322HOH     H2 4172   3.574   1.501   3.693
 1323HOH      O 4173   1.686   2.641   2.131
 1323HOH     H1 4174   1.637   2.685   2.201
 1323HOH     H2 4175   1.737   2.574   2.176
 1324HOH      O 4176   3.644   0.350   1.796
 1324HOH     H1 4177   3.671   0.350   1.704
 1324HOH     H2 4178   3.679   0.269   1.832
 1325HOH      O 4179   2.518   3.366   0.883
 1325HOH     H1 4180   2.567   3.298   0.837
 1325HOH     H2 4181   2.459   3.318   0.941
 1326HOH      O 4182   0.484   2.150   3.254
 1326HOH     H1 4183   0.497   2.086   3.323
 1326HOH     H2 4184   0.561   2.207   3.259
 1327HOH      O 4185   1.968   1.258   0.663
 1327HOH     H1 4186   2.034   1.325   0.680
 1327HOH     H2 4187   1.907   1.300   0.603
 1328HOH      O 4188   0.156   0.181   3.282
 1328HOH     H1 4189   0.125   0.228   3.359
 1328HOH     H2 4190   0.144   0.088   3.304
 1329HOH      O 4191   1.704   0.508   3.780
 1329HOH     H1 4192   1.656   0.512   3.863
 1329HOH     H2 4193   1.796   0.517   3.805
 1330HOH      O 4194   0.618   3.369   1.847
 1330HOH     H1 4195   0.545   3.431   1.846
 1330HOH     H2 4196   0.608   3.320   1.765
 1331HOH      O 4197   1.713   3.587   1.919
 1331HOH     H1 4198   1.653   3.512   1.921
 1331HOH     H2 4199   1.795   3.553   1.955
 1332HOH      O 4200   1.026   1.670   1.314
 1332HOH     H1 4201   1.030   1.585   1.359
 1332HOH     H2 4202   0.935   1.679   1.288
 1333HOH      O 4203   3.549   0.769   4.017
 1333HOH     H1 4204   3.508   0.761   3.931
 1333HOH     H2 4205   3.594   0.686   4.031
 1334HOH      O 4206   0.151   1.997   1.869
 1334HOH     H1 4207   0.129   1.919   1.920
 1334HOH     H2 4208   0.093   1.992   1.792
 1335HOH      O 4209   0.677   2.837   2.632
 1335HOH     H1 4210   0.713   2.748   2.623
 1335HOH     H2 4211   0.673   2.869   2.542
 1336HOH      O 4212   2.598   3.156   3.121
 1336HOH     H1 4213   2.571   3.237   3.165
 1336HOH     H2 4214   2.602   3.179   3.028
 1337HOH      O 4215   1.101   3.836   2.193
 1337HOH     H1 4216   1.126   3.910   2.137
 1337HOH     H2 4217   1.145   3.761   2.153
 1338HOH      O 4218   2.964   4.063   1.700
 1338HOH     H1 4219   2.966   4.083   1.793
 1338HOH     H2 4220   3.005   3.976   1.692
 1339HOH      O 4221   0.837   2.701   3.925
 1339HOH     H1 4222   0.815   2.630   3.984
 1339HOH     H2 4223   0.899   2.755   3.974
 1340HOH      O 4224   4.030   2.534   2.860
 1340HOH     H1 4225   4.112   2.579   2.841
 1340HOH     H2 4226   3.965   2.578   2.806
 1341HOH      O 4227   2.693   0.581   2.740
 1341HOH     H1 4228   2.682   0.636   2.818
 1341HOH     H2 4229   2.772   0.530   2.758
 1342HOH      O 4230   1.083   0.197   2.325
 1342HOH     H1 4231   1.168   0.170   2.361
 1342HOH     H2 4232   1.027   0.208   2.402
 1343HOH      O 4233   2.317   3.691   0.413
 1343HOH     H1 4234   2.328   3.596   0.424
 1343HOH     H2 4235   2.401   3.728   0.439
 1344HOH      O 4236   0.939   3.686   0.944
 1344HOH     H1 4237   0.964   3.761   0.890
 1344HOH     H2 4238   0.962   3.609   0.891
 1345HOH      O 4239   0.679   0.483   3.458
 1345HOH     H1 4240   0.662   0.417   3.526
 1345HOH     H2 4241   0.701   0.432   3.381
 1346HOH      O 4242   3.144   1.675   0.347
 1346HOH     H1 4243   3.198   1.609   0.304
 1346HOH     H2 4244   3.205   1.724   0.402
 1347HOH      O 4245   1.657   1.964   0.421
 1347HOH     H1 4246   1.634   1.881   0.463
 1347HOH     H2 4247   1.578   1.989   0.372
 1348HOH      O 4248   2.893   0.679   1.210
 1348HOH     H1 4249   2.972   0.669   1.263
 1348HOH     H2 4250   2.893   0.771   1.184
 1349HOH      O 4251   2.399   1.272   0.841
 1349HOH     H1 4252   2.467   1.207   0.860
 1349HOH     H2 4253   2.317   1.224   0.850
 1350HOH      O 4254   2.477   3.213   2.112
 1350HOH     H1 4255   2.547   3.147   2.109
 1350HOH     H2 4256   2.396   3.161   2.106
 1351HOH      O 4257   3.369   2.944   2.351
 1351HOH     H1 4258   3.352   2.902   2.435
 1351HOH     H2 4259   3.456   2.982   2.362
 1352HOH      O 4260   2.066   2.022   3.398
 1352HOH     H1 4261   1.997   2.028   3.331
 1352HOH     H2 4262   2.146   2.045   3.352
 1353HOH      O 4263   3.346   3.125   3.135
 1353HOH     H1 4264   3.271   3.084   3.092
 1353HOH     H2 4265   3.386   3.054   3.185
 1354HOH      O 4266   0.836   3.258   2.406
 1354HOH     H1 4267   0.901   3.324   2.431
 1354HOH     H2 4268   0.877   3.209   2.335
 1355HOH      O 4269   3.323   0.477   3.287
 1355HOH     H1 4270   3.376   0.402   3.316
 1355HOH     H2 4271   3.236   0.440   3.272
 1356HOH      O 4272   1.131   3.456   3.751
 1356HOH     H1 4273   1.139   3.551   3.745
 1356HOH     H2 4274   1.047   3.441   3.794
 1357HOH      O 4275   2.124   3.665   2.419
 1357HOH     H1 4276   2.080   3.606   2.480
 1357HOH     H2 4277   2.216   3.640   2.425
 1358HOH      O 4278   1.662   2.937   3.611
 1358HOH     H1 4279   1.611   2.934   3.530
 1358HOH     H2 4280   1.606   2.893   3.676
 1359HOH      O 4281   2.059   1.825   1.947
 1359HOH     H1 4282   2.032   1.745   1.991
 1359HOH     H2 4283   2.091   1.881   2.018
 1360HOH      O 4284   2.856   2.690   0.593
 1360HOH     H1 4285   2.909   2.649   0.524
 1360HOH     H2 4286   2.847   2.781   0.565
 1361HOH      O 4287   2.167   1.596   1.780
 1361HOH     H1 4288   2.088   1.556   1.744
 1361HOH     H2 4289   2.136   1.664   1.839
 1362HOH      O 4290   2.892   1.881   0.608
 1362HOH     H1 4291   2.860   1.873   0.518
 1362HOH     H2 4292   2.892   1.792   0.642
 1363HOH      O 4293   1.116   0.868   0.567
 1363HOH     H1 4294   1.031   0.905   0.546
 1363HOH     H2 4295   1.111   0.847   0.660
 1364HOH      O 4296   2.413   3.208   1.702
 1364HOH     H1 4297   2.384   3.284   1.753
 1364HOH     H2 4298   2.505   3.226   1.682
 1365HOH      O 4299   0.499   1.508   3.042
 1365HOH     H1 4300   0.573   1.556   3.005
 1365HOH     H2 4301   0.536   1.424   3.069
 1366HOH      O 4302   3.195   3.791   0.061
 1366HOH     H1 4303   3.270   3.762   0.112
 1366HOH     H2 4304   3.209   3.885   0.049
 1367HOH      O 4305   3.017   0.372   3.681
 1367HOH     H1 4306   2.933   0.418   3.687
 1367HOH     H2 4307   3.072   0.430   3.628
 1368HOH      O 4308   3.034   0.912   3.914
 1368HOH     H1 4309   3.126   0.939   3.916
 1368HOH     H2 4310   3.023   0.858   3.993
 1369HOH      O 4311   3.364   3.353   1.510
 1369HOH     H1 4312   3.292   3.415   1.498
 1369HOH     H2 4313   3.404   3.379   1.593
 1370HOH      O 4314   1.944   3.358   2.274
 1370HOH     H1 4315   1.869   3.337   2.330
 1370HOH     H2 4316   1.968   3.275   2.234
 1371HOH      O 4317   2.597   2.657   4.012
 1371HOH     H1 4318   2.643   2.735   3.983
 1371HOH     H2 4319   2.608   2.657   4.107
 1372HOH      O 4320   0.666   1.378   1.245
 1372HOH     H1 4321   0.690   1.443   1.178
 1372HOH     H2 4322   0.711   1.408   1.324
 1373HOH      O 4323   0.442   1.974   3.734
 1373HOH     H1 4324   0.350   1.968   3.759
 1373HOH     H2 4325   0.472   2.057   3.772
 1374HOH      O 4326   0.560   3.850   1.181
 1374HOH     H1 4327   0.521   3.937   1.171
 1374HOH     H2 4328   0.572   3.839   1.275
 1375HOH      O 4329   2.504   3.475   2.125
 1375HOH     H1 4330   2.576   3.524   2.085
 1375HOH     H2 4331   2.514   3.386   2.093
 1376HOH      O 4332   0.464   1.059   0.512
 1376HOH     H1 4333   0.552   1.042   0.545
 1376HOH     H2 4334   0.408   1.053   0.590
 1377HOH      O 4335   0.399   3.572   1.900
 1377HOH     H1 4336   0.357   3.634   1.960
 1377HOH     H2 4337   0.327   3.539   1.846
 1378HOH      O 4338   2.614   0.225   3.340
 1378HOH     H1 4339   2.621   0.224   3.244
 1378HOH     H2 4340   2.564   0.146   3.361
 1379HOH      O 4341   3.001   1.518   2.650
 1379HOH     H1 4342   2.924   1.506   2.595
 1379HOH     H2 4343   3.000   1.443   2.710
 1380HOH      O 4344   2.511   2.146   0.268
 1380HOH     H1 4345   2.574   2.129   0.197
 1380HOH     H2 4346   2.563   2.190   0.335
 1381HOH      O 4347   1.768   3.824   3.933
 1381HOH     H1 4348   1.861   3.807   3.944
 1381HOH     H2 4349   1.727   3.787   4.012
 1382HOH      O 4350   1.317   1.969   2.650
 1382HOH     H1 4351   1.242   2.021   2.680
 1382HOH     H2 4352   1.286   1.928   2.569
 1383HOH      O 4353   3.219   1.455   2.470
 1383HOH     H1 4354   3.146   1.488   2.523
 1383HOH     H2 4355   3.178   1.418   2.392
 1384HOH      O 4356   1.663   3.463   2.301
 1384HOH     H1 4357   1.689   3.553   2.317
 1384HOH     H2 4358   1.608   3.466   2.223
 1385HOH      O 4359   0.776   0.578   3.152
 1385HOH     H1 4360   0.830   0.601   3.076
 1385HOH     H2 4361   0.770   0.659   3.202
 1386HOH      O 4362   1.941   0.310   0.119
 1386HOH     H1 4363   1.951   0.302   0.024
 1386HOH     H2 4364   1.876   0.244   0.143
 1387HOH      O 4365   1.861   2.886   2.006
 1387HOH     H1 4366   1.817   2.892   1.921
 1387HOH     H2 4367   1.823   2.809   2.047
 1388HOH      O 4368   2.612   3.832   0.890
 1388HOH     H1 4369   2.706   3.849   0.897
 1388HOH     H2 4370   2.575   3.914   0.858
 1389HOH      O 4371   3.636   2.449   1.596
 1389HOH     H1 4372   3.595   2.536   1.602
 1389HOH     H2 4373   3.588   2.397   1.661
 1390HOH      O 4374   0.891   1.937   0.020
 1390HOH     H1 4375   0.964   1.988  -0.013
 1390HOH     H2 4376   0.931   1.863   0.065
 1391HOH      O 4377   2.892   2.192   2.913
 1391HOH     H1 4378   2.974   2.216   2.869
 1391HOH     H2 4379   2.849   2.133   2.853
 1392HOH      O 4380   1.797   1.849   3.022
 1392HOH     H1 4381   1.717   1.895   3.046
 1392HOH     H2 4382   1.783   1.759   3.050
 1393HOH      O 4383   2.806   1.368   1.316
 1393HOH     H1 4384   2.863   1.309   1.267
 1393HOH     H2 4385   2.790   1.323   1.399
 1394HOH      O 4386   1.535   0.811   0.596
 1394HOH     H1 4387   1.614   0.798   0.543
 1394HOH     H2 4388   1.567   0.852   0.676
 1395HOH      O 4389   3.343   2.506   0.119
 1395HOH     H1 4390   3.293   2.433   0.082
 1395HOH     H2 4391   3.285   2.544   0.186
 1396HOH      O 4392   1.434   3.124   1.583
 1396HOH     H1 4393   1.382   3.204   1.590
 1396HOH     H2 4394   1.405   3.084   1.501
 1397HOH      O 4395   2.235   2.045   2.729
 1397HOH     H1 4396   2.327   2.060   2.707
 1397HOH     H2 4397   2.236   2.022   2.822
 1398HOH      O 4398   0.471   3.889   0.318
 1398HOH     H1 4399   0.435   3.881   0.230
 1398HOH     H2 4400   0.401   3.932   0.368
 1399HOH      O 4401   2.442   0.012   0.852
 1399HOH     H1 4402   2.347   0.024   0.845
 1399HOH     H2 4403   2.465   0.050   0.937
 1400HOH      O 4404   0.882   1.711   2.933
 1400HOH     H1 4405   0.862   1.650   2.863
 1400HOH     H2 4406   0.931   1.659   2.997
 1401HOH      O 4407   3.367   1.048   0.501
 1401HOH     H1 4408   3.310   1.000   0.561
 1401HOH     H2 4409   3.312   1.065   0.424
 1402HOH      O 4410   1.481   3.628   2.066
 1402HOH     H1 4411   1.572   3.639   2.041
 1402HOH     H2 4412   1.431   3.672   1.997
 1403HOH      O 4413   1.388   0.059   2.167
 1403HOH     H1 4414   1.407   0.121   2.238
 1403HOH     H2 4415   1.407  -0.027   2.205
 1404HOH      O 4416   2.049   2.219   1.753
 1404HOH     H1 4417   1.964   2.240   1.715
 1404HOH     H2 4418   2.052   2.123   1.753
 1405HOH      O 4419   3.772   4.027   2.437
 1405HOH     H1 4420   3.729   4.094   2.383
 1405HOH     H2 4421   3.829   3.980   2.376
 1406HOH      O 4422   2.318   2.825   0.608
 1406HOH     H1 4423   2.311   2.885   0.534
 1406HOH     H2 4424   2.257   2.860   0.673
 1407HOH      O 4425   3.661   1.037   3.010
 1407HOH     H1 4426   3.676   1.078   2.924
 1407HOH     H2 4427   3.724   1.079   3.068
 1408HOH      O 4428   0.815   1.973   3.780
 1408HOH     H1 4429   0.844   1.962   3.870
 1408HOH     H2 4430   0.806   1.884   3.746
 1409HOH      O 4431   1.445   3.820   1.773
 1409HOH     H1 4432   1.380   3.880   1.807
 1409HOH     H2 4433   1.395   3.756   1.722
 1410HOH      O 4434   3.567   1.104   0.117
 1410HOH     H1 4435   3.499   1.040   0.139
 1410HOH     H2 4436   3.649   1.055   0.126
 1411HOH      O 4437   3.544   2.715   1.467
 1411HOH     H1 4438   3.521   2.702   1.375
 1411HOH     H2 4439   3.531   2.808   1.482
 1412HOH      O 4440   2.410   2.634   2.789
 1412HOH     H1 4441   2.326   2.667   2.760
 1412HOH     H2 4442   2.407   2.540   2.772
 1413HOH      O 4443   2.436   3.110   3.939
 1413HOH     H1 4444   2.432   3.204   3.923
 1413HOH     H2 4445   2.414   3.070   3.855
 1414HOH      O 4446   0.760   2.828   2.923
 1414HOH     H1 4447   0.740   2.742   2.886
 1414HOH     H2 4448   0.849   2.819   2.958
 1415HOH      O 4449   3.453   1.898   3.439
 1415HOH     H1 4450   3.527   1.862   3.391
 1415HOH     H2 4451   3.489   1.972   3.488
 1416HOH      O 4452   2.277   0.416   3.539
 1416HOH     H1 4453   2.317   0.485   3.486
 1416HOH     H2 4454   2.183   0.426   3.525
 1417HOH      O 4455   3.819   1.119   1.617
 1417HOH     H1 4456   3.884   1.179   1.654
 1417HOH     H2 4457   3.756   1.175   1.573
 1418HOH      O 4458   3.584   1.809   1.117
 1418HOH     H1 4459   3.511   1.836   1.061
 1418HOH     H2 4460   3.604   1.720   1.087
 1419HOH      O 4461   1.920   0.526   0.854
 1419HOH     H1 4462   1.905   0.438   0.891
 1419HOH     H2 4463   1.836   0.549   0.815
 1420HOH      O 4464   2.555   0.850   2.405
 1420HOH     H1 4465   2.618   0.779   2.419
 1420HOH     H2 4466   2.486   0.810   2.353
 1421HOH      O 4467   3.309   0.724   3.368
 1421HOH     H1 4468   3.313   0.635   3.332
 1421HOH     H2 4469   3.399   0.741   3.396
 1422HOH      O 4470   3.333   1.365   3.328
 1422HOH     H1 4471   3.332   1.361   3.232
 1422HOH     H2 4472   3.242   1.385   3.351
 1423HOH      O 4473   2.988   3.315   0.338
 1423HOH     H1 4474   2.947   3.229   0.354
 1423HOH     H2 4475   3.067   3.294   0.288
 1424HOH      O 4476   0.169   1.622   3.893
 1424HOH     H1 4477   0.088   1.656   3.854
 1424HOH     H2 4478   0.179   1.671   3.975
 1425HOH      O 4479   1.196   0.093   0.658
 1425HOH     H1 4480   1.105   0.113   0.682
 1425HOH     H2 4481   1.207   0.130   0.570
 1426HOH      O 4482   1.824   3.390   1.007
 1426HOH     H1 4483   1.836   3.382   0.913
 1426HOH     H2 4484   1.847   3.304   1.041
 1427HOH      O 4485   0.244   1.169   1.003
 1427HOH     H1 4486   0.233   1.264   1.001
 1427HOH     H2 4487   0.275   1.147   0.916
 1428HOH      O 4488   2.112   0.924   1.015
 1428HOH     H1 4489   2.059   0.991   1.059
 1428HOH     H2 4490   2.139   0.966   0.933
 1429HOH      O 4491   0.668   1.782   3.108
 1429HOH     H1 4492   0.743   1.728   3.083
 1429HOH     H2 4493   0.639   1.744   3.192
 1430HOH      O 4494   0.676   2.106   2.546
 1430HOH     H1 4495   0.723   2.143   2.471
 1430HOH     H2 4496   0.691   2.169   2.616
 1431HOH      O 4497   2.383   1.365   0.364
 1431HOH     H1 4498   2.343   1.298   0.419
 1431HOH     H2 4499   2.442   1.412   0.423
 1432HOH      O 4500   3.447   3.621   2.689
 1432HOH     H1 4501   3.406   3.707   2.679
 1432HOH     H2 4502   3.399   3.580   2.760
 1433HOH      O 4503   1.892   1.944   1.769
 1433HOH     H1 4504   1.956   1.939   1.840
 1433HOH     H2 4505   1.825   2.004   1.800
 1434HOH      O 4506   1.346   3.612   2.300
 1434HOH     H1 4507   1.336   3.696   2.345
 1434HOH     H2 4508   1.419   3.624   2.240
 1435HOH      O 4509   1.910   0.164   3.641
 1435HOH     H1 4510   1.823   0.137   3.669
 1435HOH     H2 4511   1.963   0.084   3.647
 1436HOH      O 4512   3.180   2.023   2.305
 1436HOH     H1 4513   3.104   2.054   2.255
 1436HOH     H2 4514   3.227   2.103   2.328
 1437HOH      O 4515   1.000   0.117   1.836
 1437HOH     H1 4516   0.963   0.030   1.851
 1437HOH     H2 4517   1.070   0.125   1.901
 1438HOH      O 4518   1.520   1.741   3.000
 1438HOH     H1 4519   1.436   1.710   2.967
 1438HOH     H2 4520   1.511   1.836   3.006
 1439HOH      O 4521   1.658   2.042   1.903
 1439HOH     H1 4522   1.605   2.004   1.972
 1439HOH     H2 4523   1.599   2.101   1.856
 1440HOH      O 4524   1.382   1.270   0.221
 1440HOH     H1 4525   1.289   1.266   0.242
 1440HOH     H2 4526   1.400   1.186   0.179
 1441HOH      O 4527   2.958   2.404   3.910
 1441HOH     H1 4528   2.982   2.312   3.918
 1441HOH     H2 4529   2.950   2.435   4.001
 1442HOH      O 4530   1.366   0.404   3.736
 1442HOH     H1 4531   1.336   0.473   3.676
 1442HOH     H2 4532   1.426   0.449   3.796
 1443HOH      O 4533   4.035   0.795   2.012
 1443HOH     H1 4534   4.006   0.874   1.967
 1443HOH     H2 4535   3.958   0.765   2.060
 1444HOH      O 4536   2.525   2.705   0.747
 1444HOH     H1 4537   2.461   2.742   0.686
 1444HOH     H2 4538   2.561   2.629   0.701
 1445HOH      O 4539   3.198   2.625   1.446
 1445HOH     H1 4540   3.108   2.655   1.436
 1445HOH     H2 4541   3.233   2.678   1.518
 1446HOH      O 4542   3.690   3.942   2.925
 1446HOH     H1 4543   3.780   3.968   2.906
 1446HOH     H2 4544   3.681   3.857   2.883
 1447HOH      O 4545   3.836   0.269   0.998
 1447HOH     H1 4546   3.813   0.303   0.912
 1447HOH     H2 4547   3.796   0.331   1.060
 1448HOH      O 4548   3.344   3.777   3.305
 1448HOH     H1 4549   3.415   3.718   3.278
 1448HOH     H2 4550   3.380   3.865   3.294
 1449HOH      O 4551   3.885   0.492   3.047
 1449HOH     H1 4552   3.866   0.419   3.106
 1449HOH     H2 4553   3.977   0.481   3.024
 1450HOH      O 4554   1.553   1.163   3.146
 1450HOH     H1 4555   1.599   1.105   3.086
 1450HOH     H2 4556   1.581   1.251   3.121
 1451HOH      O 4557   3.919   0.006   3.313
 1451HOH     H1 4558   3.834   0.016   3.271
 1451HOH     H2 4559   3.899  -0.011   3.405
 1452HOH      O 4560   3.479   1.253   0.755
 1452HOH     H1 4561   3.541   1.210   0.696
 1452HOH     H2 4562   3.455   1.334   0.709
 1453HOH      O 4563   3.506   3.998   4.058
 1453HOH     H1 4564   3.413   4.011   4.042
 1453HOH     H2 4565   3.533   3.936   3.991
 1454HOH      O 4566   2.646   3.247   1.576
 1454HOH     H1 4567   2.628   3.327   1.527
 1454HOH     H2 4568   2.682   3.187   1.512
 1455HOH      O 4569   2.629   2.779   2.757
 1455HOH     H1 4570   2.558   2.715   2.751
 1455HOH     H2 4571   2.668   2.763   2.843
 1456HOH      O 4572   0.682   0.647   2.705
 1456HOH     H1 4573   0.612   0.679   2.762
 1456HOH     H2 4574   0.697   0.557   2.734
 1457HOH      O 4575   2.891   1.704   0.349
 1457HOH     H1 4576   2.836   1.625   0.354
 1457HOH     H2 4577   2.981   1.671   0.354
 1458HOH      O 4578   1.557   0.662   2.069
 1458HOH     H1 4579   1.513   0.603   2.130
 1458HOH     H2 4580   1.611   0.718   2.125
 1459HOH      O 4581   3.001   0.118   1.979
 1459HOH     H1 4582   3.088   0.150   1.956
 1459HOH     H2 4583   3.007   0.095   2.072
 1460HOH      O 4584   1.981   0.676   1.904
 1460HOH     H1 4585   1.986   0.610   1.835
 1460HOH     H2 4586   1.936   0.750   1.864
 1461HOH      O 4587   3.761   0.629   1.626
 1461HOH     H1 4588   3.853   0.648   1.645
 1461HOH     H2 4589   3.714   0.660   1.704
 1462HOH      O 4590   3.240   1.042   2.146
 1462HOH     H1 4591   3.273   1.004   2.065
 1462HOH     H2 4592   3.204   0.967   2.194
 1463HOH      O 4593   1.092   0.476   1.622
 1463HOH     H1 4594   1.061   0.385   1.624
 1463HOH     H2 4595   1.178   0.470   1.580
 1464HOH      O 4596   1.242   0.188   3.914
 1464HOH     H1 4597   1.312   0.208   3.976
 1464HOH     H2 4598   1.265   0.238   3.836
 1465HOH      O 4599   1.885   1.493   1.211
 1465HOH     H1 4600   1.852   1.495   1.301
 1465HOH     H2 4601   1.972   1.454   1.219
 1466HOH      O 4602   0.385   1.531   1.436
 1466HOH     H1 4603   0.425   1.569   1.358
 1466HOH     H2 4604   0.363   1.442   1.411
 1467HOH      O 4605   2.780   0.114   0.202
 1467HOH     H1 4606   2.685   0.106   0.211
 1467HOH     H2 4607   2.812   0.122   0.291
 1468HOH      O 4608   2.264   1.242   1.510
 1468HOH     H1 4609   2.211   1.200   1.442
 1468HOH     H2 4610   2.352   1.207   1.497
 1469HOH      O 4611   1.538   0.381   2.824
 1469HOH     H1 4612   1.500   0.328   2.893
 1469HOH     H2 4613   1.631   0.383   2.844
 1470HOH      O 4614   0.351   2.392   2.759
 1470HOH     H1 4615   0.283   2.459   2.755
 1470HOH     H2 4616   0.304   2.310   2.773
 1471HOH      O 4617   3.279   2.472   0.390
 1471HOH     H1 4618   3.295   2.389   0.347
 1471HOH     H2 4619   3.336   2.472   0.466
 1472HOH      O 4620   2.780   1.638   1.483
 1472HOH     H1 4621   2.843   1.600   1.422
 1472HOH     H2 4622   2.704   1.661   1.430
 1473HOH      O 4623   2.150   3.062   0.704
 1473HOH     H1 4624   2.166   3.157   0.705
 1473HOH     H2 4625   2.116   3.045   0.616
 1474HOH      O 4626   1.484   2.410   3.993
 1474HOH     H1 4627   1.448   2.456   4.069
 1474HOH     H2 4628   1.536   2.476   3.948
 1475HOH      O 4629   3.149   3.204   2.747
 1475HOH     H1 4630   3.088   3.203   2.674
 1475HOH     H2 4631   3.234   3.184   2.709
 1476HOH      O 4632   2.435   3.342   2.600
 1476HOH     H1 4633   2.438   3.325   2.506
 1476HOH     H2 4634   2.454   3.436   2.608
 1477HOH      O 4635   2.369   1.478   2.034
 1477HOH     H1 4636   2.395   1.407   1.975
 1477HOH     H2 4637   2.348   1.434   2.116
 1478HOH      O 4638   1.924   1.588   2.462
 1478HOH     H1 4639   1.853   1.577   2.526
 1478HOH     H2 4640   1.896   1.537   2.386
 1479HOH      O 4641   2.226   2.258   3.406
 1479HOH     H1 4642   2.195   2.337   3.361
 1479HOH     H2 4643   2.252   2.199   3.335
 1480HOH      O 4644   3.051   1.657   2.169
 1480HOH     H1 4645   2.997   1.728   2.203
 1480HOH     H2 4646   3.134   1.664   2.216
 1481HOH      O 4647   2.811   1.903   3.756
 1481HOH     H1 4648   2.772   1.952   3.828
 1481HOH     H2 4649   2.769   1.938   3.678
 1482HOH      O 4650   3.364   2.443   3.248
 1482HOH     H1 4651   3.291   2.381   3.250
 1482HOH     H2 4652   3.325   2.527   3.275
 1483HOH      O 4653   3.332   2.936   3.516
 1483HOH     H1 4654   3.276   3.010   3.493
 1483HOH     H2 4655   3.271   2.864   3.532
 1484HOH      O 4656   0.738   3.081   2.715
 1484HOH     H1 4657   0.710   3.093   2.806
 1484HOH     H2 4658   0.733   2.986   2.701
 1485HOH      O 4659   0.564   2.548   0.401
 1485HOH     H1 4660   0.544   2.462   0.363
 1485HOH     H2 4661   0.540   2.539   0.493
 1486HOH      O 4662   2.259   2.832   0.902
 1486HOH     H1 4663   2.328   2.768   0.919
 1486HOH     H2 4664   2.182   2.798   0.948
 1487HOH      O 4665   0.219   0.250   1.579
 1487HOH     H1 4666   0.218   0.156   1.562
 1487HOH     H2 4667   0.133   0.268   1.618
 1488HOH      O 4668   2.321   2.417   0.963
 1488HOH     H1 4669   2.262   2.359   1.011
 1488HOH     H2 4670   2.409   2.383   0.981
 1489HOH      O 4671   2.337   2.083   3.646
 1489HOH     H1 4672   2.340   2.158   3.586
 1489HOH     H2 4673   2.405   2.024   3.614
 1490HOH      O 4674   2.728   2.452   0.319
 1490HOH     H1 4675   2.741   2.542   0.290
 1490HOH     H2 4676   2.638   2.450   0.352
 1491HOH      O 4677   1.005   2.774   3.014
 1491HOH     H1 4678   0.973   2.718   3.085
 1491HOH     H2 4679   1.066   2.834   3.056
 1492HOH      O 4680   2.266   0.088   1.793
 1492HOH     H1 4681   2.262  -0.004   1.766
 1492HOH     H2 4682   2.197   0.131   1.742
 1493HOH      O 4683   3.189   1.380   3.828
 1493HOH     H1 4684   3.163   1.304   3.776
 1493HOH     H2 4685   3.260   1.348   3.883
 1494HOH      O 4686   2.285   2.111   3.206
 1494HOH     H1 4687   2.345   2.041   3.178
 1494HOH     H2 4688   2.229   2.125   3.130
 1495HOH      O 4689   0.967   3.713   1.353
 1495HOH     H1 4690   0.946   3.734   1.443
 1495HOH     H2 4691   1.019   3.787   1.322
 1496HOH      O 4692   2.223   1.189   0.490
 1496HOH     H1 4693   2.232   1.099   0.522
 1496HOH     H2 4694   2.210   1.241   0.569
 1497HOH      O 4695   3.894   3.456   2.480
 1497HOH     H1 4696   3.835   3.452   2.556
 1497HOH     H2 4697   3.878   3.542   2.442
 1498HOH      O 4698   2.642   1.267   3.383
 1498HOH     H1 4699   2.590   1.266   3.302
 1498HOH     H2 4700   2.706   1.336   3.369
 1499HOH      O 4701   1.704   1.003   2.961
 1499HOH     H1 4702   1.633   0.939   2.962
 1499HOH     H2 4703   1.718   1.021   2.868
 1500HOH      O 4704   1.632   1.468   1.709
 1500HOH     H1 4705   1.537   1.475   1.702
 1500HOH     H2 4706   1.662   1.558   1.714
 1501HOH      O 4707   3.707   0.025   3.165
 1501HOH     H1 4708   3.706  -0.034   3.090
 1501HOH     H2 4709   3.616   0.053   3.175
 1502HOH      O 4710   1.894   2.410   0.474
 1502HOH     H1 4711   1.963   2.376   0.417
 1502HOH     H2 4712   1.940   2.466   0.537
 1503HOH      O 4713   0.847   2.844   2.183
 1503HOH     H1 4714   0.935   2.811   2.166
 1503HOH     H2 4715   0.858   2.939   2.187
 1504HOH      O 4716   1.878   1.339   2.814
 1504HOH     H1 4717   1.967   1.372   2.804
 1504HOH     H2 4718   1.833   1.405   2.865
 1505HOH      O 4719   0.351   0.550   2.431
 1505HOH     H1 4720   0.370   0.600   2.510
 1505HOH     H2 4721   0.334   0.617   2.365
 1506HOH      O 4722   3.700   2.314   1.145
 1506HOH     H1 4723   3.750   2.297   1.225
 1506HOH     H2 4724   3.617   2.352   1.177
 1507HOH      O 4725   1.621   2.166   1.247
 1507HOH     H1 4726   1.700   2.213   1.220
 1507HOH     H2 4727   1.653   2.098   1.306
 1508HOH      O 4728   2.403   0.449   3.789
 1508HOH     H1 4729   2.428   0.532   3.830
 1508HOH     H2 4730   2.348   0.475   3.715
 1509HOH      O 4731   1.399   2.296   1.485
 1509HOH     H1 4732   1.487   2.304   1.520
 1509HOH     H2 4733   1.384   2.377   1.437
 1510HOH      O 4734   1.204   3.700   0.674
 1510HOH     H1 4735   1.183   3.718   0.766
 1510HOH     H2 4736   1.128   3.730   0.625
 1511HOH      O 4737   2.947   1.665   1.895
 1511HOH     H1 4738   3.034   1.631   1.916
 1511HOH     H2 4739   2.893   1.639   1.970
 1512HOH      O 4740   0.701   2.091   0.149
 1512HOH     H1 4741   0.756   2.120   0.222
 1512HOH     H2 4742   0.758   2.032   0.099
 1513HOH      O 4743   1.876   0.017   1.812
 1513HOH     H1 4744   1.913   0.088   1.760
 1513HOH     H2 4745   1.783   0.014   1.787
 1514HOH      O 4746   2.712   1.644   3.211
 1514HOH     H1 4747   2.738   1.701   3.139
 1514HOH     H2 4748   2.670   1.569   3.169
 1515HOH      O 4749   3.788   1.436   3.124
 1515HOH     H1 4750   3.809   1.352   3.165
 1515HOH     H2 4751   3.724   1.415   3.056
 1516HOH      O 4752   0.779   1.228   0.183
 1516HOH     H1 4753   0.827   1.215   0.265
 1516HOH     H2 4754   0.841   1.273   0.125
 1517HOH      O 4755   2.944   1.954   3.430
 1517HOH     H1 4756   2.888   1.880   3.455
 1517HOH     H2 4757   2.997   1.921   3.357
 1518HOH      O 4758   1.129   1.199   1.514
 1518HOH     H1 4759   1.191   1.131   1.487
 1518HOH     H2 4760   1.118   1.254   1.437
 1519HOH      O 4761   0.050   3.175   2.706
 1519HOH     H1 4762  -0.005   3.253   2.704
 1519HOH     H2 4763   0.139   3.208   2.715
 1520HOH      O 4764   0.113   1.589   3.161
 1520HOH     H1 4765   0.064   1.561   3.238
 1520HOH     H2 4766   0.094   1.523   3.095
 1521HOH      O 4767   2.858   3.012   2.333
 1521HOH     H1 4768   2.843   2.952   2.406
 1521HOH     H2 4769   2.953   3.027   2.334
 1522HOH      O 4770   1.301   1.045   3.489
 1522HOH     H1 4771   1.324   0.986   3.561
 1522HOH     H2 4772   1.385   1.078   3.457
 1523HOH      O 4773   0.767   1.036   2.485
 1523HOH     H1 4774   0.707   1.040   2.560
 1523HOH     H2 4775   0.755   1.120   2.441
 1524HOH      O 4776   2.971   0.357   0.796
 1524HOH     H1 4777   3.011   0.444   0.787
 1524HOH     H2 4778   3.028   0.300   0.744
 1525HOH      O 4779   2.319   2.960   3.745
 1525HOH     H1 4780   2.314   2.865   3.754
 1525HOH     H2 4781   2.396   2.974   3.690
 1526HOH      O 4782   0.552   3.351   0.553
 1526HOH     H1 4783   0.619   3.419   0.545
 1526HOH     H2 4784   0.570   3.310   0.637
 1527HOH      O 4785   3.373   2.159   1.155
 1527HOH     H1 4786   3.337   2.130   1.239
 1527HOH     H2 4787   3.430   2.232   1.177
 1528HOH      O 4788   0.729   2.331   1.244
 1528HOH     H1 4789   0.739   2.397   1.312
 1528HOH     H2 4790   0.649   2.357   1.197
 1529HOH      O 4791   2.151   0.243   0.343
 1529HOH     H1 4792   2.137   0.163   0.394
 1529HOH     H2 4793   2.081   0.241   0.277
 1530HOH      O 4794   0.642   0.752   0.269
 1530HOH     H1 4795   0.600   0.804   0.201
 1530HOH     H2 4796   0.590   0.671   0.274
 1531HOH      O 4797   0.577   1.334   3.959
 1531HOH     H1 4798   0.485   1.352   3.940
 1531HOH     H2 4799   0.622   1.414   3.935
 1532HOH      O 4800   2.667   3.578   0.843
 1532HOH     H1 4801   2.583   3.532   0.840
 1532HOH     H2 4802   2.643   3.668   0.867
 1533HOH      O 4803   3.234   1.458   1.813
 1533HOH     H1 4804   3.214   1.389   1.876
 1533HOH     H2 4805   3.176   1.440   1.738
 1534HOH      O 4806   0.560   2.320   0.141
 1534HOH     H1 4807   0.604   2.235   0.135
 1534HOH     H2 4808   0.483   2.304   0.194
 1535HOH      O 4809   0.397   1.907   1.178
 1535HOH     H1 4810   0.325   1.929   1.119
 1535HOH     H2 4811   0.470   1.963   1.151
 1536HOH      O 4812   2.336   2.393   2.706
 1536HOH     H1 4813   2.362   2.302   2.722
 1536HOH     H2 4814   2.261   2.386   2.647
 1537HOH      O 4815   2.240   3.840   1.733
 1537HOH     H1 4816   2.241   3.828   1.638
 1537HOH     H2 4817   2.314   3.788   1.764
 1538HOH      O 4818   2.484   3.698   1.886
 1538HOH     H1 4819   2.487   3.772   1.946
 1538HOH     H2 4820   2.547   3.719   1.818
 1539HOH      O 4821   1.841   1.866   0.233
 1539HOH     H1 4822   1.768   1.909   0.277
 1539HOH     H2 4823   1.919   1.907   0.271
 1540HOH      O 4824   3.439   3.939   2.334
 1540HOH     H1 4825   3.487   4.021   2.320
 1540HOH     H2 4826   3.423   3.937   2.428
 1541HOH      O 4827   1.772   0.837   2.333
 1541HOH     H1 4828   1.834   0.892   2.285
 1541HOH     H2 4829   1.689   0.886   2.330
 1542HOH      O 4830   3.248   1.944   0.459
 1542HOH     H1 4831   3.192   2.001   0.513
 1542HOH     H2 4832   3.311   1.908   0.521
 1543HOH      O 4833   2.091   0.826   2.117
 1543HOH     H1 4834   2.094   0.769   2.040
 1543HOH     H2 4835   2.030   0.783   2.177
 1544HOH      O 4836   2.474   3.652   2.350
 1544HOH     H1 4837   2.513   3.736   2.328
 1544HOH     H2 4838   2.490   3.597   2.273
 1545HOH      O 4839   3.291   1.492   2.753
 1545HOH     H1 4840   3.368   1.436   2.750
 1545HOH     H2 4841   3.259   1.495   2.663
 1546HOH      O 4842   1.939   1.071   3.751
 1546HOH     H1 4843   1.912   1.006   3.685
 1546HOH     H2 4844   1.962   1.019   3.828
 1547HOH      O 4845   2.793   0.695   3.457
 1547HOH     H1 4846   2.731   0.662   3.392
 1547HOH     H2 4847   2.813   0.784   3.429
 1548HOH      O 4848   3.888   3.620   3.431
 1548HOH     H1 4849   3.937   3.545   3.463
 1548HOH     H2 4850   3.811   3.625   3.488
 1549HOH      O 4851   3.778   0.871   0.500
 1549HOH     H1 4852   3.805   0.819   0.424
 1549HOH     H2 4853   3.809   0.821   0.576
 1550HOH      O 4854   1.298   2.353   0.628
 1550HOH     H1 4855   1.361   2.395   0.687
 1550HOH     H2 4856   1.353   2.310   0.561
 1551HOH      O 4857   3.975   1.594   1.379
 1551HOH     H1 4858   3.938   1.670   1.423
 1551HOH     H2 4859   4.052   1.627   1.332
 1552HOH      O 4860   0.288   0.871   0.372
 1552HOH     H1 4861   0.352   0.931   0.410
 1552HOH     H2 4862   0.330   0.838   0.292
 1553HOH      O 4863   0.746   4.002   1.755
 1553HOH     H1 4864   0.660   3.967   1.780
 1553HOH     H2 4865   0.732   4.038   1.667
 1554HOH      O 4866   2.637   3.723   1.192
 1554HOH     H1 4867   2.608   3.635   1.216
 1554HOH     H2 4868   2.733   3.717   1.188
 1555HOH      O 4869   3.275   1.466   0.228
 1555HOH     H1 4870   3.319   1.383   0.209
 1555HOH     H2 4871   3.234   1.490   0.145
 1556HOH      O 4872   0.887   0.856   1.142
 1556HOH     H1 4873   0.840   0.843   1.059
 1556HOH     H2 4874   0.938   0.776   1.153
 1557HOH      O 4875   3.200   1.043   1.210
 1557HOH     H1 4876   3.233   0.965   1.255
 1557HOH     H2 4877   3.236   1.036   1.121
 1558HOH      O 4878   0.245   3.172   3.462
 1558HOH     H1 4879   0.276   3.092   3.418
 1558HOH     H2 4880   0.285   3.167   3.550
 1559HOH      O 4881   0.692   1.858   2.133
 1559HOH     H1 4882   0.761   1.875   2.070
 1559HOH     H2 4883   0.733   1.876   2.218
 1560HOH      O 4884   0.208   2.681   2.817
 1560HOH     H1 4885   0.206   2.702   2.910
 1560HOH     H2 4886   0.295   2.708   2.788
 1561HOH      O 4887   3.114   3.026   2.975
 1561HOH     H1 4888   3.151   3.091   2.916
 1561HOH     H2 4889   3.020   3.044   2.975
 1562HOH      O 4890   3.163   0.647   1.339
 1562HOH     H1 4891   3.120   0.630   1.422
 1562HOH     H2 4892   3.239   0.701   1.362
 1563HOH      O 4893   0.327   0.908   2.542
 1563HOH     H1 4894   0.320   0.958   2.623
 1563HOH     H2 4895   0.275   0.958   2.479
 1564HOH      O 4896   3.113   1.614   1.406
 1564HOH     H1 4897   3.164   1.537   1.432
 1564HOH     H2 4898   3.153   1.642   1.324
 1565HOH      O 4899   1.100  -0.026   3.767
 1565HOH     H1 4900   1.124  -0.013   3.675
 1565HOH     H2 4901   1.142   0.047   3.813
 1566HOH      O 4902   0.730   1.375   3.103
 1566HOH     H1 4903   0.794   1.356   3.035
 1566HOH     H2 4904   0.781   1.380   3.183
 1567HOH      O 4905   1.376   1.524   1.643
 1567HOH     H1 4906   1.285   1.500   1.661
 1567HOH     H2 4907   1.372   1.616   1.617
 1568HOH      O 4908   1.823   1.334   1.525
 1568HOH     H1 4909   1.888   1.403   1.544
 1568HOH     H2 4910   1.743   1.366   1.566
 1569HOH      O 4911   3.156   0.424   3.047
 1569HOH     H1 4912   3.216   0.499   3.055
 1569HOH     H2 4913   3.180   0.383   2.964
 1570HOH      O 4914   0.136   1.303   2.171
 1570HOH     H1 4915   0.095   1.218   2.189
 1570HOH     H2 4916   0.174   1.330   2.254
 1571HOH      O 4917   3.982   0.289   1.625
 1571HOH     H1 4918   3.954   0.339   1.549
 1571HOH     H2 4919   3.951   0.200   1.609
 1572HOH      O 4920   0.011   1.441   0.097
 1572HOH     H1 4921   0.067   1.491   0.157
 1572HOH     H2 4922  -0.041   1.385   0.154
 1573HOH      O 4923   0.659   2.970   2.370
 1573HOH     H1 4924   0.714   2.914   2.314
 1573HOH     H2 4925   0.628   3.039   2.312
 1574HOH      O 4926   1.693   3.973   2.563
 1574HOH     H1 4927   1.754   3.907   2.597
 1574HOH     H2 4928   1.735   4.004   2.482
 1575HOH      O 4929   3.665   3.263   2.870
 1575HOH     H1 4930   3.705   3.177   2.862
 1575HOH     H2 4931   3.676   3.286   2.962
 1576HOH      O 4932   2.357   0.790   3.175
 1576HOH     H1 4933   2.429   0.818   3.232
 1576HOH     H2 4934   2.279   0.829   3.213
 1577HOH      O 4935   0.188   1.648   2.352
 1577HOH     H1 4936   0.271   1.652   2.305
 1577HOH     H2 4937   0.122   1.670   2.286
 1578HOH      O 4938   0.698   3.447   3.327
 1578HOH     H1 4939   0.653   3.428   3.409
 1578HOH     H2 4940   0.790   3.430   3.346
 1579HOH      O 4941   2.279   0.917   1.446
 1579HOH     H1 4942   2.243   0.947   1.530
 1579HOH     H2 4943   2.269   0.991   1.387
 1580HOH      O 4944   1.345   1.008   0.500
 1580HOH     H1 4945   1.259   0.980   0.532
 1580HOH     H2 4946   1.407   0.959   0.553
 1581HOH      O 4947   0.117   0.192   2.636
 1581HOH     H1 4948   0.202   0.231   2.614
 1581HOH     H2 4949   0.115   0.191   2.732
 1582HOH      O 4950   0.884   3.190   0.163
 1582HOH     H1 4951   0.962   3.134   0.167
 1582HOH     H2 4952   0.895   3.251   0.235
 1583HOH      O 4953   0.501   2.007   0.751
 1583HOH     H1 4954   0.472   2.094   0.780
 1583HOH     H2 4955   0.428   1.974   0.699
 1584HOH      O 4956   3.446   3.643   2.062
 1584HOH     H1 4957   3.421   3.718   2.009
 1584HOH     H2 4958   3.407   3.567   2.018
 1585HOH      O 4959   1.343   2.980   3.575
 1585HOH     H1 4960   1.363   3.064   3.617
 1585HOH     H2 4961   1.256   2.993   3.537
 1586HOH      O 4962   2.897   2.955   1.974
 1586HOH     H1 4963   2.975   3.007   1.992
 1586HOH     H2 4964   2.893   2.949   1.879
 1587HOH      O 4965   2.350   2.789   2.502
 1587HOH     H1 4966   2.382   2.775   2.413
 1587HOH     H2 4967   2.358   2.884   2.515
 1588HOH      O 4968   3.116   3.174   3.493
 1588HOH     H1 4969   3.119   3.132   3.408
 1588HOH     H2 4970   3.076   3.260   3.476
 1589HOH      O 4971   3.265   1.151   0.067
 1589HOH     H1 4972   3.304   1.226   0.022
 1589HOH     H2 4973   3.295   1.075   0.017
 1590HOH      O 4974   2.789   0.964   0.428
 1590HOH     H1 4975   2.802   1.010   0.345
 1590HOH     H2 4976   2.728   0.893   0.407
 1591HOH      O 4977   2.793   1.318   3.771
 1591HOH     H1 4978   2.723   1.323   3.707
 1591HOH     H2 4979   2.793   1.404   3.813
 1592HOH      O 4980   0.419   0.405   1.776
 1592HOH     H1 4981   0.476   0.328   1.771
 1592HOH     H2 4982   0.363   0.389   1.852
 1593HOH      O 4983   1.136   3.060   2.354
 1593HOH     H1 4984   1.098   3.073   2.441
 1593HOH     H2 4985   1.102   3.133   2.303
 1594HOH      O 4986   4.018   2.310   3.439
 1594HOH     H1 4987   3.932   2.270   3.430
 1594HOH     H2 4988   4.053   2.311   3.349
 1595HOH      O 4989   2.798   0.014   3.738
 1595HOH     H1 4990   2.867   0.035   3.675
 1595HOH     H2 4991   2.740   0.090   3.735
 1596HOH      O 4992   0.919   1.816   0.911
 1596HOH     H1 4993   0.974   1.827   0.988
 1596HOH     H2 4994   0.829   1.830   0.943
 1597HOH      O 4995   2.133   2.532   0.770
 1597HOH     H1 4996   2.213   2.483   0.791
 1597HOH     H2 4997   2.117   2.586   0.848
 1598HOH      O 4998   1.434   0.208   3.005
 1598HOH     H1 4999   1.452   0.214   3.099
 1598HOH     H2 5000   1.342   0.186   2.999
 1599HOH      O 5001   1.053   3.367   2.797
 1599HOH     H1 5002   1.007   3.289   2.766
 1599HOH     H2 5003   1.125   3.379   2.736
 1600HOH      O 5004   1.958   4.019   3.397
 1600HOH     H1 5005   2.001   3.947   3.444
 1600HOH     H2 5006   2.007   4.097   3.423
 1601HOH      O 5007   1.803   2.576   0.182
 1601HOH     H1 5008   1.763   2.635   0.119
 1601HOH     H2 5009   1.882   2.544   0.138
 1602HOH      O 5010   0.625   1.147   0.896
 1602HOH     H1 5011   0.716   1.147   0.924
 1602HOH     H2 5012   0.618   1.222   0.837
 1603HOH      O 5013   3.293   1.279   1.365
 1603HOH     H1 5014   3.328   1.237   1.286
 1603HOH     H2 5015   3.241   1.210   1.407
 1604HOH      O 5016   0.460   3.375   0.136
 1604HOH     H1 5017   0.534   3.407   0.084
 1604HOH     H2 5018   0.409   3.453   0.156
 1605HOH      O 5019   3.624   1.264   1.978
 1605HOH     H1 5020   3.617   1.268   1.883
 1605HOH     H2 5021   3.618   1.356   2.006
 1606HOH      O 5022   0.499   0.433   1.421
 1606HOH     H1 5023   0.577   0.390   1.387
 1606HOH     H2 5024   0.461   0.478   1.345
 1607HOH      O 5025   0.571   0.602   0.646
 1607HOH     H1 5026   0.629   0.652   0.703
 1607HOH     H2 5027   0.626   0.577   0.572
 1608HOH      O 5028   2.156   1.963   0.939
 1608HOH     H1 5029   2.249   1.974   0.959
 1608HOH     H2 5030   2.155   1.921   0.853
 1609HOH      O 5031   0.958   3.973   1.079
 1609HOH     H1 5032   0.958   3.983   1.174
 1609HOH     H2 5033   0.870   3.939   1.059
 1610HOH      O 5034   3.129   3.536   1.509
 1610HOH     H1 5035   3.091   3.624   1.503
 1610HOH     H2 5036   3.098   3.492   1.429
 1611HOH      O 5037   0.312   4.028   3.712
 1611HOH     H1 5038   0.395   4.022   3.761
 1611HOH     H2 5039   0.251   3.974   3.763
 1612HOH      O 5040   2.627   2.251   1.858
 1612HOH     H1 5041   2.677   2.326   1.891
 1612HOH     H2 5042   2.575   2.222   1.933
 1613HOH      O 5043   1.619   0.360   2.012
 1613HOH     H1 5044   1.646   0.272   2.039
 1613HOH     H2 5045   1.627   0.413   2.091
 1614HOH      O 5046   0.688   1.873   2.404
 1614HOH     H1 5047   0.685   1.929   2.482
 1614HOH     H2 5048   0.668   1.785   2.436
 1615HOH      O 5049   2.939   2.705   3.053
 1615HOH     H1 5050   3.011   2.722   3.114
 1615HOH     H2 5051   2.860   2.714   3.106
 1616HOH      O 5052   2.231   3.774   2.927
 1616HOH     H1 5053   2.245   3.833   2.853
 1616HOH     H2 5054   2.187   3.827   2.992
 1617HOH      O 5055   3.817   2.739   1.567
 1617HOH     H1 5056   3.725   2.739   1.540
 1617HOH     H2 5057   3.819   2.682   1.644
 1618HOH      O 5058   2.717   0.950   1.918
 1618HOH     H1 5059   2.647   0.888   1.935
 1618HOH     H2 5060   2.680   1.035   1.942
 1619HOH      O 5061   2.831   1.245   0.899
 1619HOH     H1 5062   2.913   1.209   0.931
 1619HOH     H2 5063   2.847   1.262   0.806
 1620HOH      O 5064   2.536   2.336   3.023
 1620HOH     H1 5065   2.578   2.361   2.940
 1620HOH     H2 5066   2.513   2.244   3.011
 1621HOH      O 5067   1.383   1.075   1.805
 1621HOH     H1 5068   1.347   1.120   1.882
 1621HOH     H2 5069   1.470   1.112   1.794
 1622HOH      O 5070   3.097   3.357   0.057
 1622HOH     H1 5071   3.093   3.440   0.106
 1622HOH     H2 5072   3.096   3.384  -0.035
 1623HOH      O 5073   3.579   1.020   1.727
 1623HOH     H1 5074   3.666   1.037   1.691
 1623HOH     H2 5075   3.589   0.937   1.774
 1624HOH      O 5076   3.620   1.594   0.927
 1624HOH     H1 5077   3.684   1.524   0.935
 1624HOH     H2 5078   3.621   1.617   0.834
 1625HOH      O 5079   0.643   1.113   2.719
 1625HOH     H1 5080   0.680   1.074   2.798
 1625HOH     H2 5081   0.648   1.207   2.735
 1626HOH      O 5082   3.734   2.898   2.655
 1626HOH     H1 5083   3.827   2.882   2.638
 1626HOH     H2 5084   3.717   2.983   2.614
 1627HOH      O 5085   1.885   1.862   0.573
 1627HOH     H1 5086   1.867   1.926   0.504
 1627HOH     H2 5087   1.799   1.844   0.612
 1628HOH      O 5088   0.892   0.244   2.512
 1628HOH     H1 5089   0.824   0.177   2.526
 1628HOH     H2 5090   0.846   0.318   2.473
 1629HOH      O 5091   0.263   3.384   2.728
 1629HOH     H1 5092   0.180   3.430   2.727
 1629HOH     H2 5093   0.328   3.451   2.706
 1630HOH      O 5094   4.025   2.891   3.586
 1630HOH     H1 5095   4.001   2.846   3.505
 1630HOH     H2 5096   3.947   2.883   3.642
 1631HOH      O 5097   3.881   4.032   3.576
 1631HOH     H1 5098   3.968   4.007   3.606
 1631HOH     H2 5099   3.821   3.986   3.635
 1632HOH      O 5100   0.701   2.983   0.097
 1632HOH     H1 5101   0.763   3.056   0.105
 1632HOH     H2 5102   0.754   2.905   0.115
 1633HOH      O 5103   1.312   0.670   1.901
 1633HOH     H1 5104   1.403   0.680   1.930
 1633HOH     H2 5105   1.308   0.582   1.865
 1634HOH      O 5106   3.964   0.820   0.785
 1634HOH     H1 5107   3.883   0.770   0.771
 1634HOH     H2 5108   4.021   0.795   0.713
 1635HOH      O 5109   0.565   0.777   2.458
 1635HOH     H1 5110   0.501   0.840   2.490
 1635HOH     H2 5111   0.599   0.735   2.536
 1636HOH      O 5112   0.809   2.582   1.983
 1636HOH     H1 5113   0.775   2.648   2.044
 1636HOH     H2 5114   0.858   2.633   1.918
 1637HOH      O 5115   3.532   3.598   0.603
 1637HOH     H1 5116   3.449   3.622   0.645
 1637HOH     H2 5117   3.574   3.682   0.584
 1638HOH      O 5118   3.427   2.305   3.891
 1638HOH     H1 5119   3.351   2.320   3.946
 1638HOH     H2 5120   3.395   2.250   3.820
 1639HOH      O 5121   2.817   1.894   0.899
 1639HOH     H1 5122   2.896   1.850   0.869
 1639HOH     H2 5123   2.754   1.882   0.827
 1640HOH      O 5124   3.222   2.356   2.235
 1640HOH     H1 5125   3.277   2.310   2.298
 1640HOH     H2 5126   3.263   2.442   2.225
 1641HOH      O 5127   0.065   1.138   2.524
 1641HOH     H1 5128   0.072   1.113   2.432
 1641HOH     H2 5129  -0.015   1.190   2.529
 1642HOH      O 5130   0.367   2.160   1.584
 1642HOH     H1 5131   0.285   2.117   1.559
 1642HOH     H2 5132   0.381   2.133   1.675
 1643HOH      O 5133   3.957   1.319   2.900
 1643HOH     H1 5134   3.997   1.405   2.913
 1643HOH     H2 5135   3.867   1.329   2.931
 1644HOH      O 5136   0.269   2.468   3.835
 1644HOH     H1 5137   0.210   2.521   3.782
 1644HOH     H2 5138   0.232   2.380   3.830
 1645HOH      O 5139   0.418   0.727   1.634
 1645HOH     H1 5140   0.399   0.806   1.684
 1645HOH     H2 5141   0.375   0.740   1.550
 1646HOH      O 5142   2.935   1.108   1.246
 1646HOH     H1 5143   3.001   1.097   1.178
 1646HOH     H2 5144   2.975   1.074   1.326
 1647HOH      O 5145   2.409   0.906   2.657
 1647HOH     H1 5146   2.451   0.879   2.575
 1647HOH     H2 5147   2.317   0.881   2.645
 1648HOH      O 5148   1.721   0.307   3.129
 1648HOH     H1 5149   1.799   0.349   3.165
 1648HOH     H2 5150   1.663   0.296   3.204
 1649HOH      O 5151   0.645   3.050   1.070
 1649HOH     H1 5152   0.725   3.097   1.095
 1649HOH     H2 5153   0.599   3.036   1.153
 1650HOH      O 5154   0.268   1.308   2.473
 1650HOH     H1 5155   0.220   1.385   2.503
 1650HOH     H2 5156   0.228   1.234   2.519
 1651HOH      O 5157   1.225   1.691   3.722
 1651HOH     H1 5158   1.303   1.705   3.667
 1651HOH     H2 5159   1.215   1.773   3.771
 1652HOH      O 5160   3.945   0.519   2.441
 1652HOH     H1 5161   3.852   0.519   2.416
 1652HOH     H2 5162   3.992   0.529   2.359
 1653HOH      O 5163   1.679   1.187   0.231
 1653HOH     H1 5164   1.636   1.272   0.218
 1653HOH     H2 5165   1.773   1.208   0.231
 1654HOH      O 5166   2.015   3.161   0.429
 1654HOH     H1 5167   1.979   3.226   0.489
 1654HOH     H2 5168   2.089   3.205   0.387
 1655HOH      O 5169   3.998   2.616   3.423
 1655HOH     H1 5170   3.979   2.665   3.343
 1655HOH     H2 5171   4.057   2.546   3.394
 1656HOH      O 5172   0.166   2.663   0.819
 1656HOH     H1 5173   0.174   2.586   0.763
 1656HOH     H2 5174   0.074   2.690   0.811
 1657HOH      O 5175   3.651   0.686   1.344
 1657HOH     H1 5176   3.642   0.649   1.432
 1657HOH     H2 5177   3.673   0.778   1.359
 1658HOH      O 5178   0.346   2.224   0.881
 1658HOH     H1 5179   0.305   2.152   0.929
 1658HOH     H2 5180   0.276   2.289   0.871
 1659HOH      O 5181   2.384   0.789   2.192
 1659HOH     H1 5182   2.394   0.698   2.166
 1659HOH     H2 5183   2.293   0.810   2.170
 1660HOH      O 5184   2.136   3.968   3.728
 1660HOH     H1 5185   2.141   3.916   3.647
 1660HOH     H2 5186   2.227   3.976   3.757
 1661HOH      O 5187   3.985   1.749   3.716
 1661HOH     H1 5188   3.970   1.793   3.633
 1661HOH     H2 5189   3.906   1.765   3.767
 1662HOH      O 5190   2.718   3.295   3.619
 1662HOH     H1 5191   2.718   3.306   3.524
 1662HOH     H2 5192   2.810   3.292   3.643
 1663HOH      O 5193   1.495   1.457   0.016
 1663HOH     H1 5194   1.457   1.414   0.093
 1663HOH     H2 5195   1.446   1.423  -0.058
 1664HOH      O 5196   0.644   2.844   3.159
 1664HOH     H1 5197   0.691   2.848   3.075
 1664HOH     H2 5198   0.713   2.853   3.225
 1665HOH      O 5199   0.372   1.535   1.764
 1665HOH     H1 5200   0.408   1.466   1.709
 1665HOH     H2 5201   0.424   1.613   1.741
 1666HOH      O 5202   1.634   0.060   3.598
 1666HOH     H1 5203   1.624  -0.027   3.559
 1666HOH     H2 5204   1.548   0.101   3.586
 1667HOH      O 5205   0.794   3.508   0.487
 1667HOH     H1 5206   0.762   3.597   0.503
 1667HOH     H2 5207   0.785   3.496   0.393
 1668HOH      O 5208   3.099   3.616   1.794
 1668HOH     H1 5209   3.153   3.693   1.775
 1668HOH     H2 5210   3.091   3.572   1.710
 1669HOH      O 5211   1.642   0.430   3.515
 1669HOH     H1 5212   1.679   0.445   3.602
 1669HOH     H2 5213   1.617   0.337   3.516
 1670HOH      O 5214   2.552   0.414   0.995
 1670HOH     H1 5215   2.462   0.417   1.029
 1670HOH     H2 5216   2.573   0.321   0.990
 1671HOH      O 5217   0.829   2.352   3.089
 1671HOH     H1 5218   0.776   2.404   3.029
 1671HOH     H2 5219   0.902   2.410   3.113
 1672HOH      O 5220   0.907   2.700   0.246
 1672HOH     H1 5221   0.978   2.666   0.191
 1672HOH     H2 5222   0.827   2.683   0.197
 1673HOH      O 5223   0.941   3.847   3.499
 1673HOH     H1 5224   1.004   3.785   3.535
 1673HOH     H2 5225   0.993   3.926   3.481
 1674HOH      O 5226   2.311   4.059   1.123
 1674HOH     H1 5227   2.314   3.977   1.073
 1674HOH     H2 5228   2.347   4.035   1.209
 1675HOH      O 5229   1.965   0.585   0.177
 1675HOH     H1 5230   2.043   0.596   0.231
 1675HOH     H2 5231   1.982   0.507   0.125
 1676HOH      O 5232   0.551   3.298   3.649
 1676HOH     H1 5233   0.517   3.388   3.646
 1676HOH     H2 5234   0.497   3.254   3.714
 1677HOH      O 5235   0.228   3.615   2.978
 1677HOH     H1 5236   0.320   3.626   2.956
 1677HOH     H2 5237   0.222   3.641   3.070
 1678HOH      O 5238   0.829   3.388   3.797
 1678HOH     H1 5239   0.755   3.449   3.798
 1678HOH     H2 5240   0.843   3.366   3.889
 1679HOH      O 5241   3.284   2.254   0.922
 1679HOH     H1 5242   3.288   2.210   1.007
 1679HOH     H2 5243   3.232   2.333   0.938
 1680HOH      O 5244   0.477   3.122  -0.012
 1680HOH     H1 5245   0.506   3.205   0.027
 1680HOH     H2 5246   0.543   3.059   0.015
 1681HOH      O 5247   1.611   1.449   1.082
 1681HOH     H1 5248   1.616   1.391   1.006
 1681HOH     H2 5249   1.702   1.474   1.100
 1682HOH      O 5250   1.942   2.256   0.204
 1682HOH     H1 5251   2.007   2.326   0.208
 1682HOH     H2 5252   1.945   2.225   0.113
 1683HOH      O 5253   3.189   3.757   2.736
 1683HOH     H1 5254   3.148   3.721   2.657
 1683HOH     H2 5255   3.167   3.695   2.805
 1684HOH      O 5256   2.207   0.468   3.270
 1684HOH     H1 5257   2.248   0.511   3.195
 1684HOH     H2 5258   2.154   0.537   3.310
 1685HOH      O 5259   2.093   1.784   3.515
 1685HOH     H1 5260   2.066   1.863   3.468
 1685HOH     H2 5261   2.128   1.816   3.598
 1686HOH      O 5262   1.163   2.170   3.660
 1686HOH     H1 5263   1.220   2.245   3.680
 1686HOH     H2 5264   1.076   2.199   3.686
 1687HOH      O 5265   1.492   3.881   2.301
 1687HOH     H1 5266   1.500   3.887   2.396
 1687HOH     H2 5267   1.579   3.854   2.271
 1688HOH      O 5268   2.902   2.847   4.052
 1688HOH     H1 5269   2.987   2.840   4.009
 1688HOH     H2 5270   2.848   2.897   3.990
 1689HOH      O 5271   1.302   1.017   1.445
 1689HOH     H1 5272   1.376   1.074   1.466
 1689HOH     H2 5273   1.333   0.929   1.465
 1690HOH      O 5274   0.117   1.568   3.603
 1690HOH     H1 5275   0.039   1.600   3.648
 1690HOH     H2 5276   0.083   1.530   3.522
 1691HOH      O 5277   3.005   3.416   1.321
 1691HOH     H1 5278   3.031   3.385   1.234
 1691HOH     H2 5279   2.950   3.493   1.302
 1692HOH      O 5280   3.078   3.694   2.494
 1692HOH     H1 5281   3.016   3.628   2.461
 1692HOH     H2 5282   3.157   3.680   2.442
 1693HOH      O 5283   1.184   2.978   1.889
 1693HOH     H1 5284   1.164   2.926   1.967
 1693HOH     H2 5285   1.268   3.019   1.909
 1694HOH      O 5286   0.316   0.773   0.860
 1694HOH     H1 5287   0.374   0.830   0.809
 1694HOH     H2 5288   0.246   0.748   0.800
 1695HOH      O 5289   2.712   3.313   3.355
 1695HOH     H1 5290   2.782   3.277   3.300
 1695HOH     H2 5291   2.678   3.387   3.304
 1696HOH      O 5292   3.197   0.258   0.173
 1696HOH     H1 5293   3.176   0.209   0.252
 1696HOH     H2 5294   3.274   0.310   0.197
 1697HOH      O 5295   0.075   1.547   2.898
 1697HOH     H1 5296   0.096   1.640   2.895
 1697HOH     H2 5297   0.075   1.520   2.806
 1698HOH      O 5298   3.928   0.545   3.449
 1698HOH     H1 5299   3.866   0.583   3.387
 1698HOH     H2 5300   4.008   0.595   3.437
 1699HOH      O 5301   3.179   0.799   0.400
 1699HOH     H1 5302   3.161   0.856   0.475
 1699HOH     H2 5303   3.168   0.710   0.434
 1700HOH      O 5304   3.395   1.855   0.724
 1700HOH     H1 5305   3.335   1.876   0.795
 1700HOH     H2 5306   3.468   1.916   0.736
 1701HOH      O 5307   1.089   2.408   1.475
 1701HOH     H1 5308   1.076   2.321   1.514
 1701HOH     H2 5309   1.108   2.390   1.382
 1702HOH      O 5310   2.616   0.468   3.448
 1702HOH     H1 5311   2.677   0.462   3.522
 1702HOH     H2 5312   2.615   0.380   3.411
 1703HOH      O 5313   3.074   2.488   2.953
 1703HOH     H1 5314   3.010   2.559   2.940
 1703HOH     H2 5315   3.079   2.477   3.048
 1704HOH      O 5316   2.880   2.621   1.726
 1704HOH     H1 5317   2.790   2.614   1.694
 1704HOH     H2 5318   2.934   2.595   1.652
 1705HOH      O 5319   1.288   0.033   1.026
 1705HOH     H1 5320   1.377   0.068   1.030
 1705HOH     H2 5321   1.287  -0.036   1.093
 1706HOH      O 5322   3.937   2.056   3.294
 1706HOH     H1 5323   3.883   2.121   3.250
 1706HOH     H2 5324   4.026   2.075   3.265
 1707HOH      O 5325   2.596   3.228   2.808
 1707HOH     H1 5326   2.594   3.302   2.868
 1707HOH     H2 5327   2.555   3.261   2.728
 1708HOH      O 5328   0.374   3.515   3.915
 1708HOH     H1 5329   0.325   3.443   3.954
 1708HOH     H2 5330   0.320   3.541   3.840
 1709HOH      O 5331   2.583  -0.018   2.502
 1709HOH     H1 5332   2.496   0.022   2.508
 1709HOH     H2 5333   2.636   0.029   2.567
 1710HOH      O 5334   1.575   3.202   0.363
 1710HOH     H1 5335   1.644   3.150   0.323
 1710HOH     H2 5336   1.495   3.174   0.319
 1711HOH      O 5337   1.218   0.888   3.193
 1711HOH     H1 5338   1.233   0.974   3.154
 1711HOH     H2 5339   1.297   0.870   3.244
 1712HOH      O 5340   0.773   2.450   4.045
 1712HOH     H1 5341   0.699   2.423   4.098
 1712HOH     H2 5342   0.757   2.412   3.958
 1713HOH      O 5343   0.278   1.316   3.636
 1713HOH     H1 5344   0.212   1.383   3.617
 1713HOH     H2 5345   0.226   1.236   3.651
 1714HOH      O 5346   2.830   3.604   3.911
 1714HOH     H1 5347   2.788   3.525   3.943
 1714HOH     H2 5348   2.902   3.620   3.972
 1715HOH      O 5349   0.849   1.762   3.534
 1715HOH     H1 5350   0.892   1.845   3.514
 1715HOH     H2 5351   0.920   1.698   3.540
 1716HOH      O 5352   3.062   2.402   0.752
 1716HOH     H1 5353   3.034   2.324   0.800
 1716HOH     H2 5354   3.078   2.467   0.820
 1717HOH      O 5355   0.630   0.136   3.365
 1717HOH     H1 5356   0.656   0.208   3.308
 1717HOH     H2 5357   0.660   0.162   3.452
 1718HOH      O 5358   3.304   3.412   2.014
 1718HOH     H1 5359   3.221   3.431   2.058
 1718HOH     H2 5360   3.326   3.323   2.042
 1719HOH      O 5361   0.532   1.374   2.600
 1719HOH     H1 5362   0.471   1.337   2.535
 1719HOH     H2 5363   0.477   1.429   2.655
 1720HOH      O 5364   3.771   3.225   3.384
 1720HOH     H1 5365   3.854   3.179   3.394
 1720HOH     H2 5366   3.788   3.314   3.414
 1721HOH      O 5367   3.436   3.509   3.512
 1721HOH     H1 5368   3.499   3.573   3.548
 1721HOH     H2 5369   3.430   3.442   3.580
 1722HOH      O 5370   2.489   1.927   0.558
 1722HOH     H1 5371   2.559   1.918   0.493
 1722HOH     H2 5372   2.496   2.018   0.587
 1723HOH      O 5373   3.229   0.080   3.332
 1723HOH     H1 5374   3.215   0.026   3.411
 1723HOH     H2 5375   3.159   0.053   3.273
 1724HOH      O 5376   1.145   1.230   1.018
 1724HOH     H1 5377   1.206   1.257   0.950
 1724HOH     H2 5378   1.184   1.150   1.055
 1725HOH      O 5379   2.853   3.596   1.854
 1725HOH     H1 5380   2.821   3.511   1.882
 1725HOH     H2 5381   2.945   3.580   1.832
 1726HOH      O 5382   0.376   2.944   3.392
 1726HOH     H1 5383   0.461   2.963   3.433
 1726HOH     H2 5384   0.347   2.863   3.434
 1727HOH      O 5385   2.074   3.070   3.813
 1727HOH     H1 5386   2.005   3.012   3.846
 1727HOH     H2 5387   2.147   3.012   3.793
 1728HOH      O 5388   2.085   3.005   2.770
 1728HOH     H1 5389   2.122   3.056   2.841
 1728HOH     H2 5390   2.018   3.061   2.732
 1729HOH      O 5391   2.682   2.472   0.673
 1729HOH     H1 5392   2.732   2.538   0.624
 1729HOH     H2 5393   2.726   2.468   0.758
 1730HOH      O 5394   0.207   1.738   1.432
 1730HOH     H1 5395   0.252   1.654   1.444
 1730HOH     H2 5396   0.266   1.789   1.377
 1731HOH      O 5397   0.982   1.572   3.139
 1731HOH     H1 5398   0.997   1.610   3.226
 1731HOH     H2 5399   1.065   1.531   3.117
 1732HOH      O 5400   2.649   1.328   1.960
 1732HOH     H1 5401   2.665   1.352   1.869
 1732HOH     H2 5402   2.692   1.398   2.010
 1733HOH      O 5403   2.420   2.411   3.955
 1733HOH     H1 5404   2.424   2.453   4.041
 1733HOH     H2 5405   2.496   2.446   3.908
 1734HOH      O 5406   2.746   2.426   2.870
 1734HOH     H1 5407   2.798   2.444   2.792
 1734HOH     H2 5408   2.789   2.349   2.909
 1735HOH      O 5409   2.333   1.601   0.845
 1735HOH     H1 5410   2.424   1.628   0.858
 1735HOH     H2 5411   2.298   1.664   0.782
 1736HOH      O 5412   1.569   2.403   1.712
 1736HOH     H1 5413   1.639   2.339   1.697
 1736HOH     H2 5414   1.610   2.471   1.767
 1737HOH      O 5415   1.491   0.513   3.980
 1737HOH     H1 5416   1.528   0.425   3.986
 1737HOH     H2 5417   1.413   0.510   4.035
 1738HOH      O 5418   1.667   3.588   2.895
 1738HOH     H1 5419   1.671   3.492   2.902
 1738HOH     H2 5420   1.743   3.618   2.945
 1739HOH      O 5421   1.622   0.261   0.758
 1739HOH     H1 5422   1.640   0.277   0.850
 1739HOH     H2 5423   1.569   0.181   0.758
 1740HOH      O 5424   2.173   2.866   1.760
 1740HOH     H1 5425   2.246   2.830   1.711
 1740HOH     H2 5426   2.115   2.791   1.776
 1741HOH      O 5427   2.941   0.318   3.267
 1741HOH     H1 5428   2.878   0.301   3.337
 1741HOH     H2 5429   3.011   0.255   3.281
 1742HOH      O 5430   3.507   2.186   0.096
 1742HOH     H1 5431   3.541   2.103   0.063
 1742HOH     H2 5432   3.488   2.237   0.017
 1743HOH      O 5433   1.192   1.692   0.014
 1743HOH     H1 5434   1.155   1.614  -0.027
 1743HOH     H2 5435   1.135   1.710   0.088
 1744HOH      O 5436   2.549   2.304   1.099
 1744HOH     H1 5437   2.626   2.358   1.111
 1744HOH     H2 5438   2.522   2.280   1.188
 1745HOH      O 5439   0.933   3.446   3.039
 1745HOH     H1 5440   0.897   3.359   3.058
 1745HOH     H2 5441   1.021   3.429   3.007
 1746HOH      O 5442   1.223   0.054   2.942
 1746HOH     H1 5443   1.209   0.086   2.853
 1746HOH     H2 5444   1.140   0.011   2.965
 1747HOH      O 5445   1.344   2.409   3.736
 1747HOH     H1 5446   1.343   2.485   3.795
 1747HOH     H2 5447   1.435   2.382   3.733
 1748HOH      O 5448   1.935   3.508   2.034
 1748HOH     H1 5449   1.893   3.472   2.111
 1748HOH     H2 5450   2.020   3.464   2.029
 1749HOH      O 5451   3.938   0.036   1.423
 1749HOH     H1 5452   3.967   0.100   1.358
 1749HOH     H2 5453   3.910  -0.040   1.372
 1750HOH      O 5454   0.994   2.260   4.031
 1750HOH     H1 5455   0.980   2.249   3.937
 1750HOH     H2 5456   0.917   2.308   4.062
 1751HOH      O 5457   3.060   3.276   1.078
 1751HOH     H1 5458   3.014   3.293   0.996
 1751HOH     H2 5459   3.150   3.259   1.052
 1752HOH      O 5460   2.673   3.007   0.168
 1752HOH     H1 5461   2.766   3.012   0.191
 1752HOH     H2 5462   2.672   2.998   0.073
 1753HOH      O 5463   3.821   0.789   2.993
 1753HOH     H1 5464   3.863   0.828   3.069
 1753HOH     H2 5465   3.757   0.855   2.964
 1754HOH      O 5466   0.703   0.754   3.459
 1754HOH     H1 5467   0.698   0.661   3.479
 1754HOH     H2 5468   0.617   0.788   3.482
 1755HOH      O 5469   3.318   0.964   3.941
 1755HOH     H1 5470   3.338   0.960   3.848
 1755HOH     H2 5471   3.345   0.879   3.976
 1756HOH      O 5472   1.507   2.938   3.852
 1756HOH     H1 5473   1.549   3.022   3.834
 1756HOH     H2 5474   1.533   2.917   3.941
 1757HOH      O 5475   3.744   2.719   0.557
 1757HOH     H1 5476   3.675   2.784   0.545
 1757HOH     H2 5477   3.698   2.640   0.587
 1758HOH      O 5478   1.805   2.824   0.992
 1758HOH     H1 5479   1.723   2.810   0.945
 1758HOH     H2 5480   1.780   2.873   1.070
 1759HOH      O 5481   1.873   0.376   1.198
 1759HOH     H1 5482   1.955   0.420   1.179
 1759HOH     H2 5483   1.867   0.374   1.293
 1760HOH      O 5484   0.913   2.788   0.945
 1760HOH     H1 5485   0.900   2.867   0.998
 1760HOH     H2 5486   0.998   2.754   0.973
 1761HOH      O 5487   3.188   3.686   3.088
 1761HOH     H1 5488   3.277   3.666   3.057
 1761HOH     H2 5489   3.200   3.708   3.180
 1762HOH      O 5490   1.075   3.784   2.464
 1762HOH     H1 5491   1.071   3.799   2.369
 1762HOH     H2 5492   1.168   3.791   2.485
 1763HOH      O 5493   1.046   2.766   3.502
 1763HOH     H1 5494   1.117   2.718   3.544
 1763HOH     H2 5495   0.969   2.710   3.512
 1764HOH      O 5496   3.724   2.381   0.119
 1764HOH     H1 5497   3.798   2.321   0.122
 1764HOH     H2 5498   3.651   2.330   0.153
 1765HOH      O 5499   0.132   3.799   1.423
 1765HOH     H1 5500   0.098   3.833   1.341
 1765HOH     H2 5501   0.180   3.720   1.398
 1766HOH      O 5502   1.621   1.734   3.295
 1766HOH     H1 5503   1.606   1.805   3.233
 1766HOH     H2 5504   1.538   1.726   3.342
 1767HOH      O 5505   3.683   1.363   1.539
 1767HOH     H1 5506   3.704   1.436   1.598
 1767HOH     H2 5507   3.588   1.367   1.529
 1768HOH      O 5508   0.638   3.647   0.762
 1768HOH     H1 5509   0.632   3.730   0.809
 1768HOH     H2 5510   0.653   3.582   0.829
 1769HOH      O 5511   3.646   3.278   3.155
 1769HOH     H1 5512   3.698   3.264   3.234
 1769HOH     H2 5513   3.566   3.228   3.170
 1770HOH      O 5514   1.841   2.600   3.728
 1770HOH     H1 5515   1.902   2.529   3.750
 1770HOH     H2 5516   1.866   2.628   3.640
 1771HOH      O 5517   1.511   0.265   2.317
 1771HOH     H1 5518   1.476   0.341   2.270
 1771HOH     H2 5519   1.598   0.294   2.347
 1772HOH      O 5520   3.969   0.943   3.455
 1772HOH     H1 5521   3.887   0.939   3.505
 1772HOH     H2 5522   4.029   0.888   3.505
 1773HOH      O 5523   1.904   1.097   2.490
 1773HOH     H1 5524   1.951   1.180   2.498
 1773HOH     H2 5525   1.964   1.040   2.443
 1774HOH      O 5526   0.816   3.251   1.575
 1774HOH     H1 5527   0.721   3.252   1.583
 1774HOH     H2 5528   0.838   3.161   1.553
 1775HOH      O 5529   0.186   1.437   1.074
 1775HOH     H1 5530   0.248   1.462   1.006
 1775HOH     H2 5531   0.148   1.520   1.104
 1776HOH      O 5532   3.165   2.553   2.579
 1776HOH     H1 5533   3.123   2.631   2.616
 1776HOH     H2 5534   3.154   2.562   2.484
 1777HOH      O 5535   2.761   1.792   2.487
 1777HOH     H1 5536   2.743   1.699   2.474
 1777HOH     H2 5537   2.850   1.795   2.520
 1778HOH      O 5538   0.125   2.378   0.858
 1778HOH     H1 5539   0.060   2.330   0.806
 1778HOH     H2 5540   0.073   2.432   0.917
 1779HOH      O 5541   1.778   0.680   1.257
 1779HOH     H1 5542   1.710   0.646   1.316
 1779HOH     H2 5543   1.762   0.634   1.175
 1780HOH      O 5544   0.797   0.872   3.226
 1780HOH     H1 5545   0.815   0.966   3.223
 1780HOH     H2 5546   0.770   0.856   3.317
 1781HOH      O 5547   2.440   1.155   2.522
 1781HOH     H1 5548   2.506   1.132   2.457
 1781HOH     H2 5549   2.423   1.074   2.569
 1782HOH      O 5550   1.180   2.049   0.082
 1782HOH     H1 5551   1.233   2.052   0.162
 1782HOH     H2 5552   1.138   2.135   0.078
 1783HOH      O 5553   0.239   1.815   0.077
 1783HOH     H1 5554   0.286   1.897   0.058
 1783HOH     H2 5555   0.150   1.832   0.049
 1784HOH      O 5556   3.558   1.920   3.099
 1784HOH     H1 5557   3.515   1.836   3.084
 1784HOH     H2 5558   3.592   1.914   3.189
 1785HOH      O 5559   3.867   2.986   1.724
 1785HOH     H1 5560   3.848   2.906   1.676
 1785HOH     H2 5561   3.803   3.049   1.691
 1786HOH      O 5562   2.987   3.173   0.814
 1786HOH     H1 5563   2.908   3.188   0.762
 1786HOH     H2 5564   3.053   3.229   0.774
 1787HOH      O 5565   2.070   2.432   3.869
 1787HOH     H1 5566   2.059   2.369   3.797
 1787HOH     H2 5567   2.161   2.461   3.861
 1788HOH      O 5568   2.856   3.542   2.371
 1788HOH     H1 5569   2.820   3.453   2.375
 1788HOH     H2 5570   2.824   3.577   2.288
 1789HOH      O 5571   3.074   1.900   2.545
 1789HOH     H1 5572   3.088   1.942   2.460
 1789HOH     H2 5573   3.160   1.867   2.570
 1790HOH      O 5574   2.971   2.748   1.292
 1790HOH     H1 5575   2.975   2.828   1.240
 1790HOH     H2 5576   2.878   2.722   1.289
 1791HOH      O 5577   3.191   0.517   2.266
 1791HOH     H1 5578   3.284   0.500   2.258
 1791HOH     H2 5579   3.164   0.469   2.345
 1792HOH      O 5580   0.622   3.785   1.986
 1792HOH     H1 5581   0.612   3.724   1.913
 1792HOH     H2 5582   0.543   3.839   1.981
 1793HOH      O 5583   3.504   2.318   1.809
 1793HOH     H1 5584   3.450   2.370   1.870
 1793HOH     H2 5585   3.442   2.258   1.767
 1794HOH      O 5586   0.509   0.779   3.161
 1794HOH     H1 5587   0.419   0.788   3.192
 1794HOH     H2 5588   0.563   0.798   3.237
 1795HOH      O 5589   3.464   3.447   1.751
 1795HOH     H1 5590   3.427   3.412   1.832
 1795HOH     H2 5591   3.424   3.534   1.742
 1796HOH      O 5592   2.019   3.430   2.531
 1796HOH     H1 5593   2.058   3.363   2.588
 1796HOH     H2 5594   2.009   3.387   2.447
 1797HOH      O 5595   0.299   3.124   1.624
 1797HOH     H1 5596   0.217   3.169   1.601
 1797HOH     H2 5597   0.271   3.043   1.668
 1798HOH      O 5598   2.758   0.252   0.613
 1798HOH     H1 5599   2.822   0.305   0.660
 1798HOH     H2 5600   2.810   0.205   0.547
 1799HOH      O 5601   0.743   1.179   3.667
 1799HOH     H1 5602   0.654   1.199   3.639
 1799HOH     H2 5603   0.735   1.163   3.761
 1800HOH      O 5604   3.548   2.901   1.729
 1800HOH     H1 5605   3.455   2.879   1.726
 1800HOH     H2 5606   3.573   2.912   1.637
 1801HOH      O 5607   2.448   1.149   3.211
 1801HOH     H1 5608   2.466   1.075   3.269
 1801HOH     H2 5609   2.378   1.197   3.254
 1802HOH      O 5610   0.898   0.444   0.701
 1802HOH     H1 5611   0.969   0.502   0.674
 1802HOH     H2 5612   0.916   0.361   0.657
 1803HOH      O 5613   0.462   2.781   2.806
 1803HOH     H1 5614   0.404   2.855   2.826
 1803HOH     H2 5615   0.526   2.817   2.744
 1804HOH      O 5616   3.629   1.904   0.559
 1804HOH     H1 5617   3.716   1.864   0.567
 1804HOH     H2 5618   3.568   1.832   0.576
 1805HOH      O 5619   0.726   2.065   0.612
 1805HOH     H1 5620   0.650   2.027   0.656
 1805HOH     H2 5621   0.790   2.077   0.682
 1806HOH      O 5622   3.074   2.732   1.907
 1806HOH     H1 5623   3.055   2.797   1.974
 1806HOH     H2 5624   2.990   2.717   1.864
 1807HOH      O 5625   2.232   0.784   3.668
 1807HOH     H1 5626   2.164   0.727   3.632
 1807HOH     H2 5627   2.314   0.748   3.634
 1808HOH      O 5628   3.210   2.780   1.662
 1808HOH     H1 5629   3.206   2.867   1.702
 1808HOH     H2 5630   3.158   2.725   1.720
 1809HOH      O 5631   0.574   3.127   2.026
 1809HOH     H1 5632   0.538   3.044   1.995
 1809HOH     H2 5633   0.552   3.190   1.957
 1810HOH      O 5634   2.181   3.244   2.675
 1810HOH     H1 5635   2.264   3.279   2.640
 1810HOH     H2 5636   2.205   3.208   2.760
 1811HOH      O 5637   0.585   3.603   1.375
 1811HOH     H1 5638   0.643   3.597   1.298
 1811HOH     H2 5639   0.520   3.534   1.361
 1812HOH      O 5640   2.489   0.389   3.138
 1812HOH     H1 5641   2.542   0.468   3.143
 1812HOH     H2 5642   2.464   0.383   3.046
 1813HOH      O 5643   3.985   0.730   3.664
 1813HOH     H1 5644   4.068   0.685   3.645
 1813HOH     H2 5645   3.918   0.667   3.638
 1814HOH      O 5646   3.209   1.846   3.342
 1814HOH     H1 5647   3.199   1.882   3.254
 1814HOH     H2 5648   3.292   1.884   3.373
 1815HOH      O 5649   1.113   0.128   2.718
 1815HOH     H1 5650   1.053   0.061   2.686
 1815HOH     H2 5651   1.174   0.143   2.646
 1816HOH      O 5652   2.069   1.232   3.573
 1816HOH     H1 5653   2.022   1.181   3.639
 1816HOH     H2 5654   2.074   1.320   3.611
 1817HOH      O 5655   1.758   2.555   0.996
 1817HOH     H1 5656   1.776   2.649   1.002
 1817HOH     H2 5657   1.797   2.529   0.913
 1818HOH      O 5658   0.029   2.613   3.738
 1818HOH     H1 5659  -0.029   2.599   3.663
 1818HOH     H2 5660   0.037   2.708   3.745
 1819HOH      O 5661   0.050   3.288   3.054
 1819HOH     H1 5662   0.142   3.313   3.056
 1819HOH     H2 5663   0.002   3.371   3.050
 1820HOH      O 5664   3.772   2.044   3.646
 1820HOH     H1 5665   3.771   1.953   3.616
 1820HOH     H2 5666   3.864   2.071   3.639
 1821HOH      O 5667   2.140   3.842   0.561
 1821HOH     H1 5668   2.098   3.919   0.524
 1821HOH     H2 5669   2.208   3.819   0.498
 1822HOH      O 5670   2.010   0.031   0.462
 1822HOH     H1 5671   1.933   0.001   0.414
 1822HOH     H2 5672   1.975   0.065   0.545
 1823HOH      O 5673   2.280   1.315   2.334
 1823HOH     H1 5674   2.211   1.268   2.286
 1823HOH     H2 5675   2.342   1.247   2.359
 1824HOH      O 5676   2.762   0.604   3.975
 1824HOH     H1 5677   2.706   0.586   4.050
 1824HOH     H2 5678   2.847   0.569   4.000
 1825HOH      O 5679   3.971   2.985   2.540
 1825HOH     H1 5680   3.969   3.043   2.463
 1825HOH     H2 5681   4.024   3.031   2.604
 1826HOH      O 5682   3.392   2.642   3.529
 1826HOH     H1 5683   3.312   2.689   3.504
 1826HOH     H2 5684   3.362   2.571   3.585
 1827HOH      O 5685   0.707   0.449   1.227
 1827HOH     H1 5686   0.703   0.527   1.172
 1827HOH     H2 5687   0.773   0.470   1.294
 1828HOH      O 5688   2.966   2.641   2.306
 1828HOH     H1 5689   2.921   2.655   2.223
 1828HOH     H2 5690   2.896   2.634   2.370
 1829HOH      O 5691   1.313   2.656   1.956
 1829HOH     H1 5692   1.307   2.740   2.001
 1829HOH     H2 5693   1.405   2.648   1.933
 1830HOH      O 5694   0.069   0.408   0.359
 1830HOH     H1 5695   0.043   0.351   0.431
 1830HOH     H2 5696   0.099   0.348   0.291
 1831HOH      O 5697   0.829   1.062   1.651
 1831HOH     H1 5698   0.850   1.033   1.563
 1831HOH     H2 5699   0.771   0.994   1.686
 1832HOH      O 5700   2.867   1.193   0.645
 1832HOH     H1 5701   2.838   1.230   0.562
 1832HOH     H2 5702   2.877   1.099   0.627
 1833HOH      O 5703   2.990   3.005   1.159
 1833HOH     H1 5704   2.895   3.009   1.149
 1833HOH     H2 5705   3.018   3.096   1.161
 1834HOH      O 5706   2.827   0.345   2.466
 1834HOH     H1 5707   2.816   0.316   2.375
 1834HOH     H2 5708   2.755   0.303   2.513
 1835HOH      O 5709   0.719   2.245   2.790
 1835HOH     H1 5710   0.651   2.311   2.804
 1835HOH     H2 5711   0.716   2.190   2.868
 1836HOH      O 5712   3.867   1.713   3.185
 1836HOH     H1 5713   3.830   1.631   3.151
 1836HOH     H2 5714   3.960   1.707   3.165
 1837HOH      O 5715   0.980   2.433   2.194
 1837HOH     H1 5716   1.015   2.485   2.123
 1837HOH     H2 5717   1.024   2.466   2.272
 1838HOH      O 5718   3.521   0.663   3.128
 1838HOH     H1 5719   3.429   0.636   3.129
 1838HOH     H2 5720   3.548   0.652   3.037
 1839HOH      O 5721   3.407   0.934   3.169
 1839HOH     H1 5722   3.430   0.843   3.183
 1839HOH     H2 5723   3.490   0.978   3.153
 1840HOH      O 5724   0.767   1.145   3.272
 1840HOH     H1 5725   0.782   1.238   3.289
 1840HOH     H2 5726   0.681   1.127   3.310
 1841HOH      O 5727   3.162   2.003   0.741
 1841HOH     H1 5728   3.070   1.979   0.730
 1841HOH     H2 5729   3.167   2.094   0.712
 1842HOH      O 5730   2.378   2.811   1.570
 1842HOH     H1 5731   2.446   2.833   1.633
 1842HOH     H2 5732   2.390   2.718   1.553
 1843HOH      O 5733   3.009   0.113   3.599
 1843HOH     H1 5734   3.031   0.206   3.603
 1843HOH     H2 5735   3.089   0.071   3.566
 1844HOH      O 5736   3.082   2.507   1.191
 1844HOH     H1 5737   3.038   2.587   1.219
 1844HOH     H2 5738   3.034   2.437   1.235
 1845HOH      O 5739   0.535   0.220   2.964
 1845HOH     H1 5740   0.457   0.256   2.921
 1845HOH     H2 5741   0.532   0.257   3.052
 1846HOH      O 5742   1.861   3.772   0.286
 1846HOH     H1 5743   1.944   3.728   0.269
 1846HOH     H2 5744   1.809   3.708   0.334
 1847HOH      O 5745   4.016   0.204   1.199
 1847HOH     H1 5746   3.957   0.207   1.124
 1847HOH     H2 5747   4.088   0.262   1.174
 1848HOH      O 5748   2.035   0.071   1.314
 1848HOH     H1 5749   2.002   0.070   1.224
 1848HOH     H2 5750   2.102   0.139   1.314
 1849HOH      O 5751   1.163   0.463   0.007
 1849HOH     H1 5752   1.102   0.535   0.023
 1849HOH     H2 5753   1.231   0.475   0.074
 1850HOH      O 5754   3.946   0.934   3.182
 1850HOH     H1 5755   3.950   0.943   3.277
 1850HOH     H2 5756   4.033   0.958   3.152
 1851HOH      O 5757   3.367   2.848   2.059
 1851HOH     H1 5758   3.360   2.863   2.153
 1851HOH     H2 5759   3.456   2.814   2.046
 1852HOH      O 5760   0.877   2.855   1.266
 1852HOH     H1 5761   0.815   2.913   1.311
 1852HOH     H2 5762   0.888   2.781   1.326
 1853HOH      O 5763   2.895   3.904   2.436
 1853HOH     H1 5764   2.948   3.837   2.478
 1853HOH     H2 5765   2.806   3.888   2.468
 1854HOH      O 5766   1.755   3.427   3.265
 1854HOH     H1 5767   1.780   3.358   3.203
 1854HOH     H2 5768   1.779   3.392   3.350
 1855HOH      O 5769   3.618   0.408   2.469
 1855HOH     H1 5770   3.566   0.465   2.525
 1855HOH     H2 5771   3.654   0.342   2.529
 1856HOH      O 5772   2.151   1.111   0.820
 1856HOH     H1 5773   2.078   1.155   0.777
 1856HOH     H2 5774   2.188   1.055   0.751
 1857HOH      O 5775   2.972   2.454   0.138
 1857HOH     H1 5776   2.986   2.527   0.199
 1857HOH     H2 5777   2.958   2.378   0.194
 1858HOH      O 5778   2.847   1.263   1.592
 1858HOH     H1 5779   2.792   1.290   1.666
 1858HOH     H2 5780   2.839   1.167   1.590
 1859HOH      O 5781   1.468   1.706   2.504
 1859HOH     H1 5782   1.417   1.625   2.508
 1859HOH     H2 5783   1.467   1.730   2.412
 1860HOH      O 5784   2.365   0.398   0.379
 1860HOH     H1 5785   2.382   0.438   0.294
 1860HOH     H2 5786   2.279   0.357   0.370
 1861HOH      O 5787   2.903   2.160   2.319
 1861HOH     H1 5788   2.971   2.184   2.382
 1861HOH     H2 5789   2.829   2.216   2.342
 1862HOH      O 5790   2.495   4.002   0.043
 1862HOH     H1 5791   2.510   4.029   0.134
 1862HOH     H2 5792   2.579   3.968   0.014
 1863HOH      O 5793   2.585   0.604   1.625
 1863HOH     H1 5794   2.551   0.679   1.674
 1863HOH     H2 5795   2.567   0.627   1.533
 1864HOH      O 5796   3.866   1.954   3.008
 1864HOH     H1 5797   3.874   1.923   3.098
 1864HOH     H2 5798   3.824   2.040   3.016
 1865HOH      O 5799   1.661   0.515   2.369
 1865HOH     H1 5800   1.721   0.466   2.425
 1865HOH     H2 5801   1.690   0.606   2.377
 1866HOH      O 5802   0.148   3.629   1.747
 1866HOH     H1 5803   0.119   3.720   1.739
 1866HOH     H2 5804   0.102   3.595   1.824
 1867HOH      O 5805   3.620   1.630   0.645
 1867HOH     H1 5806   3.714   1.610   0.647
 1867HOH     H2 5807   3.581   1.555   0.599
 1868HOH      O 5808   1.744   3.957   0.700
 1868HOH     H1 5809   1.773   4.045   0.676
 1868HOH     H2 5810   1.651   3.967   0.719
 1869HOH      O 5811   2.681   2.462   3.855
 1869HOH     H1 5812   2.658   2.543   3.901
 1869HOH     H2 5813   2.765   2.435   3.894
 1870HOH      O 5814   2.801   0.964   3.358
 1870HOH     H1 5815   2.872   0.988   3.418
 1870HOH     H2 5816   2.826   1.003   3.275
 1871HOH      O 5817   3.851   1.304   0.564
 1871HOH     H1 5818   3.762   1.270   0.566
 1871HOH     H2 5819   3.907   1.227   0.572
 1872HOH      O 5820   2.270   3.303   1.402
 1872HOH     H1 5821   2.357   3.269   1.420
 1872HOH     H2 5822   2.245   3.351   1.481
 1873HOH      O 5823   0.631   1.697   3.363
 1873HOH     H1 5824   0.557   1.689   3.423
 1873HOH     H2 5825   0.700   1.737   3.416
 1874HOH      O 5826   2.767   3.149   0.611
 1874HOH     H1 5827   2.714   3.173   0.535
 1874HOH     H2 5828   2.813   3.069   0.583
 1875HOH      O 5829   1.041   0.180   0.077
 1875HOH     H1 5830   1.031   0.275   0.077
 1875HOH     H2 5831   1.103   0.163   0.006
 1876HOH      O 5832   1.559   2.521   3.055
 1876HOH     H1 5833   1.504   2.445   3.034
 1876HOH     H2 5834   1.630   2.518   2.990
 1877HOH      O 5835   0.789   0.331   3.244
 1877HOH     H1 5836   0.786   0.413   3.194
 1877HOH     H2 5837   0.882   0.308   3.247
 1878HOH      O 5838   0.015   0.188   2.372
 1878HOH     H1 5839   0.046   0.198   2.462
 1878HOH     H2 5840   0.082   0.231   2.318
 1879HOH      O 5841   3.736   2.172   1.873
 1879HOH     H1 5842   3.665   2.237   1.872
 1879HOH     H2 5843   3.693   2.091   1.847
 1880HOH      O 5844   3.443   2.762   3.896
 1880HOH     H1 5845   3.486   2.707   3.961
 1880HOH     H2 5846   3.355   2.725   3.888
 1881HOH      O 5847   3.420   1.375   3.074
 1881HOH     H1 5848   3.457   1.433   3.007
 1881HOH     H2 5849   3.409   1.291   3.030
 1882HOH      O 5850   1.407   0.438   1.825
 1882HOH     H1 5851   1.414   0.475   1.736
 1882HOH     H2 5852   1.496   0.437   1.858
 1883HOH      O 5853   1.539   3.664   3.691
 1883HOH     H1 5854   1.538   3.734   3.627
 1883HOH     H2 5855   1.587   3.593   3.649
 1884HOH      O 5856   1.109   0.546   2.456
 1884HOH     H1 5857   1.088   0.453   2.447
 1884HOH     H2 5858   1.203   0.548   2.474
 1885HOH      O 5859   0.451   0.093   1.717
 1885HOH     H1 5860   0.419   0.107   1.628
 1885HOH     H2 5861   0.433   0.001   1.735
 1886HOH      O 5862   1.041   3.473   1.444
 1886HOH     H1 5863   1.022   3.566   1.428
 1886HOH     H2 5864   0.956   3.434   1.463
 1887HOH      O 5865   1.588   2.645   3.534
 1887HOH     H1 5866   1.611   2.559   3.498
 1887HOH     H2 5867   1.593   2.634   3.629
 1888HOH      O 5868   0.986   0.347   3.823
 1888HOH     H1 5869   1.056   0.380   3.880
 1888HOH     H2 5870   1.030   0.326   3.741
 1889HOH      O 5871   1.003   3.097   2.596
 1889HOH     H1 5872   0.909   3.102   2.613
 1889HOH     H2 5873   1.028   3.010   2.627
 1890HOH      O 5874   1.823   1.107   2.152
 1890HOH     H1 5875   1.734   1.129   2.124
 1890HOH     H2 5876   1.820   1.113   2.248
 1891HOH      O 5877   3.705   2.967   3.088
 1891HOH     H1 5878   3.794   3.000   3.100
 1891HOH     H2 5879   3.661   2.985   3.171
 1892HOH      O 5880   0.789   3.609   1.179
 1892HOH     H1 5881   0.860   3.606   1.114
 1892HOH     H2 5882   0.832   3.638   1.260
 1893HOH      O 5883   3.208   2.210   3.212
 1893HOH     H1 5884   3.266   2.189   3.139
 1893HOH     H2 5885   3.120   2.201   3.177
 1894HOH      O 5886   2.469   1.452   0.626
 1894HOH     H1 5887   2.564   1.459   0.630
 1894HOH     H2 5888   2.444   1.415   0.711
 1895HOH      O 5889   0.322   3.761   4.030
 1895HOH     H1 5890   0.354   3.671   4.020
 1895HOH     H2 5891   0.257   3.771   3.960
 1896HOH      O 5892   0.264   3.650   2.149
 1896HOH     H1 5893   0.332   3.583   2.158
 1896HOH     H2 5894   0.259   3.690   2.236
 1897HOH      O 5895   1.896   3.441   0.468
 1897HOH     H1 5896   1.956   3.482   0.531
 1897HOH     H2 5897   1.948   3.430   0.389
 1898HOH      O 5898   3.957   2.203   1.686
 1898HOH     H1 5899   3.954   2.131   1.623
 1898HOH     H2 5900   3.895   2.177   1.755
 1899HOH      O 5901   3.889   1.825   1.543
 1899HOH     H1 5902   3.961   1.884   1.524
 1899HOH     H2 5903   3.904   1.796   1.633
 1900HOH      O 5904   2.702   1.744   2.943
 1900HOH     H1 5905   2.695   1.649   2.938
 1900HOH     H2 5906   2.795   1.762   2.927
 1901HOH      O 5907   3.455   1.328   1.039
 1901HOH     H1 5908   3.506   1.330   0.958
 1901HOH     H2 5909   3.509   1.376   1.102
 1902HOH      O 5910   2.794   0.271   2.202
 1902HOH     H1 5911   2.836   0.320   2.131
 1902HOH     H2 5912   2.843   0.190   2.207
 1903HOH      O 5913   2.184   1.866   2.258
 1903HOH     H1 5914   2.163   1.827   2.343
 1903HOH     H2 5915   2.199   1.958   2.278
 1904HOH      O 5916   2.442   2.840   2.037
 1904HOH     H1 5917   2.517   2.900   2.040
 1904HOH     H2 5918   2.467   2.774   1.972
 1905HOH      O 5919   0.192   1.582   0.769
 1905HOH     H1 5920   0.264   1.536   0.812
 1905HOH     H2 5921   0.123   1.586   0.835
 1906HOH      O 5922   3.134   3.861   3.784
 1906HOH     H1 5923   3.121   3.918   3.860
 1906HOH     H2 5924   3.059   3.801   3.787
 1907HOH      O 5925   0.933   3.472   0.752
 1907HOH     H1 5926   0.893   3.391   0.785
 1907HOH     H2 5927   0.883   3.494   0.674
 1908HOH      O 5928   1.497   3.357   1.019
 1908HOH     H1 5929   1.448   3.436   0.996
 1908HOH     H2 5930   1.580   3.366   0.972
 1909HOH      O 5931   2.430   0.656   3.500
 1909HOH     H1 5932   2.482   0.722   3.547
 1909HOH     H2 5933   2.493   0.589   3.475
 1910HOH      O 5934   2.916   0.613   1.512
 1910HOH     H1 5935   2.874   0.569   1.587
 1910HOH     H2 5936   2.879   0.569   1.435
 1911HOH      O 5937   1.977   0.819   2.709
 1911HOH     H1 5938   2.059   0.788   2.671
 1911HOH     H2 5939   1.971   0.911   2.682
 1912HOH      O 5940   3.053   2.261   2.510
 1912HOH     H1 5941   3.117   2.326   2.539
 1912HOH     H2 5942   3.056   2.194   2.579
 1913HOH      O 5943   0.853   1.004   1.378
 1913HOH     H1 5944   0.833   0.925   1.327
 1913HOH     H2 5945   0.920   1.049   1.326
 1914HOH      O 5946   0.002   1.346   3.853
 1914HOH     H1 5947  -0.039   1.358   3.938
 1914HOH     H2 5948   0.069   1.414   3.849
 1915HOH      O 5949   3.298   2.204   3.496
 1915HOH     H1 5950   3.388   2.180   3.518
 1915HOH     H2 5951   3.295   2.200   3.400
 1916HOH      O 5952   3.946   2.275   0.781
 1916HOH     H1 5953   3.856   2.286   0.811
 1916HOH     H2 5954   3.952   2.331   0.703
 1917HOH      O 5955   0.304   1.786   2.607
 1917HOH     H1 5956   0.251   1.761   2.531
 1917HOH     H2 5957   0.260   1.863   2.643
 1918HOH      O 5958   2.422   3.433   3.984
 1918HOH     H1 5959   2.480   3.508   3.969
 1918HOH     H2 5960   2.432   3.414   4.078
 1919HOH      O 5961   2.674   2.248   2.437
 1919HOH     H1 5962   2.619   2.291   2.372
 1919HOH     H2 5963   2.674   2.307   2.512
 1920HOH      O 5964   1.099   2.356   2.860
 1920HOH     H1 5965   1.088   2.270   2.901
 1920HOH     H2 5966   1.069   2.343   2.770
 1921HOH      O 5967   1.352   1.982   1.111
 1921HOH     H1 5968   1.390   1.910   1.061
 1921HOH     H2 5969   1.401   2.060   1.083
 1922HOH      O 5970   2.523   3.045   2.548
 1922HOH     H1 5971   2.576   2.992   2.488
 1922HOH     H2 5972   2.442   3.061   2.499
 1923HOH      O 5973   3.302   0.111   1.555
 1923HOH     H1 5974   3.233   0.064   1.507
 1923HOH     H2 5975   3.375   0.116   1.492
 1924HOH      O 5976   2.729   1.467   1.728
 1924HOH     H1 5977   2.680   1.519   1.665
 1924HOH     H2 5978   2.819   1.498   1.720
 1925HOH      O 5979   2.850   0.813   2.166
 1925HOH     H1 5980   2.788   0.740   2.171
 1925HOH     H2 5981   2.819   0.866   2.093
 1926HOH      O 5982   0.368   1.438   0.568
 1926HOH     H1 5983   0.319   1.397   0.497
 1926HOH     H2 5984   0.314   1.513   0.594
 1927HOH      O 5985   1.135   2.497   0.144
 1927HOH     H1 5986   1.126   2.587   0.113
 1927HOH     H2 5987   1.084   2.445   0.082
 1928HOH      O 5988   0.142   0.682   3.456
 1928HOH     H1 5989   0.193   0.601   3.454
 1928HOH     H2 5990   0.205   0.749   3.482
 1929HOH      O 5991   1.086   0.248   3.235
 1929HOH     H1 5992   1.106   0.270   3.144
 1929HOH     H2 5993   1.125   0.320   3.286
 1930HOH      O 5994   3.061   1.425   1.604
 1930HOH     H1 5995   3.024   1.474   1.530
 1930HOH     H2 5996   3.006   1.347   1.610
 1931HOH      O 5997   1.841   2.790   1.736
 1931HOH     H1 5998   1.919   2.738   1.719
 1931HOH     H2 5999   1.822   2.832   1.652
 1932HOH      O 6000   1.788   1.987   1.465
 1932HOH     H1 6001   1.853   1.950   1.525
 1932HOH     H2 6002   1.789   1.928   1.389
 1933HOH      O 6003   0.769   2.675   3.498
 1933HOH     H1 6004   0.706   2.638   3.436
 1933HOH     H2 6005   0.728   2.663   3.584
 1934HOH      O 6006   1.117   0.905   4.054
 1934HOH     H1 6007   1.071   0.905   3.969
 1934HOH     H2 6008   1.097   0.820   4.092
 1935HOH      O 6009   1.527   2.765   2.354
 1935HOH     H1 6010   1.545   2.706   2.427
 1935HOH     H2 6011   1.433   2.780   2.358
 1936HOH      O 6012   0.686   0.598   1.660
 1936HOH     H1 6013   0.603   0.623   1.619
 1936HOH     H2 6014   0.684   0.503   1.665
 1937HOH      O 6015   3.610   2.494   3.185
 1937HOH     H1 6016   3.533   2.441   3.210
 1937HOH     H2 6017   3.600   2.575   3.235
 1938HOH      O 6018   0.274   0.365   0.881
 1938HOH     H1 6019   0.273   0.273   0.855
 1938HOH     H2 6020   0.364   0.393   0.865
 1939HOH      O 6021   1.844   3.737   0.819
 1939HOH     H1 6022   1.778   3.671   0.800
 1939HOH     H2 6023   1.818   3.813   0.767
 1940HOH      O 6024   0.744   3.789   2.228
 1940HOH     H1 6025   0.683   3.779   2.155
 1940HOH     H2 6026   0.777   3.701   2.243
 1941HOH      O 6027   1.045   0.398   1.997
 1941HOH     H1 6028   0.956   0.378   1.966
 1941HOH     H2 6029   1.079   0.314   2.027
 1942HOH      O 6030   0.977   1.643   0.487
 1942HOH     H1 6031   0.990   1.660   0.581
 1942HOH     H2 6032   0.917   1.711   0.458
 1943HOH      O 6033   1.138   1.252   3.441
 1943HOH     H1 6034   1.175   1.258   3.353
 1943HOH     H2 6035   1.174   1.170   3.476
 1944HOH      O 6036   1.899   3.079   3.391
 1944HOH     H1 6037   1.912   3.125   3.474
 1944HOH     H2 6038   1.814   3.035   3.402
 1945HOH      O 6039   1.644   2.636   1.863
 1945HOH     H1 6040   1.662   2.641   1.957
 1945HOH     H2 6041   1.707   2.697   1.824
 1946HOH      O 6042   0.991   2.228   1.993
 1946HOH     H1 6043   0.948   2.275   2.065
 1946HOH     H2 6044   1.030   2.297   1.939
 1947HOH      O 6045   2.165   3.982   2.477
 1947HOH     H1 6046   2.118   3.909   2.518
 1947HOH     H2 6047   2.150   3.970   2.383
 1948HOH      O 6048   1.831   0.371   2.865
 1948HOH     H1 6049   1.926   0.375   2.881
 1948HOH     H2 6050   1.810   0.277   2.870
 1949HOH      O 6051   2.989   2.138   3.958
 1949HOH     H1 6052   3.019   2.096   3.877
 1949HOH     H2 6053   2.901   2.103   3.971
 1950HOH      O 6054   1.584   1.162   3.820
 1950HOH     H1 6055   1.570   1.120   3.734
 1950HOH     H2 6056   1.516   1.229   3.825
 1951HOH      O 6057   3.042   0.787   2.876
 1951HOH     H1 6058   2.999   0.766   2.794
 1951HOH     H2 6059   2.972   0.786   2.941
 1952HOH      O 6060   3.569   2.646   0.069
 1952HOH     H1 6061   3.639   2.585   0.049
 1952HOH     H2 6062   3.493   2.591   0.086
 1953HOH      O 6063   3.441   1.612   3.601
 1953HOH     H1 6064   3.389   1.557   3.542
 1953HOH     H2 6065   3.391   1.694   3.607
 1954HOH      O 6066   1.696   3.471   3.589
 1954HOH     H1 6067   1.665   3.386   3.557
 1954HOH     H2 6068   1.761   3.449   3.656
 1955HOH      O 6069   0.926   2.231   3.763
 1955HOH     H1 6070   0.853   2.288   3.740
 1955HOH     H2 6071   0.891   2.142   3.752
 1956HOH      O 6072   1.873   2.478   2.218
 1956HOH     H1 6073   1.903   2.388   2.229
 1956HOH     H2 6074   1.935   2.530   2.269
 1957HOH      O 6075   0.937   0.539   3.544
 1957HOH     H1 6076   0.843   0.547   3.523
 1957HOH     H2 6077   0.974   0.624   3.520
 1958HOH      O 6078   0.976   2.142   1.389
 1958HOH     H1 6079   1.034   2.171   1.318
 1958HOH     H2 6080   0.894   2.189   1.374
 1959HOH      O 6081   3.690   1.999   2.723
 1959HOH     H1 6082   3.658   2.052   2.796
 1959HOH     H2 6083   3.772   1.962   2.755
 1960HOH      O 6084   0.154   1.918   3.743
 1960HOH     H1 6085   0.167   1.914   3.649
 1960HOH     H2 6086   0.069   1.878   3.758
 1961HOH      O 6087   0.294   1.296   1.275
 1961HOH     H1 6088   0.373   1.260   1.235
 1961HOH     H2 6089   0.248   1.339   1.203
 1962HOH      O 6090   2.514   3.797   3.555
 1962HOH     H1 6091   2.554   3.825   3.638
 1962HOH     H2 6092   2.568   3.723   3.526
 1963HOH      O 6093   0.557   2.130   3.927
 1963HOH     H1 6094   0.606   2.210   3.908
 1963HOH     H2 6095   0.622   2.069   3.960
 1964HOH      O 6096   1.268   1.898   3.157
 1964HOH     H1 6097   1.219   1.837   3.212
 1964HOH     H2 6098   1.223   1.896   3.072
 1965HOH      O 6099   1.659   0.074   2.077
 1965HOH     H1 6100   1.574   0.101   2.112
 1965HOH     H2 6101   1.698   0.021   2.147
 1966HOH      O 6102   3.536   0.183   3.694
 1966HOH     H1 6103   3.518   0.092   3.714
 1966HOH     H2 6104   3.627   0.196   3.720
 1967HOH      O 6105   0.873   0.517   1.456
 1967HOH     H1 6106   0.809   0.569   1.504
 1967HOH     H2 6107   0.939   0.493   1.521
 1968HOH      O 6108   0.846   1.924   2.672
 1968HOH     H1 6109   0.766   1.969   2.644
 1968HOH     H2 6110   0.826   1.831   2.662
 1969HOH      O 6111   1.805   0.799   3.577
 1969HOH     H1 6112   1.783   0.740   3.649
 1969HOH     H2 6113   1.898   0.784   3.561
 1970HOH      O 6114   2.652   1.204   3.020
 1970HOH     H1 6115   2.591   1.190   3.092
 1970HOH     H2 6116   2.734   1.164   3.049
 1971HOH      O 6117   3.966   3.126   0.421
 1971HOH     H1 6118   4.009   3.087   0.497
 1971HOH     H2 6119   4.014   3.208   0.407
 1972HOH      O 6120   2.517   2.926   1.755
 1972HOH     H1 6121   2.461   3.004   1.753
 1972HOH     H2 6122   2.605   2.962   1.768
 1973HOH      O 6123   3.337   2.066   2.988
 1973HOH     H1 6124   3.367   2.115   2.911
 1973HOH     H2 6125   3.416   2.028   3.025
 1974HOH      O 6126   3.909   1.945   2.235
 1974HOH     H1 6127   3.923   1.992   2.317
 1974HOH     H2 6128   3.977   1.979   2.177
 1975HOH      O 6129   1.140   0.332   2.974
 1975HOH     H1 6130   1.200   0.404   2.956
 1975HOH     H2 6131   1.144   0.278   2.895
 1976HOH      O 6132   2.785   0.462   1.316
 1976HOH     H1 6133   2.788   0.389   1.254
 1976HOH     H2 6134   2.812   0.538   1.265
 1977HOH      O 6135   2.554   2.433   2.273
 1977HOH     H1 6136   2.540   2.464   2.362
 1977HOH     H2 6137   2.467   2.434   2.233
 1978HOH      O 6138   3.007   1.424   3.045
 1978HOH     H1 6139   2.982   1.373   2.968
 1978HOH     H2 6140   3.004   1.361   3.117
 1979HOH      O 6141   2.844   2.906   2.617
 1979HOH     H1 6142   2.765   2.878   2.663
 1979HOH     H2 6143   2.916   2.882   2.676
 1980HOH      O 6144   2.551   2.040   2.293
 1980HOH     H1 6145   2.614   2.105   2.325
 1980HOH     H2 6146   2.524   1.993   2.372
 1981HOH      O 6147   0.124   2.947   3.846
 1981HOH     H1 6148   0.069   2.926   3.771
 1981HOH     H2 6149   0.067   2.993   3.907
 1982HOH      O 6150   1.875   3.125   2.448
 1982HOH     H1 6151   1.826   3.136   2.529
 1982HOH     H2 6152   1.812   3.087   2.387
 1983HOH      O 6153   4.001   0.124   0.490
 1983HOH     H1 6154   3.971   0.034   0.502
 1983HOH     H2 6155   3.927   0.170   0.451
 1984HOH      O 6156   3.820   1.466   2.218
 1984HOH     H1 6157   3.757   1.511   2.162
 1984HOH     H2 6158   3.892   1.528   2.227
 1985HOH      O 6159   3.452   1.308   3.962
 1985HOH     H1 6160   3.498   1.372   4.015
 1985HOH     H2 6161   3.494   1.224   3.983
 1986HOH      O 6162   2.021   0.606   2.269
 1986HOH     H1 6163   1.991   0.525   2.228
 1986HOH     H2 6164   2.062   0.577   2.351
 1987HOH      O 6165   3.948   2.649   0.740
 1987HOH     H1 6166   3.954   2.564   0.697
 1987HOH     H2 6167   3.882   2.697   0.690
 1988HOH      O 6168   1.987   1.164   0.020
 1988HOH     H1 6169   2.025   1.216  -0.051
 1988HOH     H2 6170   2.001   1.216   0.099
 1989HOH      O 6171   2.526   2.730   3.359
 1989HOH     H1 6172   2.537   2.636   3.348
 1989HOH     H2 6173   2.432   2.745   3.352
 1990HOH      O 6174   2.415   2.542   1.461
 1990HOH     H1 6175   2.363   2.463   1.457
 1990HOH     H2 6176   2.420   2.572   1.370
 1991HOH      O 6177   2.538   3.564   1.503
 1991HOH     H1 6178   2.540   3.535   1.412
 1991HOH     H2 6179   2.449   3.598   1.514
 1992HOH      O 6180   1.228   0.565   0.878
 1992HOH     H1 6181   1.208   0.478   0.911
 1992HOH     H2 6182   1.322   0.575   0.892
 1993HOH      O 6183   2.242   1.031   1.713
 1993HOH     H1 6184   2.269   1.114   1.673
 1993HOH     H2 6185   2.254   1.045   1.807
 1994HOH      O 6186   3.513   2.640   0.355
 1994HOH     H1 6187   3.457   2.713   0.379
 1994HOH     H2 6188   3.528   2.651   0.261
 1995HOH      O 6189   1.437   2.521   0.214
 1995HOH     H1 6190   1.355   2.476   0.236
 1995HOH     H2 6191   1.478   2.539   0.298
 1996HOH      O 6192   3.729   1.006   2.462
 1996HOH     H1 6193   3.778   1.067   2.408
 1996HOH     H2 6194   3.718   0.929   2.406
 1997HOH      O 6195   3.981   3.972   2.876
 1997HOH     H1 6196   4.000   3.956   2.969
 1997HOH     H2 6197   4.011   4.061   2.861
 1998HOH      O 6198   2.780   3.063   1.735
 1998HOH     H1 6199   2.714   3.123   1.700
 1998HOH     H2 6200   2.850   3.063   1.671
 1999HOH      O 6201   4.045   2.415   1.379
 1999HOH     H1 6202   3.971   2.356   1.389
 1999HOH     H2 6203   4.006   2.496   1.346
 2000HOH      O 6204   3.721   3.701   2.831
 2000HOH     H1 6205   3.712   3.654   2.748
 2000HOH     H2 6206   3.814   3.697   2.851
 2001HOH      O 6207   1.845   2.716   2.542
 2001HOH     H1 6208   1.889   2.671   2.615
 2001HOH     H2 6209   1.916   2.738   2.482
 2002HOH      O 6210   1.107   3.624   0.330
 2002HOH     H1 6211   1.035   3.680   0.356
 2002HOH     H2 6212   1.183   3.682   0.327
 2003HOH      O 6213   0.438   2.795   3.756
 2003HOH     H1 6214   0.388   2.819   3.678
 2003HOH     H2 6215   0.512   2.855   3.756
 2004HOH      O 6216   2.184   1.560   0.288
 2004HOH     H1 6217   2.273   1.525   0.290
 2004HOH     H2 6218   2.163   1.576   0.381
 2005HOH      O 6219   0.829   0.200   2.149
 2005HOH     H1 6220   0.888   0.260   2.194
 2005HOH     H2 6221   0.831   0.120   2.202
 2006HOH      O 6222   1.510   1.702   0.361
 2006HOH     H1 6223   1.486   1.754   0.285
 2006HOH     H2 6224   1.437   1.642   0.374
 2007HOH      O 6225   3.378   1.755   3.900
 2007HOH     H1 6226   3.356   1.736   3.809
 2007HOH     H2 6227   3.294   1.771   3.943
 2008HOH      O 6228   2.460   2.660   0.435
 2008HOH     H1 6229   2.399   2.698   0.497
 2008HOH     H2 6230   2.530   2.725   0.426
 2009HOH      O 6231   3.335   2.045   1.785
 2009HOH     H1 6232   3.287   1.963   1.778
 2009HOH     H2 6233   3.276   2.104   1.832
 2010HOH      O 6234   0.293   0.306  -0.006
 2010HOH     H1 6235   0.248   0.241   0.048
 2010HOH     H2 6236   0.326   0.371   0.057
 2011HOH      O 6237   1.230   1.619   0.891
 2011HOH     H1 6238   1.298   1.627   0.958
 2011HOH     H2 6239   1.189   1.706   0.889
 2012HOH      O 6240   1.668   2.522   0.397
 2012HOH     H1 6241   1.737   2.485   0.453
 2012HOH     H2 6242   1.714   2.548   0.317
 2013HOH      O 6243   1.669   0.530   0.765
 2013HOH     H1 6244   1.620   0.544   0.847
 2013HOH     H2 6245   1.650   0.439   0.741
 2014HOH      O 6246   3.556   2.737   3.339
 2014HOH     H1 6247   3.504   2.694   3.407
 2014HOH     H2 6248   3.583   2.820   3.378
 2015HOH      O 6249   3.970   4.042   4.029
 2015HOH     H1 6250   3.966   3.995   3.946
 2015HOH     H2 6251   4.048   4.008   4.073
 2016HOH      O 6252   1.219   1.188   1.992
 2016HOH     H1 6253   1.155   1.133   1.947
 2016HOH     H2 6254   1.231   1.145   2.077
 2017HOH      O 6255   1.290   0.557   2.887
 2017HOH     H1 6256   1.261   0.635   2.839
 2017HOH     H2 6257   1.337   0.505   2.822
 2018HOH      O 6258   0.653   1.477   0.225
 2018HOH     H1 6259   0.681   1.394   0.187
 2018HOH     H2 6260   0.688   1.476   0.314
 2019HOH      O 6261   1.240   2.252   2.141
 2019HOH     H1 6262   1.283   2.333   2.169
 2019HOH     H2 6263   1.156   2.282   2.106
 2020HOH      O 6264   3.237   3.472   2.801
 2020HOH     H1 6265   3.253   3.452   2.894
 2020HOH     H2 6266   3.193   3.394   2.767
 2021HOH      O 6267   2.636   1.030   2.791
 2021HOH     H1 6268   2.549   1.002   2.762
 2021HOH     H2 6269   2.621   1.115   2.832
 2022HOH      O 6270   1.764   0.489   0.315
 2022HOH     H1 6271   1.754   0.404   0.273
 2022HOH     H2 6272   1.846   0.524   0.280
 2023HOH      O 6273   0.980   2.859   0.463
 2023HOH     H1 6274   0.971   2.797   0.391
 2023HOH     H2 6275   0.891   2.868   0.498
 2024HOH      O 6276   2.704   3.726   0.290
 2024HOH     H1 6277   2.678   3.722   0.382
 2024HOH     H2 6278   2.778   3.665   0.284
 2025HOH      O 6279   1.630   0.612   1.501
 2025HOH     H1 6280   1.704   0.563   1.535
 2025HOH     H2 6281   1.640   0.701   1.536
 2026HOH      O 6282   1.700   0.924   1.554
 2026HOH     H1 6283   1.650   1.006   1.541
 2026HOH     H2 6284   1.767   0.926   1.487
 2027HOH      O 6285   1.327   2.495   1.278
 2027HOH     H1 6286   1.269   2.560   1.239
 2027HOH     H2 6287   1.404   2.493   1.221
 2028HOH      O 6288   2.686   0.666   0.994
 2028HOH     H1 6289   2.646   0.585   0.962
 2028HOH     H2 6290   2.762   0.636   1.044
 2029HOH      O 6291   2.155   2.755   2.676
 2029HOH     H1 6292   2.210   2.759   2.598
 2029HOH     H2 6293   2.134   2.846   2.695
 2030HOH      O 6294   3.740   0.681   1.090
 2030HOH     H1 6295   3.722   0.684   1.184
 2030HOH     H2 6296   3.662   0.643   1.051
 2031HOH      O 6297   2.504   0.078   0.293
 2031HOH     H1 6298   2.472   0.168   0.304
 2031HOH     H2 6299   2.470   0.032   0.370
 2032HOH      O 6300   1.353   0.546   0.197
 2032HOH     H1 6301   1.407   0.484   0.246
 2032HOH     H2 6302   1.305   0.595   0.264
 2033HOH      O 6303   3.817   0.957   0.137
 2033HOH     H1 6304   3.753   0.887   0.149
 2033HOH     H2 6305   3.900   0.911   0.123
 2034HOH      O 6306   0.712   1.113   3.986
 2034HOH     H1 6307   0.655   1.184   3.957
 2034HOH     H2 6308   0.729   1.132   4.078
 2035HOH      O 6309   0.883   1.526   2.351
 2035HOH     H1 6310   0.866   1.432   2.348
 2035HOH     H2 6311   0.964   1.537   2.301
 2036HOH      O 6312   2.358   2.702   3.792
 2036HOH     H1 6313   2.407   2.654   3.725
 2036HOH     H2 6314   2.411   2.693   3.871
 2037HOH      O 6315   0.863   0.850   0.372
 2037HOH     H1 6316   0.914   0.769   0.383
 2037HOH     H2 6317   0.780   0.820   0.332
 2038HOH      O 6318   2.641   0.045   2.996
 2038HOH     H1 6319   2.689   0.127   3.004
 2038HOH     H2 6320   2.703  -0.022   3.025
 2039HOH      O 6321   1.671   1.564   1.365
 2039HOH     H1 6322   1.607   1.493   1.368
 2039HOH     H2 6323   1.675   1.596   1.455
 2040HOH      O 6324   0.373   3.741   3.204
 2040HOH     H1 6325   0.325   3.718   3.283
 2040HOH     H2 6326   0.404   3.830   3.219
 2041HOH      O 6327   2.811   2.421   3.526
 2041HOH     H1 6328   2.865   2.352   3.488
 2041HOH     H2 6329   2.721   2.389   3.516
 2042HOH      O 6330   1.142   1.537   2.239
 2042HOH     H1 6331   1.183   1.455   2.268
 2042HOH     H2 6332   1.165   1.544   2.146
 2043HOH      O 6333   1.613   3.687   0.132
 2043HOH     H1 6334   1.529   3.730   0.150
 2043HOH     H2 6335   1.632   3.637   0.211
 2044HOH      O 6336   3.679   3.458   2.675
 2044HOH     H1 6337   3.648   3.385   2.730
 2044HOH     H2 6338   3.606   3.520   2.676
 2045HOH      O 6339   2.771   1.489   2.525
 2045HOH     H1 6340   2.797   1.447   2.443
 2045HOH     H2 6341   2.711   1.427   2.567
 2046HOH      O 6342   0.484   3.200   0.338
 2046HOH     H1 6343   0.474   3.255   0.415
 2046HOH     H2 6344   0.492   3.261   0.265
 2047HOH      O 6345   3.998   2.087   0.459
 2047HOH     H1 6346   3.951   2.003   0.465
 2047HOH     H2 6347   3.939   2.143   0.409
 2048HOH      O 6348   1.364   2.033   0.319
 2048HOH     H1 6349   1.388   2.119   0.353
 2048HOH     H2 6350   1.282   2.011   0.363
 2049HOH      O 6351   0.081   2.696   2.259
 2049HOH     H1 6352   0.091   2.789   2.237
 2049HOH     H2 6353  -0.011   2.687   2.284
 2050HOH      O 6354   3.242   3.297   2.513
 2050HOH     H1 6355   3.331   3.270   2.535
 2050HOH     H2 6356   3.241   3.391   2.529
 2051HOH      O 6357   3.134   0.681   2.505
 2051HOH     H1 6358   3.062   0.735   2.536
 2051HOH     H2 6359   3.163   0.632   2.582
 2052HOH      O 6360   1.763   1.555   4.071
 2052HOH     H1 6361   1.808   1.572   3.988
 2052HOH     H2 6362   1.676   1.524   4.045
 2053HOH      O 6363   3.312   1.867   0.999
 2053HOH     H1 6364   3.233   1.875   0.946
 2053HOH     H2 6365   3.336   1.957   1.019
 2054HOH      O 6366   0.435   3.811   1.668
 2054HOH     H1 6367   0.389   3.735   1.632
 2054HOH     H2 6368   0.400   3.821   1.757
 2055HOH      O 6369   1.032   3.356   1.717
 2055HOH     H1 6370   1.056   3.416   1.645
 2055HOH     H2 6371   0.973   3.293   1.676
 2056HOH      O 6372   3.628   1.522   2.009
 2056HOH     H1 6373   3.590   1.609   2.010
 2056HOH     H2 6374   3.692   1.524   1.938
 2057HOH      O 6375   2.758   1.974   1.514
 2057HOH     H1 6376   2.835   2.020   1.546
 2057HOH     H2 6377   2.749   1.899   1.572
 2058HOH      O 6378   3.349   3.948   1.974
 2058HOH     H1 6379   3.308   3.899   2.045
 2058HOH     H2 6380   3.440   3.959   2.002
 2059HOH      O 6381   0.112   3.880   1.958
 2059HOH     H1 6382   0.050   3.882   1.884
 2059HOH     H2 6383   0.100   3.793   1.996
 2060HOH      O 6384   2.881   3.315   2.921
 2060HOH     H1 6385   2.792   3.349   2.921
 2060HOH     H2 6386   2.934   3.385   2.883
 2061HOH      O 6387   3.927   2.465   1.037
 2061HOH     H1 6388   3.848   2.430   1.078
 2061HOH     H2 6389   3.912   2.560   1.033
 2062HOH      O 6390   3.986   2.326   3.709
 2062HOH     H1 6391   4.001   2.323   3.614
 2062HOH     H2 6392   3.948   2.413   3.724
 2063HOH      O 6393   3.200   3.258   3.750
 2063HOH     H1 6394   3.205   3.213   3.665
 2063HOH     H2 6395   3.126   3.318   3.741
 2064HOH      O 6396   1.412   3.506   3.872
 2064HOH     H1 6397   1.333   3.498   3.819
 2064HOH     H2 6398   1.470   3.562   3.820
 2065HOH      O 6399   3.773   2.507   2.618
 2065HOH     H1 6400   3.829   2.576   2.584
 2065HOH     H2 6401   3.686   2.527   2.582
 2066HOH      O 6402   2.457   1.791   0.256
 2066HOH     H1 6403   2.383   1.782   0.317
 2066HOH     H2 6404   2.513   1.857   0.297
 2067HOH      O 6405   2.345   3.172   3.259
 2067HOH     H1 6406   2.334   3.258   3.218
 2067HOH     H2 6407   2.438   3.168   3.282
 2068HOH      O 6408   3.455   3.141   2.694
 2068HOH     H1 6409   3.515   3.130   2.620
 2068HOH     H2 6410   3.508   3.184   2.762
 2069HOH      O 6411   0.769   1.734   1.136
 2069HOH     H1 6412   0.675   1.730   1.153
 2069HOH     H2 6413   0.800   1.807   1.189
 2070HOH      O 6414   2.230   1.634   1.090
 2070HOH     H1 6415   2.301   1.575   1.117
 2070HOH     H2 6416   2.226   1.626   0.995
 2071HOH      O 6417   2.664   1.155   2.354
 2071HOH     H1 6418   2.733   1.217   2.330
 2071HOH     H2 6419   2.710   1.071   2.362
 2072HOH      O 6420   2.175   2.367   1.406
 2072HOH     H1 6421   2.080   2.371   1.418
 2072HOH     H2 6422   2.209   2.344   1.492
 2073HOH      O 6423   1.448   2.788   2.703
 2073HOH     H1 6424   1.474   2.700   2.675
 2073HOH     H2 6425   1.524   2.843   2.684
 2074HOH      O 6426   0.263   1.178   1.735
 2074HOH     H1 6427   0.345   1.130   1.726
 2074HOH     H2 6428   0.224   1.175   1.648
 2075HOH      O 6429   1.872   2.861   3.865
 2075HOH     H1 6430   1.837   2.867   3.776
 2075HOH     H2 6431   1.875   2.767   3.883
 2076HOH      O 6432   1.446   1.465   3.099
 2076HOH     H1 6433   1.517   1.458   3.163
 2076HOH     H2 6434   1.482   1.520   3.030
 2077HOH      O 6435   1.269   3.534   2.911
 2077HOH     H1 6436   1.273   3.446   2.949
 2077HOH     H2 6437   1.235   3.520   2.823
 2078HOH      O 6438   3.993   1.675   2.208
 2078HOH     H1 6439   4.034   1.684   2.122
 2078HOH     H2 6440   3.938   1.753   2.217
 2079HOH      O 6441   2.931   1.123   0.192
 2079HOH     H1 6442   2.964   1.062   0.126
 2079HOH     H2 6443   2.944   1.210   0.153
 2080HOH      O 6444   1.026   2.463   3.495
 2080HOH     H1 6445   1.121   2.479   3.498
 2080HOH     H2 6446   0.993   2.504   3.574
 2081HOH      O 6447   3.876   2.588   1.793
 2081HOH     H1 6448   3.971   2.600   1.789
 2081HOH     H2 6449   3.864   2.499   1.826
 2082HOH      O 6450   1.285   3.812   0.281
 2082HOH     H1 6451   1.227   3.888   0.279
 2082HOH     H2 6452   1.302   3.794   0.188
 2083HOH      O 6453   3.517   2.682   2.277
 2083HOH     H1 6454   3.549   2.598   2.245
 2083HOH     H2 6455   3.423   2.671   2.286
 2084HOH      O 6456   3.754   0.689   2.619
 2084HOH     H1 6457   3.828   0.750   2.611
 2084HOH     H2 6458   3.750   0.668   2.712
 2085HOH      O 6459   0.982   1.250   2.608
 2085HOH     H1 6460   0.915   1.244   2.539
 2085HOH     H2 6461   1.029   1.167   2.603
 2086HOH      O 6462   3.932   3.253   3.767
 2086HOH     H1 6463   3.957   3.236   3.858
 2086HOH     H2 6464   3.843   3.286   3.772
 2087HOH      O 6465   2.799   0.562   1.810
 2087HOH     H1 6466   2.834   0.474   1.798
 2087HOH     H2 6467   2.714   0.560   1.767
 2088HOH      O 6468   2.724   2.024   3.994
 2088HOH     H1 6469   2.715   2.060   4.082
 2088HOH     H2 6470   2.679   1.939   3.998
 2089HOH      O 6471   0.671   0.314   0.139
 2089HOH     H1 6472   0.727   0.392   0.146
 2089HOH     H2 6473   0.627   0.308   0.223
 2090HOH      O 6474   1.194   1.513   3.485
 2090HOH     H1 6475   1.194   1.530   3.579
 2090HOH     H2 6476   1.157   1.425   3.477
 2091HOH      O 6477   1.974   2.083   2.755
 2091HOH     H1 6478   2.067   2.070   2.738
 2091HOH     H2 6479   1.940   1.995   2.772
 2092HOH      O 6480   1.526   3.842   3.499
 2092HOH     H1 6481   1.564   3.771   3.449
 2092HOH     H2 6482   1.434   3.846   3.471
 2093HOH      O 6483   2.282   3.030   0.157
 2093HOH     H1 6484   2.332   3.077   0.090
 2093HOH     H2 6485   2.191   3.041   0.131
 2094HOH      O 6486   0.313   3.016   2.870
 2094HOH     H1 6487   0.264   3.080   2.818
 2094HOH     H2 6488   0.288   3.034   2.961
 2095HOH      O 6489   0.163   3.548   3.719
 2095HOH     H1 6490   0.198   3.534   3.631
 2095HOH     H2 6491   0.075   3.511   3.716
 2096HOH      O 6492   2.102   3.651   0.164
 2096HOH     H1 6493   2.179   3.706   0.153
 2096HOH     H2 6494   2.066   3.642   0.075
 2097HOH      O 6495   1.335   0.192   1.313
 2097HOH     H1 6496   1.429   0.210   1.318
 2097HOH     H2 6497   1.328   0.097   1.322
 2098HOH      O 6498   1.688   0.148   0.176
 2098HOH     H1 6499   1.625   0.098   0.228
 2098HOH     H2 6500   1.764   0.091   0.168
 2099HOH      O 6501   0.063   0.319   3.496
 2099HOH     H1 6502  -0.016   0.372   3.487
 2099HOH     H2 6503   0.132   0.382   3.517
 2100HOH      O 6504   0.242   4.024   1.506
 2100HOH     H1 6505   0.233   4.051   1.415
 2100HOH     H2 6506   0.221   3.931   1.505
 2101HOH      O 6507   2.376   0.949   1.965
 2101HOH     H1 6508   2.351   0.900   2.043
 2101HOH     H2 6509   2.417   1.029   1.999
 2102HOH      O 6510   0.231   0.874   3.658
 2102HOH     H1 6511   0.237   0.813   3.732
 2102HOH     H2 6512   0.152   0.925   3.676
 2103HOH      O 6513   2.371   0.170   2.540
 2103HOH     H1 6514   2.286   0.141   2.508
 2103HOH     H2 6515   2.384   0.256   2.500
 2104HOH      O 6516   1.488   3.080   3.060
 2104HOH     H1 6517   1.579   3.104   3.077
 2104HOH     H2 6518   1.490   2.985   3.049
 2105HOH      O 6519   2.945   0.555   0.124
 2105HOH     H1 6520   2.990   0.486   0.075
 2105HOH     H2 6521   2.921   0.514   0.207
 2106HOH      O 6522   2.779   1.985   2.752
 2106HOH     H1 6523   2.837   1.914   2.777
 2106HOH     H2 6524   2.764   1.972   2.658
 2107HOH      O 6525   3.020   3.396   3.192
 2107HOH     H1 6526   2.992   3.306   3.179
 2107HOH     H2 6527   3.081   3.413   3.120
 2108HOH      O 6528   2.888   1.882   2.249
 2108HOH     H1 6529   2.889   1.964   2.297
 2108HOH     H2 6530   2.816   1.832   2.287
 2109HOH      O 6531   2.960   3.135   1.515
 2109HOH     H1 6532   2.889   3.096   1.464
 2109HOH     H2 6533   2.999   3.200   1.457
   4.04076   4.04076   4.04076   0.00000   0.00000   0.00000   0.00000   0.00000   0.00000
