Generated with MDTraj, t= 12993.0
 6533
    1MOL     C1    1   1.198   2.471   3.021
    1MOL     C2    2   1.190   2.524   3.152
    1MOL     C3    3   1.219   2.442   3.264
    1MOL     C4    4   1.275   2.314   3.246
    1MOL     C5    5   1.295   2.269   3.110
    1MOL     C6    6   1.259   2.347   2.997
    1MOL     C7    7   1.327   2.231   3.361
    1MOL     C8    8   1.474   2.197   3.339
    1MOL     N1    9   1.554   2.135   3.447
    1MOL     C9   10   1.493   2.001   3.485
    1MOL    C10   11   1.566   2.223   3.570
    1MOL    C11   12   1.694   2.105   3.401
    1MOL     H1   13   1.570   1.944   3.537
    1MOL     H2   14   1.453   1.939   3.404
    1MOL     H3   15   1.408   2.020   3.551
    1MOL     H4   16   1.468   2.253   3.607
    1MOL     H5   17   1.621   2.312   3.537
    1MOL     H6   18   1.617   2.172   3.651
    1MOL     H7   19   1.751   2.067   3.486
    1MOL     H8   20   1.732   2.200   3.363
    1MOL     H9   21   1.685   2.036   3.317
    1MOL    H10   22   1.164   2.537   2.941
    1MOL    H11   23   1.151   2.625   3.168
    1MOL    H12   24   1.212   2.488   3.362
    1MOL    H13   25   1.327   2.167   3.089
    1MOL    H14   26   1.269   2.301   2.899
    1MOL    H15   27   1.320   2.284   3.456
    1MOL    H16   28   1.265   2.143   3.382
    1MOL    H17   29   1.486   2.122   3.261
    1MOL    H18   30   1.526   2.291   3.320
    2OCB     C1   31   0.312   2.777   2.426
    2OCB     C2   32   0.581   2.852   2.372
    2OCB     C3   33   0.368   2.769   2.294
    2OCB     C4   34   0.395   2.824   2.526
    2OCB     C5   35   0.526   2.864   2.502
    2OCB     C6   36   0.499   2.806   2.267
    2OCB     O1   37   0.719   2.879   2.366
    2OCB     C7   38   0.563   2.778   2.130
    2OCB     C8   39   0.812   2.772   2.349
    2OCB     O2   40   0.838   2.742   2.210
    2OCB     C9   41   0.772   2.636   2.166
    2OCB    C10   42   0.636   2.639   2.136
    2OCB    C11   43   0.569   2.524   2.106
    2OCB    C12   44   0.841   2.519   2.180
    2OCB    C13   45   0.640   2.401   2.103
    2OCB    C14   46   0.770   2.403   2.156
    2OCB     O3   47   0.839   2.292   2.201
    2OCB    C15   48   0.565   2.273   2.077
    2OCB    C16   49   0.490   2.214   2.188
    2OCB    C17   50   0.553   2.106   2.251
    2OCB    C18   51   0.784   2.201   2.303
    2OCB     O4   52   0.694   2.097   2.246
    2OCB     O5   53   0.342   2.834   2.661
    2OCB    C19   54   0.167   2.732   2.449
    2OCB    C20   55   0.161   2.586   2.499
    2OCB     O6   56   0.196   2.649   2.738
    2OCB    C21   57   0.172   2.555   2.638
    2OCB    C22   58   0.481   2.039   2.348
    2OCB    C23   59   0.349   2.083   2.386
    2OCB    C24   60   0.179   2.424   2.677
    2OCB    C25   61   0.161   2.320   2.584
    2OCB     O7   62   0.290   2.031   2.493
    2OCB     O8   63   0.175   2.192   2.631
    2OCB    C26   64   0.300   2.118   2.609
    2OCB    C27   65   0.147   2.483   2.407
    2OCB    C28   66   0.151   2.348   2.449
    2OCB    C29   67   0.359   2.250   2.217
    2OCB    C30   68   0.143   2.237   2.345
    2OCB    C31   69   0.289   2.190   2.318
    2OCB    C32   70   0.335   2.710   2.735
    2OCB    C33   71   0.491   2.290   1.942
    2OCB    C34   72   0.461   2.149   1.885
    2OCB    C35   73   0.576   2.079   1.808
    2OCB     O9   74   0.635   1.984   1.857
    2OCB    C36   75   0.475   2.811   2.005
    2OCB    C37   76   0.557   2.810   1.880
    2OCB    C38   77   0.461   2.832   1.758
    2OCB    O10   78   0.456   2.755   1.673
    2OCB    C39   79   0.057   2.789   2.356
    2OCB    C40   80  -0.088   2.761   2.408
    2OCB    C41   81  -0.192   2.775   2.298
    2OCB    O11   82  -0.219   2.888   2.280
    2OCB    C42   83   0.056   2.269   2.217
    2OCB    C43   84   0.044   2.142   2.138
    2OCB    C44   85  -0.029   2.164   2.007
    2OCB    O12   86   0.015   2.219   1.907
    2OCB    C45   87   0.937   2.794   2.430
    2OCB    C46   88   1.160   2.841   2.584
    2OCB    C47   89   1.053   2.726   2.409
    2OCB    C48   90   0.927   2.877   2.547
    2OCB    C49   91   1.037   2.900   2.627
    2OCB    C50   92   1.168   2.748   2.482
    2OCB    C51   93   0.398   2.717   2.874
    2OCB    C52   94   0.529   2.702   3.120
    2OCB    C53   95   0.349   2.631   2.975
    2OCB    C54   96   0.504   2.801   2.902
    2OCB    C55   97   0.570   2.793   3.023
    2OCB    C56   98   0.416   2.622   3.096
    2OCB    C57   99   0.335   2.045   2.735
    2OCB    C58  100   0.423   1.924   2.973
    2OCB    C59  101   0.431   1.941   2.733
    2OCB    C60  102   0.295   2.095   2.858
    2OCB    C61  103   0.332   2.034   2.975
    2OCB    C62  104   0.474   1.877   2.849
    2OCB    C63  105   0.903   2.139   2.374
    2OCB    C64  106   1.113   2.022   2.513
    2OCB    C65  107   0.888   2.017   2.437
    2OCB    C66  108   1.024   2.209   2.385
    2OCB    C67  109   1.129   2.148   2.454
    2OCB    C68  110   0.991   1.963   2.515
    2OCB    O13  111   0.685   2.866   3.051
    2OCB    O14  112   0.279   2.068   3.102
    2OCB    O15  113   0.555   1.769   2.833
    2OCB    O16  114   1.030   2.982   2.736
    2OCB    O17  115   1.291   2.689   2.462
    2OCB    O18  116   0.967   1.853   2.600
    2OCB    O19  117   1.245   2.210   2.465
    2OCB    C69  118   0.241   2.198   3.132
    2OCB    C70  119   0.161   2.451   3.189
    2OCB    C71  120   0.338   2.300   3.144
    2OCB    C72  121   0.107   2.226   3.140
    2OCB    C73  122   0.065   2.355   3.170
    2OCB    C74  123   0.291   2.428   3.168
    2OCB    O20  124   0.383   2.528   3.181
    2OCB    C75  125   0.921   3.008   2.811
    2OCB    C76  126   0.683   3.072   2.940
    2OCB    C77  127   0.844   3.119   2.768
    2OCB    C78  128   0.874   2.928   2.917
    2OCB    C79  129   0.750   2.959   2.977
    2OCB    C80  130   0.730   3.158   2.842
    2OCB    C81  131   0.638   1.745   2.729
    2OCB    C82  132   0.812   1.697   2.509
    2OCB    C83  133   0.605   1.660   2.622
    2OCB    C84  134   0.764   1.816   2.723
    2OCB    C85  135   0.845   1.793   2.605
    2OCB    C86  136   0.688   1.631   2.516
    2OCB    C87  137   0.657   1.539   2.408
    2OCB    O21  138   0.539   1.509   2.385
    2OCB    C88  139   1.430   2.430   2.067
    2OCB    O22  140   1.493   2.529   2.025
    2OCB    C89  141   0.647   3.285   2.815
    2OCB    O23  142   0.563   3.317   2.890
    2OCB    O24  143   0.608   2.111   1.691
    2OCB    O25  144  -0.150   2.138   1.999
    2OCB    O26  145  -0.248   2.674   2.247
    2OCB    C90  146  -0.081   2.384   3.189
    2OCB    O27  147  -0.112   2.495   3.222
    2OCB    O28  148   1.420   2.331   1.998
    2OCB    O29  149   0.745   1.501   2.333
    2OCB    O30  150  -0.156   2.310   3.134
    2OCB    O31  151   0.674   3.351   2.714
    2OCB    O32  152   0.421   2.949   1.753
    2OCB    C91  153   1.311   2.565   2.402
    2OCB    C92  154   1.332   2.328   2.274
    2OCB    C93  155   1.269   2.451   2.471
    2OCB    C94  156   1.360   2.561   2.273
    2OCB    C95  157   1.368   2.445   2.205
    2OCB    C96  158   1.281   2.330   2.402
    2OCB    C97  159   1.219   2.458   2.611
    2OCB    C98  160   0.953   2.811   2.961
    2OCB    C99  161   0.488   2.273   3.140
    2OCB      C  162   0.815   1.908   2.832
    2OCB     H1  163   0.315   2.732   2.206
    2OCB     H2  164   0.581   2.900   2.589
    2OCB     H3  165   0.642   2.853   2.123
    2OCB     H4  166   0.768   2.681   2.392
    2OCB     H5  167   0.465   2.527   2.076
    2OCB     H6  168   0.945   2.512   2.209
    2OCB     H7  169   0.639   2.198   2.049
    2OCB     H8  170   0.727   2.262   2.374
    2OCB     H9  171   0.137   2.787   2.539
    2OCB    H10  172   0.536   1.962   2.402
    2OCB    H11  173   0.193   2.400   2.782
    2OCB    H12  174   0.382   2.189   2.594
    2OCB    H13  175   0.135   2.507   2.302
    2OCB    H14  176   0.307   2.323   2.155
    2OCB    H15  177   0.094   2.155   2.398
    2OCB    H16  178   0.404   2.641   2.686
    2OCB    H17  179   0.398   2.344   1.959
    2OCB    H18  180   0.551   2.351   1.875
    2OCB    H19  181   0.425   2.084   1.965
    2OCB    H20  182   0.383   2.163   1.809
    2OCB    H21  183   0.435   2.910   2.028
    2OCB    H22  184   0.394   2.738   1.996
    2OCB    H23  185   0.635   2.887   1.881
    2OCB    H24  186   0.597   2.709   1.870
    2OCB    H25  187   0.073   2.892   2.324
    2OCB    H26  188   0.061   2.720   2.271
    2OCB    H27  189  -0.096   2.662   2.453
    2OCB    H28  190  -0.116   2.828   2.489
    2OCB    H29  191  -0.048   2.289   2.244
    2OCB    H30  192   0.081   2.352   2.150
    2OCB    H31  193   0.137   2.087   2.119
    2OCB    H32  194  -0.018   2.074   2.198
    2OCB    H33  195   1.250   2.872   2.636
    2OCB    H34  196   1.060   2.651   2.331
    2OCB    H35  197   0.833   2.928   2.566
    2OCB    H36  198   0.581   2.699   3.215
    2OCB    H37  199   0.268   2.563   2.955
    2OCB    H38  200   0.545   2.869   2.827
    2OCB    H39  201   0.456   1.881   3.067
    2OCB    H40  202   0.458   1.897   2.637
    2OCB    H41  203   0.231   2.183   2.859
    2OCB    H42  204   1.191   1.974   2.572
    2OCB    H43  205   0.797   1.960   2.423
    2OCB    H44  206   1.035   2.306   2.338
    2OCB    H45  207   0.130   2.553   3.208
    2OCB    H46  208   0.037   2.143   3.131
    2OCB    H47  209   0.587   3.084   2.991
    2OCB    H48  210   0.882   3.192   2.697
    2OCB    H49  211   0.885   1.665   2.435
    2OCB    H50  212   0.513   1.605   2.641
    2OCB    H51  213   1.345   2.231   2.226
    2OCB    H52  214   1.393   2.650   2.219
    2OCB    H53  215   1.111   2.475   2.622
    2OCB    H54  216   1.235   2.358   2.651
    2OCB    H55  217   1.269   2.529   2.676
    2OCB    H56  218   1.045   2.794   2.904
    2OCB    H57  219   0.975   2.810   3.068
    2OCB    H58  220   0.886   2.726   2.944
    2OCB    H59  221   0.527   2.329   3.055
    2OCB    H60  222   0.540   2.310   3.228
    2OCB    H61  223   0.512   2.166   3.129
    2OCB    H62  224   0.791   1.872   2.932
    2OCB    H63  225   0.925   1.913   2.831
    2OCB    H64  226   0.765   2.005   2.832
    3Na+    Na+  227   1.168   3.290   2.296
    4Na+    Na+  228   0.519   3.504   2.753
    5Na+    Na+  229   3.719   2.167   3.201
    6Na+    Na+  230   0.594   1.386   2.207
    7Na+    Na+  231   1.390   2.081   1.587
    8Na+    Na+  232   1.375   3.941   1.695
    9Na+    Na+  233   3.830   2.324   1.876
   10HOH      O  234   3.670   2.690   0.269
   10HOH     H1  235   3.677   2.700   0.174
   10HOH     H2  236   3.583   2.722   0.291
   11HOH      O  237   2.470   2.560   2.543
   11HOH     H1  238   2.395   2.610   2.512
   11HOH     H2  239   2.450   2.470   2.518
   12HOH      O  240   2.713   1.476   0.991
   12HOH     H1  241   2.807   1.470   0.972
   12HOH     H2  242   2.691   1.391   1.029
   13HOH      O  243   1.430   3.792   0.413
   13HOH     H1  244   1.455   3.873   0.457
   13HOH     H2  245   1.341   3.773   0.444
   14HOH      O  246   1.653   0.882   2.203
   14HOH     H1  247   1.683   0.963   2.162
   14HOH     H2  248   1.726   0.854   2.257
   15HOH      O  249   0.465   1.244   0.006
   15HOH     H1  250   0.515   1.237   0.087
   15HOH     H2  251   0.384   1.287   0.030
   16HOH      O  252   1.860   0.711   3.953
   16HOH     H1  253   1.820   0.683   3.871
   16HOH     H2  254   1.786   0.725   4.013
   17HOH      O  255   1.987   3.266   3.915
   17HOH     H1  256   2.079   3.274   3.940
   17HOH     H2  257   1.939   3.292   3.994
   18HOH      O  258   3.973   0.165   0.092
   18HOH     H1  259   3.912   0.103   0.133
   18HOH     H2  260   4.016   0.208   0.166
   19HOH      O  261   3.066   3.274   1.788
   19HOH     H1  262   3.120   3.213   1.738
   19HOH     H2  263   3.128   3.325   1.840
   20HOH      O  264   0.502   3.211   2.242
   20HOH     H1  265   0.563   3.197   2.315
   20HOH     H2  266   0.416   3.190   2.278
   21HOH      O  267   2.693   0.740   2.957
   21HOH     H1  268   2.749   0.689   2.898
   21HOH     H2  269   2.753   0.799   3.002
   22HOH      O  270   0.465   1.432   0.598
   22HOH     H1  271   0.375   1.463   0.586
   22HOH     H2  272   0.519   1.510   0.585
   23HOH      O  273   1.824   3.863   3.768
   23HOH     H1  274   1.773   3.886   3.846
   23HOH     H2  275   1.880   3.791   3.796
   24HOH      O  276   0.857   0.390  -0.003
   24HOH     H1  277   0.790   0.452  -0.033
   24HOH     H2  278   0.863   0.405   0.091
   25HOH      O  279   2.065   2.266   0.435
   25HOH     H1  280   1.993   2.216   0.474
   25HOH     H2  281   2.144   2.222   0.466
   26HOH      O  282   2.293   1.351   1.796
   26HOH     H1  283   2.257   1.437   1.820
   26HOH     H2  284   2.288   1.349   1.701
   27HOH      O  285   2.620   2.140   0.993
   27HOH     H1  286   2.599   2.230   0.968
   27HOH     H2  287   2.715   2.134   0.983
   28HOH      O  288   3.679   1.374   0.869
   28HOH     H1  289   3.628   1.398   0.947
   28HOH     H2  290   3.637   1.421   0.798
   29HOH      O  291   0.840   0.138   3.481
   29HOH     H1  292   0.761   0.105   3.524
   29HOH     H2  293   0.912   0.106   3.535
   30HOH      O  294   2.819   1.476   2.029
   30HOH     H1  295   2.771   1.456   1.949
   30HOH     H2  296   2.865   1.557   2.009
   31HOH      O  297   0.128   1.233   0.122
   31HOH     H1  298   0.113   1.139   0.111
   31HOH     H2  299   0.062   1.275   0.068
   32HOH      O  300   0.763   3.224   1.741
   32HOH     H1  301   0.715   3.151   1.702
   32HOH     H2  302   0.740   3.222   1.834
   33HOH      O  303   2.871   0.899   3.320
   33HOH     H1  304   2.880   0.890   3.225
   33HOH     H2  305   2.819   0.979   3.331
   34HOH      O  306   2.898   1.869   3.991
   34HOH     H1  307   2.908   1.846   3.899
   34HOH     H2  308   2.899   1.965   3.992
   35HOH      O  309   2.003   1.860   0.352
   35HOH     H1  310   2.098   1.870   0.346
   35HOH     H2  311   1.982   1.793   0.287
   36HOH      O  312   2.586   2.394   2.255
   36HOH     H1  313   2.665   2.407   2.307
   36HOH     H2  314   2.517   2.377   2.319
   37HOH      O  315   0.778   2.963   3.429
   37HOH     H1  316   0.797   3.029   3.362
   37HOH     H2  317   0.685   2.943   3.417
   38HOH      O  318   0.126   0.341   3.200
   38HOH     H1  319   0.172   0.423   3.218
   38HOH     H2  320   0.183   0.293   3.141
   39HOH      O  321   1.202   1.905   3.748
   39HOH     H1  322   1.108   1.905   3.727
   39HOH     H2  323   1.233   1.819   3.720
   40HOH      O  324   2.196   0.339   2.876
   40HOH     H1  325   2.159   0.260   2.836
   40HOH     H2  326   2.119   0.388   2.908
   41HOH      O  327   2.267   0.732   1.445
   41HOH     H1  328   2.235   0.645   1.423
   41HOH     H2  329   2.214   0.791   1.393
   42HOH      O  330   0.774   0.286   2.225
   42HOH     H1  331   0.784   0.362   2.283
   42HOH     H2  332   0.687   0.298   2.185
   43HOH      O  333   1.724   3.805   1.059
   43HOH     H1  334   1.717   3.870   0.990
   43HOH     H2  335   1.633   3.780   1.077
   44HOH      O  336   1.204   1.102   2.024
   44HOH     H1  337   1.219   1.162   1.951
   44HOH     H2  338   1.171   1.157   2.094
   45HOH      O  339   3.532   2.094   3.314
   45HOH     H1  340   3.535   2.123   3.405
   45HOH     H2  341   3.446   2.124   3.282
   46HOH      O  342   1.979   0.441   2.990
   46HOH     H1  343   1.974   0.536   2.995
   46HOH     H2  344   1.918   0.410   3.058
   47HOH      O  345   1.927   3.670   3.943
   47HOH     H1  346   1.872   3.713   4.009
   47HOH     H2  347   1.911   3.576   3.957
   48HOH      O  348   3.256   1.694   1.288
   48HOH     H1  349   3.170   1.677   1.248
   48HOH     H2  350   3.236   1.722   1.377
   49HOH      O  351   0.360   0.924   1.826
   49HOH     H1  352   0.268   0.935   1.847
   49HOH     H2  353   0.392   0.862   1.892
   50HOH      O  354   3.606   2.877   3.347
   50HOH     H1  355   3.597   2.816   3.274
   50HOH     H2  356   3.672   2.940   3.318
   51HOH      O  357   0.280   0.153   1.226
   51HOH     H1  358   0.331   0.072   1.236
   51HOH     H2  359   0.248   0.171   1.315
   52HOH      O  360   1.111   1.655   0.729
   52HOH     H1  361   1.193   1.654   0.778
   52HOH     H2  362   1.091   1.563   0.713
   53HOH      O  363   1.670   1.712   0.511
   53HOH     H1  364   1.760   1.683   0.520
   53HOH     H2  365   1.620   1.655   0.570
   54HOH      O  366   0.065   0.442   0.875
   54HOH     H1  367   0.121   0.384   0.926
   54HOH     H2  368  -0.024   0.421   0.905
   55HOH      O  369   2.183   1.499   3.955
   55HOH     H1  370   2.249   1.451   3.906
   55HOH     H2  371   2.100   1.477   3.912
   56HOH      O  372   0.858   2.142   1.604
   56HOH     H1  373   0.845   2.237   1.598
   56HOH     H2  374   0.773   2.107   1.631
   57HOH      O  375   2.021   2.745   3.376
   57HOH     H1  376   2.042   2.692   3.299
   57HOH     H2  377   1.931   2.774   3.361
   58HOH      O  378   1.150   3.424   1.567
   58HOH     H1  379   1.094   3.347   1.582
   58HOH     H2  380   1.175   3.453   1.654
   59HOH      O  381   1.467   1.171   3.667
   59HOH     H1  382   1.388   1.162   3.615
   59HOH     H2  383   1.467   1.263   3.695
   60HOH      O  384   3.720   1.692   1.303
   60HOH     H1  385   3.646   1.726   1.252
   60HOH     H2  386   3.786   1.669   1.238
   61HOH      O  387   1.090   3.819   2.219
   61HOH     H1  388   1.106   3.802   2.312
   61HOH     H2  389   1.030   3.750   2.192
   62HOH      O  390   1.230   0.316   2.926
   62HOH     H1  391   1.162   0.249   2.930
   62HOH     H2  392   1.273   0.312   3.012
   63HOH      O  393   2.833   1.206   0.781
   63HOH     H1  394   2.875   1.121   0.776
   63HOH     H2  395   2.879   1.251   0.851
   64HOH      O  396   2.554   3.804   1.003
   64HOH     H1  397   2.520   3.732   1.055
   64HOH     H2  398   2.476   3.854   0.979
   65HOH      O  399   0.734   2.796   1.149
   65HOH     H1  400   0.804   2.848   1.188
   65HOH     H2  401   0.780   2.731   1.095
   66HOH      O  402   0.273   0.822   0.957
   66HOH     H1  403   0.310   0.819   0.869
   66HOH     H2  404   0.179   0.807   0.944
   67HOH      O  405   3.260   2.318   1.446
   67HOH     H1  406   3.195   2.388   1.453
   67HOH     H2  407   3.209   2.239   1.433
   68HOH      O  408   2.555   1.615   2.563
   68HOH     H1  409   2.596   1.584   2.482
   68HOH     H2  410   2.598   1.699   2.580
   69HOH      O  411   2.062   2.804   1.763
   69HOH     H1  412   2.064   2.877   1.701
   69HOH     H2  413   1.972   2.772   1.760
   70HOH      O  414   2.538   1.156   3.728
   70HOH     H1  415   2.547   1.063   3.705
   70HOH     H2  416   2.614   1.174   3.783
   71HOH      O  417   0.463   3.985   0.040
   71HOH     H1  418   0.446   3.937  -0.041
   71HOH     H2  419   0.510   3.923   0.096
   72HOH      O  420   0.202   3.773   2.799
   72HOH     H1  421   0.134   3.838   2.818
   72HOH     H2  422   0.200   3.764   2.703
   73HOH      O  423   3.222   0.797   0.296
   73HOH     H1  424   3.189   0.814   0.385
   73HOH     H2  425   3.188   0.870   0.244
   74HOH      O  426   0.632   1.790   0.268
   74HOH     H1  427   0.646   1.755   0.179
   74HOH     H2  428   0.547   1.835   0.263
   75HOH      O  429   1.136   0.549   0.304
   75HOH     H1  430   1.195   0.580   0.236
   75HOH     H2  431   1.143   0.614   0.374
   76HOH      O  432   2.112   3.263   1.471
   76HOH     H1  433   2.158   3.198   1.525
   76HOH     H2  434   2.112   3.226   1.383
   77HOH      O  435   2.401   1.981   0.888
   77HOH     H1  436   2.469   2.026   0.938
   77HOH     H2  437   2.319   2.012   0.926
   78HOH      O  438   1.796   2.242   2.453
   78HOH     H1  439   1.861   2.305   2.483
   78HOH     H2  440   1.712   2.278   2.482
   79HOH      O  441   3.304   2.932   3.710
   79HOH     H1  442   3.338   2.897   3.627
   79HOH     H2  443   3.363   3.003   3.732
   80HOH      O  444   0.314   1.879   3.910
   80HOH     H1  445   0.367   1.814   3.956
   80HOH     H2  446   0.337   1.962   3.952
   81HOH      O  447   0.226   1.110   2.742
   81HOH     H1  448   0.226   1.200   2.773
   81HOH     H2  449   0.155   1.107   2.678
   82HOH      O  450   2.532   0.245   1.445
   82HOH     H1  451   2.468   0.298   1.398
   82HOH     H2  452   2.572   0.305   1.508
   83HOH      O  453   3.885   2.583   0.421
   83HOH     H1  454   3.885   2.494   0.386
   83HOH     H2  455   3.795   2.596   0.452
   84HOH      O  456   3.782   1.832   1.559
   84HOH     H1  457   3.874   1.826   1.584
   84HOH     H2  458   3.776   1.787   1.475
   85HOH      O  459   2.469   2.396   0.700
   85HOH     H1  460   2.509   2.383   0.786
   85HOH     H2  461   2.407   2.468   0.714
   86HOH      O  462   3.419   2.690   0.856
   86HOH     H1  463   3.439   2.768   0.909
   86HOH     H2  464   3.431   2.719   0.766
   87HOH      O  465   3.883   3.109   1.059
   87HOH     H1  466   3.925   3.069   0.982
   87HOH     H2  467   3.811   3.160   1.023
   88HOH      O  468   3.196   1.884   3.180
   88HOH     H1  469   3.281   1.842   3.193
   88HOH     H2  470   3.216   1.973   3.152
   89HOH      O  471   3.908   0.579   2.857
   89HOH     H1  472   3.913   0.663   2.904
   89HOH     H2  473   3.822   0.581   2.816
   90HOH      O  474   3.683   0.769   1.859
   90HOH     H1  475   3.665   0.727   1.775
   90HOH     H2  476   3.639   0.853   1.854
   91HOH      O  477   1.749   3.681   0.308
   91HOH     H1  478   1.748   3.668   0.213
   91HOH     H2  479   1.760   3.776   0.318
   92HOH      O  480   3.633   3.116   1.992
   92HOH     H1  481   3.601   3.186   2.049
   92HOH     H2  482   3.727   3.132   1.984
   93HOH      O  483   1.967   2.198   1.397
   93HOH     H1  484   1.954   2.118   1.346
   93HOH     H2  485   1.879   2.230   1.415
   94HOH      O  486   2.363   3.390   1.299
   94HOH     H1  487   2.327   3.418   1.383
   94HOH     H2  488   2.367   3.295   1.306
   95HOH      O  489   0.060   2.116   0.409
   95HOH     H1  490   0.033   2.028   0.383
   95HOH     H2  491   0.082   2.107   0.502
   96HOH      O  492   2.448   2.372   0.421
   96HOH     H1  493   2.438   2.361   0.516
   96HOH     H2  494   2.508   2.303   0.395
   97HOH      O  495   3.202   1.033   0.620
   97HOH     H1  496   3.168   1.122   0.622
   97HOH     H2  497   3.129   0.981   0.586
   98HOH      O  498   0.096   0.526   1.514
   98HOH     H1  499   0.009   0.487   1.527
   98HOH     H2  500   0.077   0.615   1.483
   99HOH      O  501   3.034   0.181   1.920
   99HOH     H1  502   3.049   0.274   1.906
   99HOH     H2  503   3.071   0.163   2.006
  100HOH      O  504   3.951   1.217   1.132
  100HOH     H1  505   3.909   1.301   1.115
  100HOH     H2  506   3.910   1.185   1.212
  101HOH      O  507   2.003   0.231   2.122
  101HOH     H1  508   2.024   0.323   2.108
  101HOH     H2  509   1.910   0.224   2.099
  102HOH      O  510   2.471   0.451   2.917
  102HOH     H1  511   2.466   0.538   2.957
  102HOH     H2  512   2.390   0.407   2.943
  103HOH      O  513   0.362   2.137   0.008
  103HOH     H1  514   0.279   2.141   0.054
  103HOH     H2  515   0.427   2.161   0.074
  104HOH      O  516   3.925   1.347   4.015
  104HOH     H1  517   3.935   1.327   3.922
  104HOH     H2  518   3.831   1.357   4.027
  105HOH      O  519   3.936   2.393   1.666
  105HOH     H1  520   3.872   2.350   1.609
  105HOH     H2  521   4.018   2.388   1.617
  106HOH      O  522   3.022   1.704   2.909
  106HOH     H1  523   3.043   1.671   2.996
  106HOH     H2  524   3.106   1.703   2.862
  107HOH      O  525   2.770   3.292   2.066
  107HOH     H1  526   2.718   3.364   2.100
  107HOH     H2  527   2.861   3.321   2.076
  108HOH      O  528   0.320   1.378   1.810
  108HOH     H1  529   0.246   1.415   1.858
  108HOH     H2  530   0.382   1.352   1.878
  109HOH      O  531   1.805   0.898   0.849
  109HOH     H1  532   1.854   0.827   0.807
  109HOH     H2  533   1.804   0.968   0.784
  110HOH      O  534   3.849   1.195   0.775
  110HOH     H1  535   3.781   1.255   0.802
  110HOH     H2  536   3.842   1.121   0.835
  111HOH      O  537   1.143   2.809   1.096
  111HOH     H1  538   1.169   2.717   1.102
  111HOH     H2  539   1.219   2.857   1.131
  112HOH      O  540   3.584   3.628   1.212
  112HOH     H1  541   3.501   3.632   1.260
  112HOH     H2  542   3.620   3.717   1.219
  113HOH      O  543   2.739   0.984   1.048
  113HOH     H1  544   2.825   0.945   1.030
  113HOH     H2  545   2.697   0.989   0.962
  114HOH      O  546   2.033   1.831   2.948
  114HOH     H1  547   1.943   1.803   2.963
  114HOH     H2  548   2.025   1.921   2.918
  115HOH      O  549   1.430   4.025   1.899
  115HOH     H1  550   1.422   4.112   1.940
  115HOH     H2  551   1.452   3.967   1.972
  116HOH      O  552   2.413   0.806   2.339
  116HOH     H1  553   2.372   0.732   2.294
  116HOH     H2  554   2.506   0.784   2.343
  117HOH      O  555   0.847   3.819   3.864
  117HOH     H1  556   0.792   3.823   3.786
  117HOH     H2  557   0.827   3.899   3.912
  118HOH      O  558   2.037   1.512   2.297
  118HOH     H1  559   1.999   1.553   2.374
  118HOH     H2  560   2.108   1.458   2.331
  119HOH      O  561   2.924   1.011   1.518
  119HOH     H1  562   2.837   1.024   1.557
  119HOH     H2  563   2.922   1.064   1.438
  120HOH      O  564   3.229   2.135   1.769
  120HOH     H1  565   3.198   2.045   1.768
  120HOH     H2  566   3.321   2.129   1.797
  121HOH      O  567   2.081   3.793   1.670
  121HOH     H1  568   2.139   3.729   1.712
  121HOH     H2  569   2.081   3.767   1.578
  122HOH      O  570   2.240   2.579   1.559
  122HOH     H1  571   2.278   2.656   1.601
  122HOH     H2  572   2.159   2.561   1.609
  123HOH      O  573   0.950   2.965   1.220
  123HOH     H1  574   0.980   3.033   1.281
  123HOH     H2  575   1.031   2.924   1.189
  124HOH      O  576   0.410   3.298   1.594
  124HOH     H1  577   0.323   3.313   1.558
  124HOH     H2  578   0.424   3.204   1.585
  125HOH      O  579   2.679   2.159   3.761
  125HOH     H1  580   2.738   2.164   3.836
  125HOH     H2  581   2.735   2.134   3.688
  126HOH      O  582   2.926   2.953   3.186
  126HOH     H1  583   2.946   2.964   3.093
  126HOH     H2  584   2.849   3.008   3.201
  127HOH      O  585   3.137   0.750   3.566
  127HOH     H1  586   3.222   0.776   3.602
  127HOH     H2  587   3.121   0.664   3.603
  128HOH      O  588   1.586   0.070   0.291
  128HOH     H1  589   1.508   0.049   0.240
  128HOH     H2  590   1.568   0.036   0.379
  129HOH      O  591   0.654   1.851   2.103
  129HOH     H1  592   0.635   1.932   2.056
  129HOH     H2  593   0.610   1.783   2.053
  130HOH      O  594   0.615   2.007   3.740
  130HOH     H1  595   0.554   1.953   3.690
  130HOH     H2  596   0.633   2.082   3.683
  131HOH      O  597   2.906   2.495   2.993
  131HOH     H1  598   2.947   2.428   3.048
  131HOH     H2  599   2.884   2.566   3.053
  132HOH      O  600   0.327   1.688   1.415
  132HOH     H1  601   0.245   1.714   1.457
  132HOH     H2  602   0.365   1.623   1.474
  133HOH      O  603   0.858   1.111   3.195
  133HOH     H1  604   0.874   1.054   3.270
  133HOH     H2  605   0.793   1.174   3.227
  134HOH      O  606   1.649   2.703   2.173
  134HOH     H1  607   1.588   2.635   2.143
  134HOH     H2  608   1.735   2.672   2.146
  135HOH      O  609   1.908   3.277   0.870
  135HOH     H1  610   1.881   3.325   0.792
  135HOH     H2  611   1.936   3.192   0.837
  136HOH      O  612   2.001   2.951   2.041
  136HOH     H1  613   2.037   2.986   1.959
  136HOH     H2  614   2.014   3.022   2.104
  137HOH      O  615   2.337   0.401   3.278
  137HOH     H1  616   2.257   0.389   3.228
  137HOH     H2  617   2.348   0.320   3.328
  138HOH      O  618   0.556   1.323   3.599
  138HOH     H1  619   0.515   1.354   3.680
  138HOH     H2  620   0.636   1.376   3.592
  139HOH      O  621   2.003   1.998   3.368
  139HOH     H1  622   2.000   2.042   3.283
  139HOH     H2  623   1.930   1.936   3.365
  140HOH      O  624   2.843   3.792   2.388
  140HOH     H1  625   2.833   3.821   2.298
  140HOH     H2  626   2.927   3.828   2.416
  141HOH      O  627   0.332   1.689   2.326
  141HOH     H1  628   0.402   1.630   2.355
  141HOH     H2  629   0.378   1.760   2.282
  142HOH      O  630   0.813   3.547   1.357
  142HOH     H1  631   0.876   3.619   1.360
  142HOH     H2  632   0.735   3.582   1.399
  143HOH      O  633   2.099   0.971   3.425
  143HOH     H1  634   2.134   1.042   3.372
  143HOH     H2  635   2.176   0.921   3.452
  144HOH      O  636   3.649   1.159   3.432
  144HOH     H1  637   3.586   1.165   3.503
  144HOH     H2  638   3.675   1.067   3.430
  145HOH      O  639   1.674   0.997   2.848
  145HOH     H1  640   1.755   1.028   2.889
  145HOH     H2  641   1.641   0.930   2.907
  146HOH      O  642   2.341   0.879   1.876
  146HOH     H1  643   2.332   0.875   1.972
  146HOH     H2  644   2.267   0.828   1.843
  147HOH      O  645   0.883   0.171   1.628
  147HOH     H1  646   0.927   0.136   1.706
  147HOH     H2  647   0.790   0.161   1.648
  148HOH      O  648   1.011   0.205   3.908
  148HOH     H1  649   1.102   0.178   3.923
  148HOH     H2  650   0.986   0.251   3.988
  149HOH      O  651   2.084   2.724   2.845
  149HOH     H1  652   1.993   2.724   2.819
  149HOH     H2  653   2.133   2.726   2.763
  150HOH      O  654   3.606   0.287   1.099
  150HOH     H1  655   3.531   0.228   1.107
  150HOH     H2  656   3.578   0.367   1.145
  151HOH      O  657   2.189   3.968   2.900
  151HOH     H1  658   2.136   3.895   2.866
  151HOH     H2  659   2.158   4.044   2.851
  152HOH      O  660   0.957   2.763   3.320
  152HOH     H1  661   0.920   2.675   3.313
  152HOH     H2  662   0.881   2.821   3.315
  153HOH      O  663   3.244   3.247   2.166
  153HOH     H1  664   3.242   3.218   2.075
  153HOH     H2  665   3.287   3.176   2.214
  154HOH      O  666   3.441   2.461   2.175
  154HOH     H1  667   3.463   2.521   2.103
  154HOH     H2  668   3.517   2.404   2.183
  155HOH      O  669   0.516   1.998   1.464
  155HOH     H1  670   0.460   1.929   1.500
  155HOH     H2  671   0.572   2.024   1.537
  156HOH      O  672   3.256   0.624   2.823
  156HOH     H1  673   3.225   0.583   2.905
  156HOH     H2  674   3.179   0.670   2.789
  157HOH      O  675   0.092   1.831   3.214
  157HOH     H1  676   0.181   1.804   3.236
  157HOH     H2  677   0.036   1.773   3.265
  158HOH      O  678   0.420   0.215   2.367
  158HOH     H1  679   0.453   0.272   2.437
  158HOH     H2  680   0.421   0.127   2.405
  159HOH      O  681   3.658   2.280   2.059
  159HOH     H1  682   3.716   2.204   2.064
  159HOH     H2  683   3.673   2.327   2.140
  160HOH      O  684   1.861   1.154   1.014
  160HOH     H1  685   1.924   1.107   0.960
  160HOH     H2  686   1.835   1.229   0.959
  161HOH      O  687   0.768   1.090   3.550
  161HOH     H1  688   0.727   1.074   3.465
  161HOH     H2  689   0.741   1.016   3.604
  162HOH      O  690   1.654   2.215   0.446
  162HOH     H1  691   1.621   2.128   0.468
  162HOH     H2  692   1.748   2.203   0.435
  163HOH      O  693   0.076   2.153   0.882
  163HOH     H1  694   0.131   2.131   0.807
  163HOH     H2  695   0.104   2.092   0.950
  164HOH      O  696   2.636   2.030   2.865
  164HOH     H1  697   2.678   2.114   2.846
  164HOH     H2  698   2.664   2.009   2.954
  165HOH      O  699   3.617   1.010   2.520
  165HOH     H1  700   3.527   0.992   2.493
  165HOH     H2  701   3.614   1.100   2.555
  166HOH      O  702   2.421   2.763   0.967
  166HOH     H1  703   2.353   2.699   0.947
  166HOH     H2  704   2.490   2.747   0.903
  167HOH      O  705   0.187   3.818   2.508
  167HOH     H1  706   0.254   3.886   2.497
  167HOH     H2  707   0.219   3.745   2.455
  168HOH      O  708   3.157   0.161   2.183
  168HOH     H1  709   3.120   0.099   2.246
  168HOH     H2  710   3.150   0.246   2.227
  169HOH      O  711   1.697   1.280   2.375
  169HOH     H1  712   1.625   1.284   2.313
  169HOH     H2  713   1.776   1.273   2.321
  170HOH      O  714   3.811   3.093   1.713
  170HOH     H1  715   3.726   3.137   1.716
  170HOH     H2  716   3.836   3.096   1.621
  171HOH      O  717   0.980   0.597   2.639
  171HOH     H1  718   1.004   0.689   2.634
  171HOH     H2  719   1.046   0.552   2.586
  172HOH      O  720   2.689   2.325   1.249
  172HOH     H1  721   2.597   2.351   1.254
  172HOH     H2  722   2.698   2.254   1.313
  173HOH      O  723   1.716   0.250   2.051
  173HOH     H1  724   1.657   0.251   2.126
  173HOH     H2  725   1.698   0.332   2.005
  174HOH      O  726   0.419   0.801   1.577
  174HOH     H1  727   0.488   0.861   1.549
  174HOH     H2  728   0.400   0.827   1.667
  175HOH      O  729   0.928   0.764   1.325
  175HOH     H1  730   0.865   0.716   1.272
  175HOH     H2  731   0.982   0.696   1.366
  176HOH      O  732   3.639   3.578   0.648
  176HOH     H1  733   3.563   3.588   0.590
  176HOH     H2  734   3.652   3.484   0.656
  177HOH      O  735   3.340   3.003   3.056
  177HOH     H1  736   3.297   3.059   2.991
  177HOH     H2  737   3.295   3.021   3.138
  178HOH      O  738   1.252   1.914   1.052
  178HOH     H1  739   1.267   1.964   0.971
  178HOH     H2  740   1.191   1.967   1.102
  179HOH      O  741   2.618   2.942   2.640
  179HOH     H1  742   2.527   2.937   2.611
  179HOH     H2  743   2.658   3.006   2.581
  180HOH      O  744   1.193   1.173   2.462
  180HOH     H1  745   1.162   1.133   2.543
  180HOH     H2  746   1.116   1.174   2.405
  181HOH      O  747   2.347   3.169   1.053
  181HOH     H1  748   2.397   3.219   0.990
  181HOH     H2  749   2.266   3.219   1.066
  182HOH      O  750   2.533   0.353   2.340
  182HOH     H1  751   2.455   0.299   2.325
  182HOH     H2  752   2.585   0.344   2.260
  183HOH      O  753   2.620   2.712   0.239
  183HOH     H1  754   2.556   2.711   0.311
  183HOH     H2  755   2.662   2.626   0.244
  184HOH      O  756   1.982   2.662   2.393
  184HOH     H1  757   1.961   2.648   2.301
  184HOH     H2  758   1.993   2.757   2.401
  185HOH      O  759   0.324   0.766   3.758
  185HOH     H1  760   0.245   0.817   3.774
  185HOH     H2  761   0.391   0.831   3.740
  186HOH      O  762   2.943   2.702   0.571
  186HOH     H1  763   2.918   2.720   0.662
  186HOH     H2  764   2.876   2.642   0.540
  187HOH      O  765   1.279   3.620   0.759
  187HOH     H1  766   1.300   3.562   0.685
  187HOH     H2  767   1.301   3.568   0.836
  188HOH      O  768   3.465   1.770   3.335
  188HOH     H1  769   3.464   1.748   3.242
  188HOH     H2  770   3.499   1.860   3.338
  189HOH      O  771   2.129   2.334   2.960
  189HOH     H1  772   2.061   2.339   2.893
  189HOH     H2  773   2.211   2.332   2.910
  190HOH      O  774   2.655   1.134   0.072
  190HOH     H1  775   2.611   1.216   0.093
  190HOH     H2  776   2.715   1.156   0.000
  191HOH      O  777   0.090   0.216   1.803
  191HOH     H1  778   0.028   0.176   1.741
  191HOH     H2  779   0.036   0.277   1.854
  192HOH      O  780   3.054   2.913   2.884
  192HOH     H1  781   3.121   2.935   2.820
  192HOH     H2  782   3.008   2.838   2.846
  193HOH      O  783   3.012   2.114   3.192
  193HOH     H1  784   3.026   2.146   3.103
  193HOH     H2  785   3.075   2.043   3.202
  194HOH      O  786   3.685   0.639   3.647
  194HOH     H1  787   3.737   0.581   3.591
  194HOH     H2  788   3.611   0.585   3.674
  195HOH      O  789   3.353   3.950   1.326
  195HOH     H1  790   3.278   3.998   1.360
  195HOH     H2  791   3.428   3.989   1.369
  196HOH      O  792   1.304   0.450   1.292
  196HOH     H1  793   1.245   0.503   1.347
  196HOH     H2  794   1.354   0.398   1.355
  197HOH      O  795   0.250   0.468   1.184
  197HOH     H1  796   0.178   0.527   1.203
  197HOH     H2  797   0.212   0.380   1.194
  198HOH      O  798   0.464   2.876   3.796
  198HOH     H1  799   0.515   2.945   3.838
  198HOH     H2  800   0.390   2.862   3.854
  199HOH      O  801   1.482   1.103   2.669
  199HOH     H1  802   1.442   1.020   2.642
  199HOH     H2  803   1.564   1.078   2.711
  200HOH      O  804   3.627   3.402   0.322
  200HOH     H1  805   3.716   3.434   0.337
  200HOH     H2  806   3.608   3.424   0.231
  201HOH      O  807   1.429   2.493   1.394
  201HOH     H1  808   1.508   2.546   1.406
  201HOH     H2  809   1.375   2.512   1.471
  202HOH      O  810   0.462   3.576   0.002
  202HOH     H1  811   0.483   3.649  -0.056
  202HOH     H2  812   0.475   3.612   0.090
  203HOH      O  813   0.670   2.793   0.224
  203HOH     H1  814   0.761   2.817   0.242
  203HOH     H2  815   0.676   2.729   0.153
  204HOH      O  816   2.726   0.722   0.690
  204HOH     H1  817   2.677   0.654   0.737
  204HOH     H2  818   2.659   0.765   0.636
  205HOH      O  819   0.587   2.335   1.313
  205HOH     H1  820   0.634   2.418   1.307
  205HOH     H2  821   0.627   2.280   1.245
  206HOH      O  822   3.965   3.087   3.912
  206HOH     H1  823   4.013   3.075   3.994
  206HOH     H2  824   4.012   3.033   3.849
  207HOH      O  825   1.005   0.998   1.022
  207HOH     H1  826   1.006   1.058   1.097
  207HOH     H2  827   1.062   0.926   1.048
  208HOH      O  828   1.843   2.152   1.915
  208HOH     H1  829   1.886   2.069   1.939
  208HOH     H2  830   1.751   2.139   1.938
  209HOH      O  831   3.473   2.298   1.654
  209HOH     H1  832   3.435   2.361   1.716
  209HOH     H2  833   3.409   2.294   1.582
  210HOH      O  834   2.193   0.052   0.465
  210HOH     H1  835   2.176   0.146   0.468
  210HOH     H2  836   2.199   0.026   0.557
  211HOH      O  837   1.044   0.619   3.879
  211HOH     H1  838   0.994   0.611   3.798
  211HOH     H2  839   0.986   0.584   3.947
  212HOH      O  840   4.021   2.506   1.182
  212HOH     H1  841   4.008   2.419   1.220
  212HOH     H2  842   3.974   2.565   1.241
  213HOH      O  843   3.505   3.253   3.509
  213HOH     H1  844   3.416   3.217   3.508
  213HOH     H2  845   3.492   3.347   3.503
  214HOH      O  846   1.239   2.876   3.743
  214HOH     H1  847   1.267   2.822   3.817
  214HOH     H2  848   1.232   2.965   3.779
  215HOH      O  849   0.748   2.556   0.788
  215HOH     H1  850   0.842   2.539   0.789
  215HOH     H2  851   0.709   2.476   0.825
  216HOH      O  852   3.686   2.861   1.489
  216HOH     H1  853   3.721   2.855   1.578
  216HOH     H2  854   3.735   2.796   1.439
  217HOH      O  855   2.549   2.014   2.580
  217HOH     H1  856   2.482   2.083   2.573
  217HOH     H2  857   2.552   1.994   2.674
  218HOH      O  858   0.696   0.769   0.070
  218HOH     H1  859   0.772   0.796   0.121
  218HOH     H2  860   0.622   0.776   0.131
  219HOH      O  861   1.002   2.116   0.808
  219HOH     H1  862   1.044   2.126   0.893
  219HOH     H2  863   1.055   2.049   0.763
  220HOH      O  864   0.696   1.651   0.026
  220HOH     H1  865   0.781   1.693   0.021
  220HOH     H2  866   0.715   1.558   0.021
  221HOH      O  867   0.640   0.034   3.660
  221HOH     H1  868   0.636  -0.057   3.687
  221HOH     H2  869   0.625   0.084   3.740
  222HOH      O  870   0.255   0.681   0.504
  222HOH     H1  871   0.302   0.631   0.437
  222HOH     H2  872   0.205   0.614   0.552
  223HOH      O  873   2.576   0.724   1.789
  223HOH     H1  874   2.536   0.690   1.709
  223HOH     H2  875   2.506   0.775   1.831
  224HOH      O  876   2.333   3.632   2.913
  224HOH     H1  877   2.333   3.537   2.906
  224HOH     H2  878   2.328   3.663   2.823
  225HOH      O  879   3.385   3.071   0.247
  225HOH     H1  880   3.310   3.113   0.204
  225HOH     H2  881   3.456   3.078   0.184
  226HOH      O  882   0.353   3.560   2.908
  226HOH     H1  883   0.301   3.627   2.863
  226HOH     H2  884   0.311   3.552   2.994
  227HOH      O  885   1.614   1.649   1.320
  227HOH     H1  886   1.655   1.687   1.398
  227HOH     H2  887   1.555   1.581   1.354
  228HOH      O  888   1.430   1.493   1.458
  228HOH     H1  889   1.377   1.511   1.535
  228HOH     H2  890   1.478   1.413   1.480
  229HOH      O  891   0.224   2.043   0.642
  229HOH     H1  892   0.285   2.108   0.608
  229HOH     H2  893   0.280   1.976   0.681
  230HOH      O  894   3.890   3.363   4.005
  230HOH     H1  895   3.956   3.392   4.068
  230HOH     H2  896   3.919   3.277   3.976
  231HOH      O  897   0.051   3.101   2.498
  231HOH     H1  898  -0.032   3.111   2.452
  231HOH     H2  899   0.026   3.068   2.585
  232HOH      O  900   0.239   2.482   3.507
  232HOH     H1  901   0.291   2.553   3.545
  232HOH     H2  902   0.298   2.443   3.442
  233HOH      O  903   1.242   1.397   0.151
  233HOH     H1  904   1.150   1.385   0.127
  233HOH     H2  905   1.257   1.491   0.143
  234HOH      O  906   0.058   2.131   1.677
  234HOH     H1  907   0.054   2.185   1.756
  234HOH     H2  908  -0.015   2.162   1.624
  235HOH      O  909   3.366   3.518   2.698
  235HOH     H1  910   3.391   3.563   2.618
  235HOH     H2  911   3.438   3.457   2.716
  236HOH      O  912   0.960   1.427   0.099
  236HOH     H1  913   0.879   1.394   0.058
  236HOH     H2  914   0.959   1.521   0.081
  237HOH      O  915   1.091   1.118   0.512
  237HOH     H1  916   1.158   1.049   0.508
  237HOH     H2  917   1.133   1.188   0.562
  238HOH      O  918   0.586   3.823   3.067
  238HOH     H1  919   0.626   3.894   3.118
  238HOH     H2  920   0.523   3.784   3.128
  239HOH      O  921   0.254   1.602   0.516
  239HOH     H1  922   0.172   1.625   0.559
  239HOH     H2  923   0.259   1.663   0.442
  240HOH      O  924   2.101   3.105   2.882
  240HOH     H1  925   2.191   3.108   2.914
  240HOH     H2  926   2.057   3.041   2.939
  241HOH      O  927   3.079   1.574   1.893
  241HOH     H1  928   3.173   1.584   1.878
  241HOH     H2  929   3.042   1.562   1.806
  242HOH      O  930   1.518   0.298   1.492
  242HOH     H1  931   1.590   0.260   1.542
  242HOH     H2  932   1.514   0.389   1.521
  243HOH      O  933   3.587   1.780   0.768
  243HOH     H1  934   3.561   1.795   0.676
  243HOH     H2  935   3.595   1.869   0.804
  244HOH      O  936   3.841   0.365   0.954
  244HOH     H1  937   3.827   0.352   0.860
  244HOH     H2  938   3.753   0.380   0.989
  245HOH      O  939   1.803   3.516   1.576
  245HOH     H1  940   1.824   3.576   1.505
  245HOH     H2  941   1.773   3.573   1.647
  246HOH      O  942   1.663   2.393   1.831
  246HOH     H1  943   1.746   2.352   1.853
  246HOH     H2  944   1.622   2.410   1.916
  247HOH      O  945   0.840   1.248   2.729
  247HOH     H1  946   0.790   1.167   2.730
  247HOH     H2  947   0.810   1.296   2.806
  248HOH      O  948   2.653   0.394   1.651
  248HOH     H1  949   2.614   0.374   1.737
  248HOH     H2  950   2.612   0.476   1.625
  249HOH      O  951   3.184   0.417   3.545
  249HOH     H1  952   3.276   0.396   3.562
  249HOH     H2  953   3.175   0.410   3.450
  250HOH      O  954   3.009   0.247   1.297
  250HOH     H1  955   2.971   0.335   1.301
  250HOH     H2  956   2.970   0.201   1.371
  251HOH      O  957   2.500   3.464   1.821
  251HOH     H1  958   2.553   3.542   1.808
  251HOH     H2  959   2.520   3.408   1.746
  252HOH      O  960   3.595   0.357   0.192
  252HOH     H1  961   3.685   0.377   0.165
  252HOH     H2  962   3.598   0.358   0.287
  253HOH      O  963   2.238   1.580   1.941
  253HOH     H1  964   2.191   1.515   1.992
  253HOH     H2  965   2.276   1.639   2.006
  254HOH      O  966   1.076   1.692   2.984
  254HOH     H1  967   1.020   1.742   3.043
  254HOH     H2  968   1.089   1.608   3.028
  255HOH      O  969   2.657   1.740   0.984
  255HOH     H1  970   2.708   1.793   1.045
  255HOH     H2  971   2.684   1.650   1.003
  256HOH      O  972   3.467   1.110   3.634
  256HOH     H1  973   3.520   1.031   3.631
  256HOH     H2  974   3.379   1.081   3.610
  257HOH      O  975   2.992   0.210   3.674
  257HOH     H1  976   2.900   0.225   3.653
  257HOH     H2  977   3.038   0.287   3.641
  258HOH      O  978   1.356   3.881   1.463
  258HOH     H1  979   1.400   3.959   1.427
  258HOH     H2  980   1.396   3.808   1.417
  259HOH      O  981   0.189   3.690   3.739
  259HOH     H1  982   0.161   3.622   3.678
  259HOH     H2  983   0.119   3.755   3.736
  260HOH      O  984   1.672   2.419   1.075
  260HOH     H1  985   1.642   2.443   0.987
  260HOH     H2  986   1.593   2.420   1.129
  261HOH      O  987   1.068   2.211   0.277
  261HOH     H1  988   1.083   2.215   0.372
  261HOH     H2  989   1.152   2.236   0.238
  262HOH      O  990   4.005   3.637   2.348
  262HOH     H1  991   4.090   3.596   2.337
  262HOH     H2  992   4.018   3.727   2.317
  263HOH      O  993   1.303   2.307   1.064
  263HOH     H1  994   1.279   2.398   1.080
  263HOH     H2  995   1.355   2.282   1.141
  264HOH      O  996   0.855   3.256   3.754
  264HOH     H1  997   0.870   3.252   3.849
  264HOH     H2  998   0.854   3.164   3.727
  265HOH      O  999   3.421   0.583   2.516
  265HOH     H1 1000   3.428   0.629   2.599
  265HOH     H2 1001   3.345   0.622   2.473
  266HOH      O 1002   2.178   1.430   3.101
  266HOH     H1 1003   2.106   1.489   3.121
  266HOH     H2 1004   2.247   1.455   3.164
  267HOH      O 1005   3.779   1.964   3.118
  267HOH     H1 1006   3.796   1.877   3.153
  267HOH     H2 1007   3.734   1.949   3.035
  268HOH      O 1008   3.441   2.081   1.369
  268HOH     H1 1009   3.459   2.009   1.431
  268HOH     H2 1010   3.525   2.126   1.361
  269HOH      O 1011   3.498   0.353   0.450
  269HOH     H1 1012   3.429   0.419   0.442
  269HOH     H2 1013   3.459   0.283   0.503
  270HOH      O 1014   1.092   2.438   1.918
  270HOH     H1 1015   1.151   2.478   1.981
  270HOH     H2 1016   1.135   2.356   1.894
  271HOH      O 1017   0.382   3.702   1.315
  271HOH     H1 1018   0.400   3.620   1.269
  271HOH     H2 1019   0.301   3.686   1.362
  272HOH      O 1020   2.282   3.940   4.046
  272HOH     H1 1021   2.261   3.847   4.048
  272HOH     H2 1022   2.199   3.983   4.024
  273HOH      O 1023   2.179   0.934   2.094
  273HOH     H1 1024   2.177   0.982   2.177
  273HOH     H2 1025   2.092   0.947   2.057
  274HOH      O 1026   2.049   3.802   1.111
  274HOH     H1 1027   1.970   3.824   1.061
  274HOH     H2 1028   2.095   3.738   1.057
  275HOH      O 1029   4.006   0.768   3.711
  275HOH     H1 1030   4.006   0.679   3.676
  275HOH     H2 1031   3.941   0.767   3.781
  276HOH      O 1032   1.025   1.229   2.222
  276HOH     H1 1033   0.976   1.253   2.301
  276HOH     H2 1034   0.979   1.271   2.150
  277HOH      O 1035   0.957   0.585   2.163
  277HOH     H1 1036   1.023   0.530   2.119
  277HOH     H2 1037   0.983   0.674   2.142
  278HOH      O 1038   1.583   3.855   0.825
  278HOH     H1 1039   1.493   3.825   0.813
  278HOH     H2 1040   1.637   3.781   0.799
  279HOH      O 1041   3.788   3.722   3.740
  279HOH     H1 1042   3.803   3.761   3.827
  279HOH     H2 1043   3.702   3.681   3.747
  280HOH      O 1044   2.311   3.941   3.511
  280HOH     H1 1045   2.366   3.886   3.566
  280HOH     H2 1046   2.242   3.973   3.570
  281HOH      O 1047   3.079   3.641   0.510
  281HOH     H1 1048   3.087   3.709   0.444
  281HOH     H2 1049   3.119   3.678   0.589
  282HOH      O 1050   1.240   1.911   3.205
  282HOH     H1 1051   1.202   1.883   3.121
  282HOH     H2 1052   1.166   1.949   3.253
  283HOH      O 1053   0.943   1.821   0.599
  283HOH     H1 1054   1.001   1.769   0.655
  283HOH     H2 1055   0.856   1.787   0.617
  284HOH      O 1056   3.562   2.343   2.728
  284HOH     H1 1057   3.632   2.385   2.679
  284HOH     H2 1058   3.499   2.315   2.662
  285HOH      O 1059   1.135   3.514   2.290
  285HOH     H1 1060   1.159   3.584   2.351
  285HOH     H2 1061   1.055   3.547   2.247
  286HOH      O 1062   0.414   1.579   3.030
  286HOH     H1 1063   0.407   1.651   2.968
  286HOH     H2 1064   0.324   1.563   3.059
  287HOH      O 1065   3.578   3.483   0.055
  287HOH     H1 1066   3.643   3.473  -0.014
  287HOH     H2 1067   3.496   3.455   0.015
  288HOH      O 1068   3.124   2.595   2.874
  288HOH     H1 1069   3.106   2.615   2.782
  288HOH     H2 1070   3.040   2.562   2.908
  289HOH      O 1071   1.993   3.801   2.798
  289HOH     H1 1072   2.019   3.775   2.709
  289HOH     H2 1073   1.958   3.721   2.837
  290HOH      O 1074   3.264   3.107   1.897
  290HOH     H1 1075   3.242   3.050   1.824
  290HOH     H2 1076   3.281   3.048   1.970
  291HOH      O 1077   2.613   2.589   3.929
  291HOH     H1 1078   2.595   2.516   3.871
  291HOH     H2 1079   2.608   2.667   3.873
  292HOH      O 1080   3.414   0.629   1.753
  292HOH     H1 1081   3.380   0.559   1.808
  292HOH     H2 1082   3.425   0.703   1.812
  293HOH      O 1083   1.228   3.513   3.639
  293HOH     H1 1084   1.193   3.456   3.570
  293HOH     H2 1085   1.152   3.533   3.694
  294HOH      O 1086   2.882   0.646   3.759
  294HOH     H1 1087   2.835   0.572   3.721
  294HOH     H2 1088   2.852   0.722   3.710
  295HOH      O 1089   1.329   3.009   0.082
  295HOH     H1 1090   1.401   3.064   0.051
  295HOH     H2 1091   1.259   3.070   0.103
  296HOH      O 1092   3.493   1.262   0.280
  296HOH     H1 1093   3.489   1.220   0.366
  296HOH     H2 1094   3.521   1.351   0.298
  297HOH      O 1095   3.875   2.978   1.288
  297HOH     H1 1096   3.840   3.036   1.355
  297HOH     H2 1097   3.859   3.024   1.205
  298HOH      O 1098   3.772   1.027   1.944
  298HOH     H1 1099   3.686   1.066   1.926
  298HOH     H2 1100   3.760   0.983   2.028
  299HOH      O 1101   1.310   2.272   0.128
  299HOH     H1 1102   1.399   2.307   0.124
  299HOH     H2 1103   1.276   2.284   0.039
  300HOH      O 1104   2.990   1.848   1.994
  300HOH     H1 1105   2.998   1.756   1.967
  300HOH     H2 1106   3.040   1.853   2.076
  301HOH      O 1107   1.402   0.511   3.531
  301HOH     H1 1108   1.382   0.601   3.558
  301HOH     H2 1109   1.402   0.460   3.612
  302HOH      O 1110   2.512   3.426   2.206
  302HOH     H1 1111   2.551   3.358   2.260
  302HOH     H2 1112   2.488   3.495   2.268
  303HOH      O 1113   0.653   0.363   3.485
  303HOH     H1 1114   0.667   0.361   3.580
  303HOH     H2 1115   0.736   0.330   3.449
  304HOH      O 1116   0.106   1.076   3.360
  304HOH     H1 1117   0.034   1.063   3.298
  304HOH     H2 1118   0.096   1.005   3.423
  305HOH      O 1119   0.628   3.166   1.968
  305HOH     H1 1120   0.540   3.159   1.931
  305HOH     H2 1121   0.616   3.215   2.049
  306HOH      O 1122   2.961   3.664   0.138
  306HOH     H1 1123   2.887   3.692   0.191
  306HOH     H2 1124   2.926   3.595   0.082
  307HOH      O 1125   0.119   1.184   1.436
  307HOH     H1 1126   0.124   1.233   1.518
  307HOH     H2 1127   0.141   1.094   1.461
  308HOH      O 1128   2.917   1.027   1.926
  308HOH     H1 1129   2.920   0.944   1.879
  308HOH     H2 1130   2.830   1.031   1.964
  309HOH      O 1131   2.685   3.858   3.225
  309HOH     H1 1132   2.596   3.826   3.215
  309HOH     H2 1133   2.729   3.792   3.279
  310HOH      O 1134   3.561   0.728   0.008
  310HOH     H1 1135   3.527   0.764   0.091
  310HOH     H2 1136   3.531   0.637   0.008
  311HOH      O 1137   1.009   1.008   1.432
  311HOH     H1 1138   1.004   1.072   1.361
  311HOH     H2 1139   0.970   0.928   1.395
  312HOH      O 1140   0.718   2.120   0.802
  312HOH     H1 1141   0.716   2.138   0.708
  312HOH     H2 1142   0.811   2.120   0.825
  313HOH      O 1143   1.096   2.829   2.031
  313HOH     H1 1144   1.014   2.860   2.070
  313HOH     H2 1145   1.068   2.770   1.961
  314HOH      O 1146   2.395   0.530   0.664
  314HOH     H1 1147   2.481   0.506   0.699
  314HOH     H2 1148   2.405   0.621   0.634
  315HOH      O 1149   0.344   3.359   3.507
  315HOH     H1 1150   0.256   3.361   3.469
  315HOH     H2 1151   0.360   3.266   3.523
  316HOH      O 1152   2.474   3.500   3.270
  316HOH     H1 1153   2.473   3.441   3.194
  316HOH     H2 1154   2.465   3.587   3.232
  317HOH      O 1155   1.936   1.679   0.192
  317HOH     H1 1156   1.887   1.728   0.126
  317HOH     H2 1157   1.874   1.613   0.223
  318HOH      O 1158   3.323   2.163   2.707
  318HOH     H1 1159   3.331   2.239   2.765
  318HOH     H2 1160   3.289   2.094   2.763
  319HOH      O 1161   1.732   2.256   1.489
  319HOH     H1 1162   1.684   2.273   1.570
  319HOH     H2 1163   1.694   2.176   1.455
  320HOH      O 1164   2.458   1.814   1.294
  320HOH     H1 1165   2.430   1.884   1.235
  320HOH     H2 1166   2.461   1.736   1.237
  321HOH      O 1167   2.650   1.053   2.441
  321HOH     H1 1168   2.607   1.046   2.526
  321HOH     H2 1169   2.578   1.072   2.380
  322HOH      O 1170   2.325   3.935   0.915
  322HOH     H1 1171   2.331   3.977   0.829
  322HOH     H2 1172   2.283   3.851   0.898
  323HOH      O 1173   1.751   1.782   1.514
  323HOH     H1 1174   1.755   1.865   1.561
  323HOH     H2 1175   1.842   1.750   1.515
  324HOH      O 1176   1.328   2.590   1.068
  324HOH     H1 1177   1.354   2.567   0.978
  324HOH     H2 1178   1.411   2.601   1.114
  325HOH      O 1179   2.792   1.480   3.592
  325HOH     H1 1180   2.806   1.397   3.548
  325HOH     H2 1181   2.870   1.532   3.573
  326HOH      O 1182   2.134   1.415   1.270
  326HOH     H1 1183   2.103   1.408   1.360
  326HOH     H2 1184   2.088   1.491   1.235
  327HOH      O 1185   2.676   3.289   2.666
  327HOH     H1 1186   2.655   3.307   2.575
  327HOH     H2 1187   2.741   3.356   2.690
  328HOH      O 1188   3.147   0.247   3.917
  328HOH     H1 1189   3.101   0.223   3.837
  328HOH     H2 1190   3.150   0.343   3.915
  329HOH      O 1191   3.737   3.538   3.041
  329HOH     H1 1192   3.803   3.588   2.994
  329HOH     H2 1193   3.679   3.605   3.079
  330HOH      O 1194   2.809   3.750   2.936
  330HOH     H1 1195   2.773   3.782   3.020
  330HOH     H2 1196   2.763   3.802   2.870
  331HOH      O 1197   0.780   0.539   2.371
  331HOH     H1 1198   0.821   0.593   2.438
  331HOH     H2 1199   0.825   0.562   2.290
  332HOH      O 1200   2.641   0.504   0.415
  332HOH     H1 1201   2.689   0.586   0.404
  332HOH     H2 1202   2.700   0.448   0.465
  333HOH      O 1203   3.977   1.872   1.002
  333HOH     H1 1204   4.007   1.891   0.913
  333HOH     H2 1205   4.056   1.848   1.050
  334HOH      O 1206   2.920   2.330   3.317
  334HOH     H1 1207   2.980   2.341   3.391
  334HOH     H2 1208   2.951   2.251   3.273
  335HOH      O 1209   1.750   2.055   3.029
  335HOH     H1 1210   1.797   2.069   2.946
  335HOH     H2 1211   1.680   1.994   3.006
  336HOH      O 1212   0.548   0.733   2.819
  336HOH     H1 1213   0.582   0.807   2.769
  336HOH     H2 1214   0.561   0.657   2.762
  337HOH      O 1215   0.785   0.163   1.959
  337HOH     H1 1216   0.794   0.199   2.048
  337HOH     H2 1217   0.758   0.237   1.906
  338HOH      O 1218   0.267   0.169   1.997
  338HOH     H1 1219   0.203   0.164   1.927
  338HOH     H2 1220   0.342   0.119   1.965
  339HOH      O 1221   1.856   3.405   0.627
  339HOH     H1 1222   1.787   3.457   0.586
  339HOH     H2 1223   1.933   3.421   0.573
  340HOH      O 1224   2.877   1.115   1.265
  340HOH     H1 1225   2.791   1.157   1.258
  340HOH     H2 1226   2.933   1.165   1.206
  341HOH      O 1227   1.213   2.190   1.932
  341HOH     H1 1228   1.306   2.208   1.948
  341HOH     H2 1229   1.183   2.147   2.012
  342HOH      O 1230   3.289   2.717   3.067
  342HOH     H1 1231   3.323   2.805   3.054
  342HOH     H2 1232   3.242   2.697   2.986
  343HOH      O 1233   4.006   1.354   3.413
  343HOH     H1 1234   4.009   1.351   3.508
  343HOH     H2 1235   4.032   1.266   3.385
  344HOH      O 1236   0.796   3.427   3.340
  344HOH     H1 1237   0.773   3.446   3.249
  344HOH     H2 1238   0.712   3.430   3.386
  345HOH      O 1239   2.164   1.306   2.415
  345HOH     H1 1240   2.218   1.228   2.410
  345HOH     H2 1241   2.192   1.350   2.496
  346HOH      O 1242   3.261   2.980   2.665
  346HOH     H1 1243   3.242   2.909   2.603
  346HOH     H2 1244   3.354   2.999   2.652
  347HOH      O 1245   1.001   3.386   3.064
  347HOH     H1 1246   0.967   3.307   3.105
  347HOH     H2 1247   1.042   3.435   3.136
  348HOH      O 1248   3.242   2.907   3.999
  348HOH     H1 1249   3.247   2.993   4.042
  348HOH     H2 1250   3.208   2.926   3.912
  349HOH      O 1251   0.253   1.480   3.471
  349HOH     H1 1252   0.309   1.404   3.486
  349HOH     H2 1253   0.248   1.523   3.557
  350HOH      O 1254   1.332   4.003   3.102
  350HOH     H1 1255   1.390   3.937   3.141
  350HOH     H2 1256   1.247   3.987   3.144
  351HOH      O 1257   3.118   0.439   1.615
  351HOH     H1 1258   3.131   0.471   1.705
  351HOH     H2 1259   3.102   0.346   1.625
  352HOH      O 1260   1.622   0.196   0.046
  352HOH     H1 1261   1.603   0.160   0.133
  352HOH     H2 1262   1.581   0.283   0.047
  353HOH      O 1263   3.610   1.252   2.253
  353HOH     H1 1264   3.659   1.214   2.326
  353HOH     H2 1265   3.587   1.340   2.284
  354HOH      O 1266   2.758   2.725   2.396
  354HOH     H1 1267   2.665   2.739   2.381
  354HOH     H2 1268   2.765   2.632   2.418
  355HOH      O 1269   3.173   0.437   1.864
  355HOH     H1 1270   3.241   0.392   1.914
  355HOH     H2 1271   3.138   0.502   1.925
  356HOH      O 1272   0.190   1.349   2.402
  356HOH     H1 1273   0.142   1.431   2.403
  356HOH     H2 1274   0.123   1.281   2.405
  357HOH      O 1275   1.654   3.147   3.914
  357HOH     H1 1276   1.622   3.065   3.878
  357HOH     H2 1277   1.676   3.200   3.838
  358HOH      O 1278   0.268   0.629   3.236
  358HOH     H1 1279   0.352   0.642   3.193
  358HOH     H2 1280   0.278   0.547   3.286
  359HOH      O 1281   3.872   1.287   3.706
  359HOH     H1 1282   3.962   1.319   3.702
  359HOH     H2 1283   3.880   1.196   3.733
  360HOH      O 1284   2.632   3.174   1.388
  360HOH     H1 1285   2.663   3.086   1.370
  360HOH     H2 1286   2.697   3.231   1.347
  361HOH      O 1287   3.927   2.319   2.880
  361HOH     H1 1288   3.939   2.409   2.851
  361HOH     H2 1289   3.925   2.325   2.976
  362HOH      O 1290   1.313   2.138   0.844
  362HOH     H1 1291   1.315   2.190   0.764
  362HOH     H2 1292   1.336   2.200   0.913
  363HOH      O 1293   1.882   2.081   0.538
  363HOH     H1 1294   1.896   2.000   0.489
  363HOH     H2 1295   1.821   2.057   0.607
  364HOH      O 1296   1.420   1.571   0.020
  364HOH     H1 1297   1.467   1.601   0.097
  364HOH     H2 1298   1.427   1.643  -0.042
  365HOH      O 1299   3.259   2.386   0.575
  365HOH     H1 1300   3.283   2.379   0.668
  365HOH     H2 1301   3.263   2.480   0.557
  366HOH      O 1302   2.934   1.660   1.236
  366HOH     H1 1303   2.867   1.669   1.304
  366HOH     H2 1304   2.922   1.738   1.181
  367HOH      O 1305   2.681   0.093   1.943
  367HOH     H1 1306   2.612   0.131   1.889
  367HOH     H2 1307   2.744   0.059   1.881
  368HOH      O 1308   1.023   1.565   2.225
  368HOH     H1 1309   0.954   1.538   2.285
  368HOH     H2 1310   0.996   1.651   2.193
  369HOH      O 1311   1.912   1.565   0.629
  369HOH     H1 1312   1.944   1.631   0.689
  369HOH     H2 1313   1.972   1.491   0.641
  370HOH      O 1314   0.249   3.279   3.912
  370HOH     H1 1315   0.173   3.305   3.861
  370HOH     H2 1316   0.212   3.241   3.992
  371HOH      O 1317   2.236   1.575   3.574
  371HOH     H1 1318   2.329   1.564   3.593
  371HOH     H2 1319   2.227   1.668   3.551
  372HOH      O 1320   1.793   3.598   1.268
  372HOH     H1 1321   1.856   3.528   1.250
  372HOH     H2 1322   1.786   3.646   1.185
  373HOH      O 1323   2.515   0.139   3.080
  373HOH     H1 1324   2.435   0.095   3.107
  373HOH     H2 1325   2.540   0.192   3.156
  374HOH      O 1326   2.109   1.869   1.903
  374HOH     H1 1327   2.163   1.948   1.892
  374HOH     H2 1328   2.150   1.823   1.976
  375HOH      O 1329   2.722   1.843   3.401
  375HOH     H1 1330   2.707   1.752   3.425
  375HOH     H2 1331   2.635   1.879   3.387
  376HOH      O 1332   3.774   0.915   2.190
  376HOH     H1 1333   3.784   0.902   2.285
  376HOH     H2 1334   3.683   0.892   2.172
  377HOH      O 1335   2.488   0.242   1.844
  377HOH     H1 1336   2.453   0.324   1.879
  377HOH     H2 1337   2.420   0.177   1.863
  378HOH      O 1338   1.566   1.910   0.200
  378HOH     H1 1339   1.487   1.932   0.250
  378HOH     H2 1340   1.637   1.953   0.248
  379HOH      O 1341   1.233   1.370   3.890
  379HOH     H1 1342   1.176   1.441   3.859
  379HOH     H2 1343   1.260   1.398   3.977
  380HOH      O 1344   1.907   1.346   2.801
  380HOH     H1 1345   2.002   1.341   2.815
  380HOH     H2 1346   1.872   1.268   2.844
  381HOH      O 1347   3.583   2.500   3.815
  381HOH     H1 1348   3.591   2.459   3.901
  381HOH     H2 1349   3.549   2.588   3.833
  382HOH      O 1350   2.114   0.763   1.804
  382HOH     H1 1351   2.056   0.700   1.762
  382HOH     H2 1352   2.056   0.813   1.862
  383HOH      O 1353   0.046   3.487   0.164
  383HOH     H1 1354   0.023   3.566   0.115
  383HOH     H2 1355   0.141   3.495   0.177
  384HOH      O 1356   0.061   3.924   1.310
  384HOH     H1 1357   0.016   3.863   1.251
  384HOH     H2 1358   0.034   4.011   1.279
  385HOH      O 1359   0.679   0.191   0.805
  385HOH     H1 1360   0.643   0.128   0.742
  385HOH     H2 1361   0.611   0.258   0.815
  386HOH      O 1362   1.957   1.631   2.549
  386HOH     H1 1363   1.887   1.597   2.604
  386HOH     H2 1364   1.962   1.724   2.572
  387HOH      O 1365   2.226   1.814   3.403
  387HOH     H1 1366   2.162   1.883   3.384
  387HOH     H2 1367   2.241   1.772   3.319
  388HOH      O 1368   0.964   2.169   2.738
  388HOH     H1 1369   0.928   2.081   2.735
  388HOH     H2 1370   1.023   2.174   2.662
  389HOH      O 1371   1.287   0.240   1.924
  389HOH     H1 1372   1.287   0.335   1.920
  389HOH     H2 1373   1.276   0.212   1.833
  390HOH      O 1374   3.582   3.868   2.004
  390HOH     H1 1375   3.519   3.929   2.043
  390HOH     H2 1376   3.587   3.894   1.912
  391HOH      O 1377   0.856   0.538   2.964
  391HOH     H1 1378   0.946   0.543   2.930
  391HOH     H2 1379   0.806   0.495   2.894
  392HOH      O 1380   3.434   0.187   0.662
  392HOH     H1 1381   3.428   0.173   0.756
  392HOH     H2 1382   3.416   0.100   0.624
  393HOH      O 1383   3.042   0.751   0.961
  393HOH     H1 1384   3.040   0.774   1.054
  393HOH     H2 1385   3.113   0.803   0.925
  394HOH      O 1386   3.591   0.080   0.186
  394HOH     H1 1387   3.666   0.070   0.244
  394HOH     H2 1388   3.581   0.175   0.174
  395HOH      O 1389   0.673   1.036   2.682
  395HOH     H1 1390   0.593   1.059   2.635
  395HOH     H2 1391   0.734   1.010   2.614
  396HOH      O 1392   0.218   0.628   0.090
  396HOH     H1 1393   0.241   0.721   0.092
  396HOH     H2 1394   0.126   0.627   0.064
  397HOH      O 1395   2.187   2.084   1.053
  397HOH     H1 1396   2.120   2.058   1.116
  397HOH     H2 1397   2.141   2.085   0.969
  398HOH      O 1398   3.880   2.141   1.495
  398HOH     H1 1399   3.849   2.065   1.446
  398HOH     H2 1400   3.820   2.212   1.471
  399HOH      O 1401   2.679   0.317   2.118
  399HOH     H1 1402   2.756   0.367   2.089
  399HOH     H2 1403   2.661   0.257   2.046
  400HOH      O 1404   1.109   1.134   2.752
  400HOH     H1 1405   1.145   1.192   2.819
  400HOH     H2 1406   1.019   1.163   2.740
  401HOH      O 1407   1.688   3.759   3.299
  401HOH     H1 1408   1.594   3.775   3.288
  401HOH     H2 1409   1.702   3.764   3.394
  402HOH      O 1410   0.438   2.200   0.541
  402HOH     H1 1411   0.533   2.204   0.548
  402HOH     H2 1412   0.408   2.289   0.560
  403HOH      O 1413   3.823   2.152   3.409
  403HOH     H1 1414   3.786   2.156   3.497
  403HOH     H2 1415   3.908   2.109   3.421
  404HOH      O 1416   3.223   0.919   1.182
  404HOH     H1 1417   3.223   0.994   1.123
  404HOH     H2 1418   3.296   0.865   1.153
  405HOH      O 1419   0.099   3.024   3.639
  405HOH     H1 1420   0.172   3.086   3.642
  405HOH     H2 1421   0.129   2.954   3.581
  406HOH      O 1422   1.595   0.121   3.392
  406HOH     H1 1423   1.522   0.082   3.440
  406HOH     H2 1424   1.672   0.101   3.444
  407HOH      O 1425   0.328   0.925   2.885
  407HOH     H1 1426   0.292   0.997   2.833
  407HOH     H2 1427   0.401   0.964   2.932
  408HOH      O 1428   2.138   2.269   2.237
  408HOH     H1 1429   2.119   2.343   2.179
  408HOH     H2 1430   2.188   2.208   2.182
  409HOH      O 1431   1.578   2.373   0.211
  409HOH     H1 1432   1.596   2.309   0.280
  409HOH     H2 1433   1.530   2.443   0.255
  410HOH      O 1434   2.373   1.875   3.949
  410HOH     H1 1435   2.353   1.844   3.860
  410HOH     H2 1436   2.406   1.798   3.994
  411HOH      O 1437   3.015   1.250   1.792
  411HOH     H1 1438   2.980   1.165   1.818
  411HOH     H2 1439   3.110   1.242   1.803
  412HOH      O 1440   3.563   3.328   2.802
  412HOH     H1 1441   3.642   3.375   2.829
  412HOH     H2 1442   3.579   3.237   2.828
  413HOH      O 1443   2.497   0.600   1.538
  413HOH     H1 1444   2.422   0.627   1.485
  413HOH     H2 1445   2.573   0.636   1.493
  414HOH      O 1446   0.058   1.889   3.790
  414HOH     H1 1447   0.140   1.854   3.826
  414HOH     H2 1448   0.029   1.823   3.727
  415HOH      O 1449   3.024   1.604   3.560
  415HOH     H1 1450   3.030   1.623   3.466
  415HOH     H2 1451   3.089   1.535   3.575
  416HOH      O 1452   0.196   1.130   0.622
  416HOH     H1 1453   0.132   1.157   0.688
  416HOH     H2 1454   0.173   1.181   0.544
  417HOH      O 1455   2.734   3.141   3.267
  417HOH     H1 1456   2.780   3.200   3.328
  417HOH     H2 1457   2.673   3.093   3.322
  418HOH      O 1458   2.523   3.887   0.139
  418HOH     H1 1459   2.436   3.911   0.108
  418HOH     H2 1460   2.538   3.944   0.215
  419HOH      O 1461   0.948   0.646   0.568
  419HOH     H1 1462   0.864   0.686   0.544
  419HOH     H2 1463   1.006   0.720   0.585
  420HOH      O 1464   3.207   1.743   0.609
  420HOH     H1 1465   3.241   1.655   0.595
  420HOH     H2 1466   3.129   1.731   0.663
  421HOH      O 1467   0.783   2.218   0.151
  421HOH     H1 1468   0.776   2.137   0.100
  421HOH     H2 1469   0.853   2.201   0.214
  422HOH      O 1470   0.504   0.044   1.930
  422HOH     H1 1471   0.584   0.090   1.905
  422HOH     H2 1472   0.508  -0.039   1.884
  423HOH      O 1473   0.812   1.380   3.480
  423HOH     H1 1474   0.764   1.302   3.455
  423HOH     H2 1475   0.890   1.380   3.424
  424HOH      O 1476   1.524   2.808   2.889
  424HOH     H1 1477   1.490   2.769   2.808
  424HOH     H2 1478   1.618   2.820   2.872
  425HOH      O 1479   2.347   3.020   2.052
  425HOH     H1 1480   2.438   3.017   2.023
  425HOH     H2 1481   2.296   3.027   1.971
  426HOH      O 1482   1.771   3.490   3.235
  426HOH     H1 1483   1.865   3.504   3.248
  426HOH     H2 1484   1.731   3.575   3.257
  427HOH      O 1485   3.482   1.913   4.012
  427HOH     H1 1486   3.551   1.953   3.960
  427HOH     H2 1487   3.417   1.982   4.023
  428HOH      O 1488   2.175   0.992   3.963
  428HOH     H1 1489   2.247   0.959   4.017
  428HOH     H2 1490   2.178   1.087   3.974
  429HOH      O 1491   2.898   3.702   2.047
  429HOH     H1 1492   2.804   3.716   2.050
  429HOH     H2 1493   2.909   3.607   2.047
  430HOH      O 1494   1.700   1.791   2.580
  430HOH     H1 1495   1.699   1.717   2.640
  430HOH     H2 1496   1.613   1.791   2.540
  431HOH      O 1497   1.199   2.389   3.685
  431HOH     H1 1498   1.138   2.458   3.661
  431HOH     H2 1499   1.284   2.419   3.652
  432HOH      O 1500   2.200   2.315   3.935
  432HOH     H1 1501   2.243   2.343   4.016
  432HOH     H2 1502   2.267   2.263   3.890
  433HOH      O 1503   1.653   2.450   0.573
  433HOH     H1 1504   1.728   2.507   0.556
  433HOH     H2 1505   1.667   2.375   0.516
  434HOH      O 1506   1.891   0.168   0.064
  434HOH     H1 1507   1.947   0.246   0.071
  434HOH     H2 1508   1.806   0.203   0.038
  435HOH      O 1509   1.710   2.297   3.150
  435HOH     H1 1510   1.706   2.219   3.094
  435HOH     H2 1511   1.667   2.366   3.100
  436HOH      O 1512   2.735   4.010   0.989
  436HOH     H1 1513   2.754   4.033   0.898
  436HOH     H2 1514   2.663   3.946   0.983
  437HOH      O 1515   0.891   0.813   0.262
  437HOH     H1 1516   0.862   0.901   0.283
  437HOH     H2 1517   0.902   0.770   0.346
  438HOH      O 1518   3.209   2.910   1.299
  438HOH     H1 1519   3.175   2.988   1.255
  438HOH     H2 1520   3.303   2.926   1.308
  439HOH      O 1521   2.244   3.472   0.145
  439HOH     H1 1522   2.231   3.541   0.080
  439HOH     H2 1523   2.242   3.517   0.229
  440HOH      O 1524   0.871   0.839   1.841
  440HOH     H1 1525   0.829   0.874   1.920
  440HOH     H2 1526   0.855   0.907   1.774
  441HOH      O 1527   2.755   2.483   0.272
  441HOH     H1 1528   2.844   2.518   0.269
  441HOH     H2 1529   2.762   2.397   0.231
  442HOH      O 1530   0.449   3.873   2.110
  442HOH     H1 1531   0.501   3.878   2.190
  442HOH     H2 1532   0.462   3.958   2.067
  443HOH      O 1533   0.658   2.362   1.588
  443HOH     H1 1534   0.615   2.388   1.507
  443HOH     H2 1535   0.620   2.276   1.609
  444HOH      O 1536   0.095   2.300   3.625
  444HOH     H1 1537   0.140   2.365   3.572
  444HOH     H2 1538   0.071   2.231   3.563
  445HOH      O 1539   2.910   1.168   0.306
  445HOH     H1 1540   2.847   1.106   0.342
  445HOH     H2 1541   2.860   1.248   0.293
  446HOH      O 1542   1.659   1.571   2.334
  446HOH     H1 1543   1.691   1.486   2.304
  446HOH     H2 1544   1.728   1.632   2.308
  447HOH      O 1545   0.369   2.987   1.465
  447HOH     H1 1546   0.419   2.926   1.410
  447HOH     H2 1547   0.388   2.959   1.555
  448HOH      O 1548   3.223   1.271   0.310
  448HOH     H1 1549   3.313   1.271   0.278
  448HOH     H2 1550   3.191   1.183   0.289
  449HOH      O 1551   2.551   1.695   1.959
  449HOH     H1 1552   2.489   1.713   2.030
  449HOH     H2 1553   2.552   1.600   1.951
  450HOH      O 1554   3.501   3.985   0.880
  450HOH     H1 1555   3.549   3.903   0.874
  450HOH     H2 1556   3.563   4.048   0.917
  451HOH      O 1557   3.618   3.303   1.318
  451HOH     H1 1558   3.584   3.347   1.395
  451HOH     H2 1559   3.560   3.330   1.246
  452HOH      O 1560   2.445   3.777   3.128
  452HOH     H1 1561   2.423   3.730   3.048
  452HOH     H2 1562   2.367   3.831   3.146
  453HOH      O 1563   3.702   0.538   1.362
  453HOH     H1 1564   3.671   0.594   1.433
  453HOH     H2 1565   3.623   0.520   1.310
  454HOH      O 1566   1.793   1.810   2.201
  454HOH     H1 1567   1.858   1.879   2.194
  454HOH     H2 1568   1.717   1.852   2.241
  455HOH      O 1569   2.551   2.184   1.461
  455HOH     H1 1570   2.577   2.097   1.493
  455HOH     H2 1571   2.511   2.167   1.376
  456HOH      O 1572   2.693   0.083   3.739
  456HOH     H1 1573   2.656   0.016   3.796
  456HOH     H2 1574   2.719   0.153   3.799
  457HOH      O 1575   0.691   3.448   0.653
  457HOH     H1 1576   0.668   3.507   0.725
  457HOH     H2 1577   0.755   3.388   0.691
  458HOH      O 1578   1.675   0.895   3.501
  458HOH     H1 1579   1.745   0.833   3.480
  458HOH     H2 1580   1.651   0.875   3.592
  459HOH      O 1581   1.350   4.029   0.189
  459HOH     H1 1582   1.273   4.068   0.232
  459HOH     H2 1583   1.328   3.936   0.182
  460HOH      O 1584   1.118   0.362   3.695
  460HOH     H1 1585   1.124   0.445   3.742
  460HOH     H2 1586   1.060   0.309   3.749
  461HOH      O 1587   3.914   3.694   2.936
  461HOH     H1 1588   3.953   3.720   3.020
  461HOH     H2 1589   3.926   3.771   2.880
  462HOH      O 1590   3.700   1.154   0.134
  462HOH     H1 1591   3.636   1.204   0.184
  462HOH     H2 1592   3.649   1.105   0.071
  463HOH      O 1593   3.450   1.236   1.149
  463HOH     H1 1594   3.485   1.323   1.129
  463HOH     H2 1595   3.501   1.177   1.094
  464HOH      O 1596   2.203   3.510   1.488
  464HOH     H1 1597   2.234   3.536   1.575
  464HOH     H2 1598   2.128   3.454   1.505
  465HOH      O 1599   1.235   0.505   2.128
  465HOH     H1 1600   1.272   0.574   2.184
  465HOH     H2 1601   1.292   0.505   2.050
  466HOH      O 1602   3.172   3.009   3.296
  466HOH     H1 1603   3.157   3.094   3.337
  466HOH     H2 1604   3.086   2.980   3.267
  467HOH      O 1605   0.396   0.426   3.412
  467HOH     H1 1606   0.489   0.433   3.433
  467HOH     H2 1607   0.385   0.334   3.387
  468HOH      O 1608   2.146   3.738   2.070
  468HOH     H1 1609   2.157   3.817   2.017
  468HOH     H2 1610   2.229   3.691   2.060
  469HOH      O 1611   0.814   3.301   1.166
  469HOH     H1 1612   0.781   3.225   1.213
  469HOH     H2 1613   0.821   3.369   1.233
  470HOH      O 1614   0.079   2.401   0.485
  470HOH     H1 1615   0.129   2.319   0.493
  470HOH     H2 1616  -0.003   2.374   0.443
  471HOH      O 1617   1.076   3.961   0.220
  471HOH     H1 1618   1.150   3.904   0.197
  471HOH     H2 1619   1.019   3.905   0.274
  472HOH      O 1620   0.137   3.011   1.308
  472HOH     H1 1621   0.061   2.959   1.333
  472HOH     H2 1622   0.208   2.976   1.360
  473HOH      O 1623   0.876   2.272   3.875
  473HOH     H1 1624   0.805   2.336   3.887
  473HOH     H2 1625   0.835   2.187   3.893
  474HOH      O 1626   1.590   2.498   3.342
  474HOH     H1 1627   1.603   2.554   3.265
  474HOH     H2 1628   1.679   2.480   3.374
  475HOH      O 1629   2.568   0.866   3.649
  475HOH     H1 1630   2.558   0.796   3.714
  475HOH     H2 1631   2.503   0.846   3.582
  476HOH      O 1632   2.269   1.878   0.327
  476HOH     H1 1633   2.287   1.796   0.372
  476HOH     H2 1634   2.335   1.883   0.258
  477HOH      O 1635   1.018   0.421   1.825
  477HOH     H1 1636   1.031   0.327   1.816
  477HOH     H2 1637   0.924   0.431   1.840
  478HOH      O 1638   0.672   3.760   3.638
  478HOH     H1 1639   0.688   3.666   3.642
  478HOH     H2 1640   0.698   3.785   3.549
  479HOH      O 1641   1.561   3.462   0.630
  479HOH     H1 1642   1.596   3.549   0.615
  479HOH     H2 1643   1.470   3.468   0.603
  480HOH      O 1644   2.237   1.743   3.131
  480HOH     H1 1645   2.184   1.725   3.053
  480HOH     H2 1646   2.325   1.762   3.096
  481HOH      O 1647   2.096   0.131   2.721
  481HOH     H1 1648   2.076   0.165   2.634
  481HOH     H2 1649   2.012   0.101   2.755
  482HOH      O 1650   1.513   2.948   3.825
  482HOH     H1 1651   1.446   2.957   3.757
  482HOH     H2 1652   1.475   2.889   3.890
  483HOH      O 1653   1.183   2.851   0.782
  483HOH     H1 1654   1.215   2.869   0.871
  483HOH     H2 1655   1.087   2.854   0.791
  484HOH      O 1656   1.654   3.681   2.927
  484HOH     H1 1657   1.742   3.643   2.933
  484HOH     H2 1658   1.617   3.644   2.848
  485HOH      O 1659   3.911   2.603   2.807
  485HOH     H1 1660   3.945   2.683   2.768
  485HOH     H2 1661   3.882   2.629   2.895
  486HOH      O 1662   2.173   0.190   1.429
  486HOH     H1 1663   2.171   0.136   1.350
  486HOH     H2 1664   2.192   0.129   1.500
  487HOH      O 1665   3.118   0.391   2.316
  487HOH     H1 1666   3.128   0.484   2.337
  487HOH     H2 1667   3.117   0.347   2.402
  488HOH      O 1668   2.848   1.148   2.982
  488HOH     H1 1669   2.809   1.229   3.015
  488HOH     H2 1670   2.869   1.166   2.891
  489HOH      O 1671   2.433   0.706   3.024
  489HOH     H1 1672   2.388   0.790   3.030
  489HOH     H2 1673   2.520   0.727   2.991
  490HOH      O 1674   3.725   2.137   0.134
  490HOH     H1 1675   3.645   2.112   0.181
  490HOH     H2 1676   3.696   2.204   0.072
  491HOH      O 1677   3.150   0.375   0.959
  491HOH     H1 1678   3.165   0.385   0.865
  491HOH     H2 1679   3.064   0.415   0.974
  492HOH      O 1680   3.823   3.191   1.451
  492HOH     H1 1681   3.763   3.210   1.379
  492HOH     H2 1682   3.860   3.276   1.473
  493HOH      O 1683   3.669   0.610   2.061
  493HOH     H1 1684   3.685   0.680   1.998
  493HOH     H2 1685   3.588   0.636   2.106
  494HOH      O 1686   2.826   2.066   3.559
  494HOH     H1 1687   2.914   2.033   3.573
  494HOH     H2 1688   2.788   2.008   3.493
  495HOH      O 1689   2.733   0.342   2.924
  495HOH     H1 1690   2.733   0.271   2.989
  495HOH     H2 1691   2.641   0.366   2.915
  496HOH      O 1692   1.381   0.533   2.780
  496HOH     H1 1693   1.353   0.444   2.757
  496HOH     H2 1694   1.443   0.520   2.853
  497HOH      O 1695   1.110   0.840   2.139
  497HOH     H1 1696   1.195   0.803   2.161
  497HOH     H2 1697   1.129   0.908   2.074
  498HOH      O 1698   1.271   1.122   3.482
  498HOH     H1 1699   1.270   1.088   3.393
  498HOH     H2 1700   1.189   1.091   3.521
  499HOH      O 1701   1.014   1.330   1.446
  499HOH     H1 1702   1.024   1.284   1.363
  499HOH     H2 1703   1.039   1.421   1.425
  500HOH      O 1704   2.859   2.292   0.878
  500HOH     H1 1705   2.901   2.289   0.792
  500HOH     H2 1706   2.796   2.363   0.872
  501HOH      O 1707   0.666   3.025   1.582
  501HOH     H1 1708   0.720   2.964   1.531
  501HOH     H2 1709   0.604   2.969   1.628
  502HOH      O 1710   1.181   1.087   3.784
  502HOH     H1 1711   1.120   1.086   3.710
  502HOH     H2 1712   1.178   1.177   3.816
  503HOH      O 1713   0.482   2.944   0.334
  503HOH     H1 1714   0.550   2.886   0.299
  503HOH     H2 1715   0.409   2.935   0.274
  504HOH      O 1716   2.455   0.068   1.115
  504HOH     H1 1717   2.543   0.068   1.078
  504HOH     H2 1718   2.408   0.002   1.063
  505HOH      O 1719   1.443   1.631   2.481
  505HOH     H1 1720   1.517   1.618   2.422
  505HOH     H2 1721   1.380   1.564   2.456
  506HOH      O 1722   0.858   2.268   3.312
  506HOH     H1 1723   0.876   2.251   3.219
  506HOH     H2 1724   0.944   2.275   3.352
  507HOH      O 1725   1.767   3.907   3.099
  507HOH     H1 1726   1.761   3.845   3.027
  507HOH     H2 1727   1.743   3.856   3.176
  508HOH      O 1728   0.559   1.490   2.001
  508HOH     H1 1729   0.527   1.577   1.978
  508HOH     H2 1730   0.579   1.449   1.916
  509HOH      O 1731   0.774   0.745   3.390
  509HOH     H1 1732   0.844   0.680   3.386
  509HOH     H2 1733   0.733   0.742   3.303
  510HOH      O 1734   1.023   1.189   3.597
  510HOH     H1 1735   0.934   1.157   3.586
  510HOH     H2 1736   1.047   1.225   3.512
  511HOH      O 1737   0.992   1.980   0.141
  511HOH     H1 1738   0.998   2.009   0.050
  511HOH     H2 1739   1.025   2.054   0.191
  512HOH      O 1740   3.547   1.529   2.561
  512HOH     H1 1741   3.639   1.544   2.538
  512HOH     H2 1742   3.501   1.530   2.477
  513HOH      O 1743   1.247   1.467   2.394
  513HOH     H1 1744   1.179   1.482   2.328
  513HOH     H2 1745   1.230   1.379   2.427
  514HOH      O 1746   0.496   2.580   1.468
  514HOH     H1 1747   0.416   2.580   1.415
  514HOH     H2 1748   0.473   2.633   1.544
  515HOH      O 1749   1.051   0.844   3.570
  515HOH     H1 1750   1.001   0.762   3.565
  515HOH     H2 1751   1.041   0.884   3.484
  516HOH      O 1752   0.608   1.152   2.346
  516HOH     H1 1753   0.519   1.118   2.339
  516HOH     H2 1754   0.650   1.125   2.264
  517HOH      O 1755   2.116   0.599   2.442
  517HOH     H1 1756   2.048   0.555   2.390
  517HOH     H2 1757   2.069   0.669   2.488
  518HOH      O 1758   4.013   2.245   1.288
  518HOH     H1 1759   4.042   2.284   1.371
  518HOH     H2 1760   3.996   2.153   1.310
  519HOH      O 1761   0.852   3.307   4.011
  519HOH     H1 1762   0.914   3.237   4.030
  519HOH     H2 1763   0.895   3.386   4.043
  520HOH      O 1764   2.643   3.248   2.388
  520HOH     H1 1765   2.736   3.244   2.367
  520HOH     H2 1766   2.616   3.156   2.395
  521HOH      O 1767   2.928   3.148   3.978
  521HOH     H1 1768   2.869   3.074   3.970
  521HOH     H2 1769   2.873   3.225   3.960
  522HOH      O 1770   0.999   3.554   3.799
  522HOH     H1 1771   0.942   3.533   3.725
  522HOH     H2 1772   0.944   3.608   3.857
  523HOH      O 1773   2.911   0.652   0.187
  523HOH     H1 1774   2.882   0.743   0.191
  523HOH     H2 1775   2.879   0.621   0.102
  524HOH      O 1776   0.276   3.454   0.442
  524HOH     H1 1777   0.226   3.376   0.467
  524HOH     H2 1778   0.297   3.440   0.350
  525HOH      O 1779   1.172   3.785   0.580
  525HOH     H1 1780   1.082   3.760   0.562
  525HOH     H2 1781   1.202   3.724   0.647
  526HOH      O 1782   3.714   3.303   0.672
  526HOH     H1 1783   3.639   3.277   0.618
  526HOH     H2 1784   3.791   3.281   0.619
  527HOH      O 1785   1.728   1.109   2.079
  527HOH     H1 1786   1.674   1.165   2.023
  527HOH     H2 1787   1.786   1.170   2.124
  528HOH      O 1788   3.335   2.269   0.813
  528HOH     H1 1789   3.424   2.253   0.781
  528HOH     H2 1790   3.290   2.185   0.800
  529HOH      O 1791   0.595   1.118   1.803
  529HOH     H1 1792   0.666   1.085   1.748
  529HOH     H2 1793   0.523   1.056   1.789
  530HOH      O 1794   3.601   2.513   0.520
  530HOH     H1 1795   3.603   2.606   0.497
  530HOH     H2 1796   3.610   2.512   0.616
  531HOH      O 1797   1.501   0.556   3.182
  531HOH     H1 1798   1.412   0.557   3.217
  531HOH     H2 1799   1.556   0.527   3.254
  532HOH      O 1800   2.912   0.912   0.771
  532HOH     H1 1801   2.832   0.864   0.749
  532HOH     H2 1802   2.951   0.863   0.843
  533HOH      O 1803   0.788   1.817   0.973
  533HOH     H1 1804   0.852   1.825   0.902
  533HOH     H2 1805   0.710   1.862   0.940
  534HOH      O 1806   2.158   1.057   1.711
  534HOH     H1 1807   2.223   1.088   1.648
  534HOH     H2 1808   2.204   0.992   1.763
  535HOH      O 1809   3.932   1.486   1.117
  535HOH     H1 1810   4.008   1.543   1.129
  535HOH     H2 1811   3.888   1.521   1.039
  536HOH      O 1812   1.071   4.002   3.593
  536HOH     H1 1813   1.081   3.970   3.683
  536HOH     H2 1814   1.072   3.923   3.539
  537HOH      O 1815   3.591   1.986   2.665
  537HOH     H1 1816   3.640   2.066   2.645
  537HOH     H2 1817   3.500   2.007   2.642
  538HOH      O 1818   0.486   3.551   2.271
  538HOH     H1 1819   0.564   3.536   2.218
  538HOH     H2 1820   0.519   3.572   2.358
  539HOH      O 1821   0.388   4.001   2.453
  539HOH     H1 1822   0.453   3.958   2.397
  539HOH     H2 1823   0.425   3.998   2.541
  540HOH      O 1824   0.602   3.672   1.124
  540HOH     H1 1825   0.536   3.724   1.171
  540HOH     H2 1826   0.593   3.584   1.160
  541HOH      O 1827   0.132   1.444   2.023
  541HOH     H1 1828   0.068   1.391   2.070
  541HOH     H2 1829   0.107   1.534   2.042
  542HOH      O 1830   3.529   0.928   2.073
  542HOH     H1 1831   3.458   0.935   2.137
  542HOH     H2 1832   3.483   0.918   1.989
  543HOH      O 1833   1.268   1.689   3.353
  543HOH     H1 1834   1.217   1.615   3.319
  543HOH     H2 1835   1.255   1.759   3.289
  544HOH      O 1836   2.373   3.366   2.883
  544HOH     H1 1837   2.382   3.314   2.803
  544HOH     H2 1838   2.427   3.320   2.948
  545HOH      O 1839   2.793   2.430   2.410
  545HOH     H1 1840   2.792   2.419   2.505
  545HOH     H2 1841   2.854   2.363   2.379
  546HOH      O 1842   1.536   1.595   3.426
  546HOH     H1 1843   1.464   1.646   3.389
  546HOH     H2 1844   1.515   1.504   3.404
  547HOH      O 1845   3.190   1.925   0.429
  547HOH     H1 1846   3.167   1.860   0.495
  547HOH     H2 1847   3.252   1.983   0.473
  548HOH      O 1848   0.902   1.300   2.474
  548HOH     H1 1849   0.870   1.303   2.565
  548HOH     H2 1850   0.834   1.345   2.424
  549HOH      O 1851   3.519   3.409   1.072
  549HOH     H1 1852   3.438   3.443   1.033
  549HOH     H2 1853   3.557   3.485   1.116
  550HOH      O 1854   3.218   1.970   0.162
  550HOH     H1 1855   3.200   1.964   0.256
  550HOH     H2 1856   3.138   1.937   0.120
  551HOH      O 1857   3.124   1.904   1.741
  551HOH     H1 1858   3.083   1.857   1.669
  551HOH     H2 1859   3.057   1.907   1.809
  552HOH      O 1860   3.261   3.571   3.083
  552HOH     H1 1861   3.305   3.612   3.158
  552HOH     H2 1862   3.219   3.644   3.038
  553HOH      O 1863   0.332   0.244   3.844
  553HOH     H1 1864   0.289   0.328   3.829
  553HOH     H2 1865   0.260   0.183   3.863
  554HOH      O 1866   1.129   3.902   1.706
  554HOH     H1 1867   1.051   3.928   1.755
  554HOH     H2 1868   1.095   3.853   1.632
  555HOH      O 1869   3.767   1.268   2.510
  555HOH     H1 1870   3.796   1.243   2.598
  555HOH     H2 1871   3.800   1.357   2.498
  556HOH      O 1872   0.531   0.855   0.293
  556HOH     H1 1873   0.479   0.775   0.302
  556HOH     H2 1874   0.482   0.922   0.341
  557HOH      O 1875   1.167   3.235   1.118
  557HOH     H1 1876   1.123   3.285   1.187
  557HOH     H2 1877   1.114   3.251   1.040
  558HOH      O 1878   3.797   0.563   3.361
  558HOH     H1 1879   3.841   0.570   3.276
  558HOH     H2 1880   3.709   0.532   3.340
  559HOH      O 1881   3.477   2.689   2.583
  559HOH     H1 1882   3.463   2.735   2.501
  559HOH     H2 1883   3.511   2.756   2.642
  560HOH      O 1884   1.302   3.681   1.983
  560HOH     H1 1885   1.251   3.649   2.058
  560HOH     H2 1886   1.317   3.773   2.002
  561HOH      O 1887   1.156   2.718   0.384
  561HOH     H1 1888   1.068   2.713   0.421
  561HOH     H2 1889   1.210   2.755   0.455
  562HOH      O 1890   3.529   2.758   3.894
  562HOH     H1 1891   3.578   2.839   3.881
  562HOH     H2 1892   3.490   2.767   3.981
  563HOH      O 1893   0.286   2.000   3.596
  563HOH     H1 1894   0.248   1.988   3.683
  563HOH     H2 1895   0.346   1.926   3.586
  564HOH      O 1896   1.408   1.658   2.757
  564HOH     H1 1897   1.354   1.581   2.771
  564HOH     H2 1898   1.429   1.657   2.664
  565HOH      O 1899   0.157   0.767   3.037
  565HOH     H1 1900   0.232   0.816   3.004
  565HOH     H2 1901   0.184   0.736   3.123
  566HOH      O 1902   3.068  -0.026   0.775
  566HOH     H1 1903   3.101   0.047   0.828
  566HOH     H2 1904   2.973  -0.020   0.783
  567HOH      O 1905   1.783   0.830   1.420
  567HOH     H1 1906   1.793   0.737   1.441
  567HOH     H2 1907   1.717   0.833   1.351
  568HOH      O 1908   1.840   3.526   3.731
  568HOH     H1 1909   1.871   3.447   3.687
  568HOH     H2 1910   1.910   3.590   3.717
  569HOH      O 1911   3.513   0.785   0.260
  569HOH     H1 1912   3.419   0.804   0.263
  569HOH     H2 1913   3.549   0.829   0.337
  570HOH      O 1914   2.268   2.570   0.855
  570HOH     H1 1915   2.203   2.573   0.784
  570HOH     H2 1916   2.216   2.550   0.933
  571HOH      O 1917   3.221   0.833   3.946
  571HOH     H1 1918   3.278   0.827   3.870
  571HOH     H2 1919   3.260   0.774   4.010
  572HOH      O 1920   2.124   2.539   0.068
  572HOH     H1 1921   2.216   2.557   0.047
  572HOH     H2 1922   2.098   2.471   0.007
  573HOH      O 1923   0.335   3.418   2.598
  573HOH     H1 1924   0.246   3.396   2.569
  573HOH     H2 1925   0.383   3.435   2.517
  574HOH      O 1926   0.431   2.238   3.513
  574HOH     H1 1927   0.366   2.168   3.515
  574HOH     H2 1928   0.429   2.274   3.602
  575HOH      O 1929   1.358   0.256   2.642
  575HOH     H1 1930   1.347   0.224   2.731
  575HOH     H2 1931   1.402   0.185   2.596
  576HOH      O 1932   1.205   1.607   2.010
  576HOH     H1 1933   1.279   1.642   2.060
  576HOH     H2 1934   1.143   1.579   2.078
  577HOH      O 1935   0.740   0.088   0.200
  577HOH     H1 1936   0.718   0.175   0.167
  577HOH     H2 1937   0.681   0.076   0.275
  578HOH      O 1938   3.151   1.151   2.350
  578HOH     H1 1939   3.109   1.072   2.385
  578HOH     H2 1940   3.088   1.186   2.288
  579HOH      O 1941   1.689   3.004   0.834
  579HOH     H1 1942   1.686   3.099   0.847
  579HOH     H2 1943   1.661   2.968   0.918
  580HOH      O 1944   1.388   0.507   1.921
  580HOH     H1 1945   1.482   0.500   1.908
  580HOH     H2 1946   1.360   0.575   1.860
  581HOH      O 1947   2.111   0.041   1.658
  581HOH     H1 1948   2.089  -0.045   1.693
  581HOH     H2 1949   2.196   0.061   1.697
  582HOH      O 1950   1.939   1.245   2.254
  582HOH     H1 1951   1.985   1.163   2.271
  582HOH     H2 1952   1.991   1.312   2.297
  583HOH      O 1953   0.030   3.772   3.161
  583HOH     H1 1954   0.063   3.862   3.158
  583HOH     H2 1955   0.043   3.744   3.251
  584HOH      O 1956   3.331   3.794   1.018
  584HOH     H1 1957   3.390   3.847   0.964
  584HOH     H2 1958   3.385   3.718   1.043
  585HOH      O 1959   3.803   4.066   1.957
  585HOH     H1 1960   3.874   4.003   1.945
  585HOH     H2 1961   3.729   4.029   1.909
  586HOH      O 1962   1.307   1.057   0.262
  586HOH     H1 1963   1.363   1.118   0.214
  586HOH     H2 1964   1.222   1.063   0.219
  587HOH      O 1965   2.119   3.186   2.167
  587HOH     H1 1966   2.070   3.268   2.158
  587HOH     H2 1967   2.152   3.167   2.079
  588HOH      O 1968   3.803   0.440   1.767
  588HOH     H1 1969   3.755   0.374   1.817
  588HOH     H2 1970   3.880   0.459   1.821
  589HOH      O 1971   1.325   1.813   0.595
  589HOH     H1 1972   1.391   1.748   0.572
  589HOH     H2 1973   1.244   1.763   0.603
  590HOH      O 1974   3.544   3.012   2.668
  590HOH     H1 1975   3.550   3.042   2.758
  590HOH     H2 1976   3.617   3.056   2.623
  591HOH      O 1977   0.919   1.830   3.162
  591HOH     H1 1978   0.933   1.897   3.229
  591HOH     H2 1979   0.866   1.763   3.206
  592HOH      O 1980   0.430   1.567   1.637
  592HOH     H1 1981   0.371   1.500   1.670
  592HOH     H2 1982   0.516   1.542   1.671
  593HOH      O 1983   2.421   3.703   2.634
  593HOH     H1 1984   2.512   3.685   2.613
  593HOH     H2 1985   2.416   3.798   2.643
  594HOH      O 1986   2.797   3.104   2.892
  594HOH     H1 1987   2.748   3.136   2.816
  594HOH     H2 1988   2.875   3.063   2.854
  595HOH      O 1989   3.730   2.007   3.899
  595HOH     H1 1990   3.771   1.928   3.864
  595HOH     H2 1991   3.788   2.036   3.969
  596HOH      O 1992   3.349   3.605   3.717
  596HOH     H1 1993   3.262   3.608   3.755
  596HOH     H2 1994   3.402   3.663   3.772
  597HOH      O 1995   1.733   1.497   1.101
  597HOH     H1 1996   1.700   1.550   1.174
  597HOH     H2 1997   1.674   1.422   1.097
  598HOH      O 1998   1.752   0.161   1.627
  598HOH     H1 1999   1.767   0.142   1.719
  598HOH     H2 2000   1.817   0.228   1.605
  599HOH      O 2001   3.319   1.739   2.168
  599HOH     H1 2002   3.236   1.782   2.186
  599HOH     H2 2003   3.384   1.809   2.176
  600HOH      O 2004   3.077   3.878   2.150
  600HOH     H1 2005   3.021   3.930   2.208
  600HOH     H2 2006   3.021   3.806   2.121
  601HOH      O 2007   3.915   2.685   1.371
  601HOH     H1 2008   3.939   2.778   1.366
  601HOH     H2 2009   3.906   2.668   1.465
  602HOH      O 2010   2.078   2.550   0.334
  602HOH     H1 2011   2.088   2.546   0.239
  602HOH     H2 2012   2.085   2.459   0.364
  603HOH      O 2013   2.763   1.882   3.101
  603HOH     H1 2014   2.808   1.799   3.085
  603HOH     H2 2015   2.800   1.913   3.184
  604HOH      O 2016   1.377   2.741   3.941
  604HOH     H1 2017   1.433   2.664   3.950
  604HOH     H2 2018   1.316   2.734   4.015
  605HOH      O 2019   2.891   2.128   3.951
  605HOH     H1 2020   2.959   2.110   3.886
  605HOH     H2 2021   2.877   2.223   3.945
  606HOH      O 2022   0.554   1.909   0.874
  606HOH     H1 2023   0.604   1.981   0.837
  606HOH     H2 2024   0.491   1.886   0.806
  607HOH      O 2025   2.974   1.377   0.930
  607HOH     H1 2026   3.006   1.329   1.006
  607HOH     H2 2027   3.048   1.433   0.904
  608HOH      O 2028   0.497   0.686   3.084
  608HOH     H1 2029   0.586   0.715   3.105
  608HOH     H2 2030   0.482   0.714   2.994
  609HOH      O 2031   2.389   3.528   3.842
  609HOH     H1 2032   2.410   3.435   3.832
  609HOH     H2 2033   2.457   3.574   3.792
  610HOH      O 2034   1.216   1.205   1.573
  610HOH     H1 2035   1.204   1.111   1.565
  610HOH     H2 2036   1.159   1.243   1.506
  611HOH      O 2037   0.429   1.263   1.061
  611HOH     H1 2038   0.418   1.224   0.974
  611HOH     H2 2039   0.346   1.245   1.106
  612HOH      O 2040   3.324   1.299   0.824
  612HOH     H1 2041   3.417   1.317   0.834
  612HOH     H2 2042   3.282   1.384   0.838
  613HOH      O 2043   1.907   0.099   3.150
  613HOH     H1 2044   1.868   0.011   3.147
  613HOH     H2 2045   1.908   0.127   3.058
  614HOH      O 2046   0.873   2.259   2.985
  614HOH     H1 2047   0.907   2.205   2.914
  614HOH     H2 2048   0.879   2.348   2.952
  615HOH      O 2049   3.752   1.681   3.199
  615HOH     H1 2050   3.735   1.700   3.291
  615HOH     H2 2051   3.692   1.610   3.178
  616HOH      O 2052   0.467   0.402   1.689
  616HOH     H1 2053   0.488   0.431   1.600
  616HOH     H2 2054   0.394   0.458   1.716
  617HOH      O 2055   2.481   2.329   1.828
  617HOH     H1 2056   2.477   2.355   1.736
  617HOH     H2 2057   2.569   2.294   1.840
  618HOH      O 2058   0.864   1.425   3.735
  618HOH     H1 2059   0.866   1.384   3.648
  618HOH     H2 2060   0.873   1.351   3.795
  619HOH      O 2061   0.927   3.462   0.354
  619HOH     H1 2062   0.836   3.470   0.382
  619HOH     H2 2063   0.950   3.548   0.321
  620HOH      O 2064   3.061   3.416   2.387
  620HOH     H1 2065   2.990   3.353   2.403
  620HOH     H2 2066   3.124   3.367   2.334
  621HOH      O 2067   3.013   3.831   3.271
  621HOH     H1 2068   2.986   3.901   3.331
  621HOH     H2 2069   2.946   3.763   3.281
  622HOH      O 2070   2.897   0.581   2.856
  622HOH     H1 2071   2.966   0.579   2.921
  622HOH     H2 2072   2.845   0.503   2.874
  623HOH      O 2073   1.786   2.550   2.892
  623HOH     H1 2074   1.711   2.571   2.947
  623HOH     H2 2075   1.813   2.633   2.854
  624HOH      O 2076   3.868   3.934   3.964
  624HOH     H1 2077   3.946   3.919   4.018
  624HOH     H2 2078   3.796   3.900   4.016
  625HOH      O 2079   1.186   1.353   1.883
  625HOH     H1 2080   1.176   1.351   1.788
  625HOH     H2 2081   1.191   1.446   1.905
  626HOH      O 2082   1.322   0.061   3.468
  626HOH     H1 2083   1.285  -0.025   3.449
  626HOH     H2 2084   1.253   0.123   3.446
  627HOH      O 2085   2.493   1.556   0.714
  627HOH     H1 2086   2.517   1.465   0.696
  627HOH     H2 2087   2.568   1.592   0.761
  628HOH      O 2088   2.925   1.839   0.219
  628HOH     H1 2089   2.898   1.819   0.130
  628HOH     H2 2090   2.989   1.772   0.241
  629HOH      O 2091   2.376   1.909   3.675
  629HOH     H1 2092   2.458   1.862   3.663
  629HOH     H2 2093   2.323   1.886   3.599
  630HOH      O 2094   4.024   1.727   2.207
  630HOH     H1 2095   3.964   1.653   2.193
  630HOH     H2 2096   4.008   1.785   2.132
  631HOH      O 2097   2.178   0.991   2.824
  631HOH     H1 2098   2.241   0.999   2.752
  631HOH     H2 2099   2.222   0.934   2.887
  632HOH      O 2100   0.668   1.281   3.270
  632HOH     H1 2101   0.599   1.294   3.335
  632HOH     H2 2102   0.628   1.305   3.187
  633HOH      O 2103   0.212   1.493   3.180
  633HOH     H1 2104   0.239   1.426   3.243
  633HOH     H2 2105   0.218   1.575   3.230
  634HOH      O 2106   1.006   3.388   3.520
  634HOH     H1 2107   0.934   3.403   3.458
  634HOH     H2 2108   0.965   3.339   3.592
  635HOH      O 2109   2.962   2.104   2.494
  635HOH     H1 2110   3.039   2.109   2.438
  635HOH     H2 2111   2.982   2.034   2.556
  636HOH      O 2112   2.624   3.693   1.729
  636HOH     H1 2113   2.629   3.785   1.700
  636HOH     H2 2114   2.691   3.648   1.677
  637HOH      O 2115   2.542   1.043   3.045
  637HOH     H1 2116   2.492   1.096   2.983
  637HOH     H2 2117   2.618   1.013   2.996
  638HOH      O 2118   1.063   3.128   1.425
  638HOH     H1 2119   1.129   3.087   1.480
  638HOH     H2 2120   1.105   3.208   1.393
  639HOH      O 2121   2.646   1.820   3.686
  639HOH     H1 2122   2.650   1.867   3.769
  639HOH     H2 2123   2.699   1.873   3.626
  640HOH      O 2124   4.013   1.608   3.323
  640HOH     H1 2125   3.939   1.587   3.267
  640HOH     H2 2126   4.039   1.524   3.361
  641HOH      O 2127   3.003   2.151   1.586
  641HOH     H1 2128   2.957   2.086   1.639
  641HOH     H2 2129   3.084   2.169   1.634
  642HOH      O 2130   2.136   1.914   2.488
  642HOH     H1 2131   2.047   1.943   2.509
  642HOH     H2 2132   2.180   1.906   2.573
  643HOH      O 2133   1.264   1.056   3.218
  643HOH     H1 2134   1.323   1.057   3.142
  643HOH     H2 2135   1.218   0.972   3.211
  644HOH      O 2136   1.972   3.297   3.614
  644HOH     H1 2137   1.951   3.255   3.697
  644HOH     H2 2138   2.064   3.275   3.598
  645HOH      O 2139   3.463   1.712   1.119
  645HOH     H1 2140   3.404   1.717   1.194
  645HOH     H2 2141   3.472   1.803   1.089
  646HOH      O 2142   1.570   0.424   0.755
  646HOH     H1 2143   1.595   0.368   0.829
  646HOH     H2 2144   1.520   0.366   0.697
  647HOH      O 2145   1.286   1.389   2.781
  647HOH     H1 2146   1.198   1.388   2.745
  647HOH     H2 2147   1.343   1.371   2.706
  648HOH      O 2148   2.929   0.501   0.994
  648HOH     H1 2149   2.973   0.575   0.952
  648HOH     H2 2150   2.917   0.528   1.085
  649HOH      O 2151   3.748   1.532   1.882
  649HOH     H1 2152   3.703   1.592   1.942
  649HOH     H2 2153   3.684   1.514   1.813
  650HOH      O 2154   3.894   3.496   0.379
  650HOH     H1 2155   3.913   3.438   0.452
  650HOH     H2 2156   3.972   3.491   0.323
  651HOH      O 2157   2.396   0.110   3.751
  651HOH     H1 2158   2.384   0.145   3.840
  651HOH     H2 2159   2.393   0.015   3.763
  652HOH      O 2160   0.116   1.267   1.693
  652HOH     H1 2161   0.057   1.240   1.763
  652HOH     H2 2162   0.188   1.311   1.737
  653HOH      O 2163   3.084   0.141   1.041
  653HOH     H1 2164   3.118   0.218   0.995
  653HOH     H2 2165   3.066   0.172   1.130
  654HOH      O 2166   0.621   3.683   1.525
  654HOH     H1 2167   0.621   3.612   1.590
  654HOH     H2 2168   0.533   3.680   1.488
  655HOH      O 2169   3.955   0.263   3.353
  655HOH     H1 2170   4.025   0.296   3.298
  655HOH     H2 2171   3.957   0.319   3.430
  656HOH      O 2172   0.447   0.966   2.554
  656HOH     H1 2173   0.399   0.991   2.475
  656HOH     H2 2174   0.400   0.891   2.588
  657HOH      O 2175   1.812   1.111   0.683
  657HOH     H1 2176   1.823   1.190   0.735
  657HOH     H2 2177   1.834   1.137   0.594
  658HOH      O 2178   0.831   2.981   0.961
  658HOH     H1 2179   0.743   3.015   0.975
  658HOH     H2 2180   0.876   2.994   1.045
  659HOH      O 2181   2.935   3.959   1.150
  659HOH     H1 2182   2.972   4.037   1.108
  659HOH     H2 2183   2.843   3.958   1.121
  660HOH      O 2184   2.519   2.952   3.271
  660HOH     H1 2185   2.519   2.966   3.176
  660HOH     H2 2186   2.535   2.859   3.282
  661HOH      O 2187   1.959   3.668   0.769
  661HOH     H1 2188   1.923   3.626   0.847
  661HOH     H2 2189   1.974   3.596   0.708
  662HOH      O 2190   2.280   3.318   2.518
  662HOH     H1 2191   2.360   3.314   2.570
  662HOH     H2 2192   2.281   3.237   2.466
  663HOH      O 2193   3.971   3.369   1.003
  663HOH     H1 2194   3.881   3.368   0.970
  663HOH     H2 2195   3.974   3.295   1.065
  664HOH      O 2196   2.984   2.296   0.631
  664HOH     H1 2197   2.988   2.251   0.547
  664HOH     H2 2198   3.052   2.362   0.626
  665HOH      O 2199   2.263   2.710   2.447
  665HOH     H1 2200   2.171   2.686   2.439
  665HOH     H2 2201   2.284   2.752   2.364
  666HOH      O 2202   1.829   0.095   3.501
  666HOH     H1 2203   1.884   0.020   3.480
  666HOH     H2 2204   1.870   0.134   3.578
  667HOH      O 2205   1.520   2.760   0.887
  667HOH     H1 2206   1.492   2.852   0.890
  667HOH     H2 2207   1.529   2.735   0.979
  668HOH      O 2208   3.587   1.465   3.158
  668HOH     H1 2209   3.562   1.421   3.077
  668HOH     H2 2210   3.514   1.451   3.218
  669HOH      O 2211   1.308   1.599   1.674
  669HOH     H1 2212   1.376   1.607   1.740
  669HOH     H2 2213   1.228   1.630   1.717
  670HOH      O 2214   1.932   2.790   1.142
  670HOH     H1 2215   1.945   2.778   1.048
  670HOH     H2 2216   1.979   2.871   1.163
  671HOH      O 2217   1.932   0.959   1.952
  671HOH     H1 2218   1.897   0.940   1.865
  671HOH     H2 2219   1.857   0.993   2.001
  672HOH      O 2220   1.420   0.205   0.648
  672HOH     H1 2221   1.476   0.164   0.582
  672HOH     H2 2222   1.359   0.135   0.674
  673HOH      O 2223   3.898   2.663   1.640
  673HOH     H1 2224   3.902   2.573   1.672
  673HOH     H2 2225   3.868   2.714   1.715
  674HOH      O 2226   2.052   0.680   2.930
  674HOH     H1 2227   2.141   0.678   2.966
  674HOH     H2 2228   2.047   0.763   2.883
  675HOH      O 2229   3.368   2.487   1.822
  675HOH     H1 2230   3.289   2.448   1.859
  675HOH     H2 2231   3.343   2.577   1.802
  676HOH      O 2232   3.439   0.733   0.685
  676HOH     H1 2233   3.509   0.734   0.750
  676HOH     H2 2234   3.478   0.772   0.607
  677HOH      O 2235   1.651   2.066   2.294
  677HOH     H1 2236   1.703   2.132   2.339
  677HOH     H2 2237   1.571   2.059   2.345
  678HOH      O 2238   3.306   1.195   1.799
  678HOH     H1 2239   3.336   1.256   1.732
  678HOH     H2 2240   3.330   1.236   1.882
  679HOH      O 2241   2.758   1.395   0.303
  679HOH     H1 2242   2.740   1.462   0.368
  679HOH     H2 2243   2.773   1.443   0.222
  680HOH      O 2244   0.247   3.667   0.860
  680HOH     H1 2245   0.233   3.574   0.881
  680HOH     H2 2246   0.248   3.710   0.945
  681HOH      O 2247   0.423   3.180   1.295
  681HOH     H1 2248   0.475   3.126   1.235
  681HOH     H2 2249   0.393   3.118   1.362
  682HOH      O 2250   2.754   2.331   1.751
  682HOH     H1 2251   2.699   2.298   1.680
  682HOH     H2 2252   2.819   2.386   1.708
  683HOH      O 2253   0.651   0.905   1.382
  683HOH     H1 2254   0.686   0.866   1.302
  683HOH     H2 2255   0.617   0.990   1.355
  684HOH      O 2256   0.924   1.853   3.749
  684HOH     H1 2257   0.897   1.892   3.666
  684HOH     H2 2258   0.879   1.768   3.751
  685HOH      O 2259   2.343   3.061   2.997
  685HOH     H1 2260   2.424   3.029   2.958
  685HOH     H2 2261   2.368   3.143   3.040
  686HOH      O 2262   1.785   0.065   2.419
  686HOH     H1 2263   1.762   0.041   2.508
  686HOH     H2 2264   1.867   0.114   2.427
  687HOH      O 2265   1.529   2.283   2.623
  687HOH     H1 2266   1.541   2.216   2.690
  687HOH     H2 2267   1.452   2.253   2.573
  688HOH      O 2268   0.485   0.511   0.601
  688HOH     H1 2269   0.547   0.493   0.531
  688HOH     H2 2270   0.531   0.571   0.660
  689HOH      O 2271   2.198   3.662   3.992
  689HOH     H1 2272   2.112   3.676   3.952
  689HOH     H2 2273   2.246   3.609   3.928
  690HOH      O 2274   0.458   1.436   3.865
  690HOH     H1 2275   0.429   1.499   3.931
  690HOH     H2 2276   0.481   1.358   3.915
  691HOH      O 2277   2.361   2.802   0.017
  691HOH     H1 2278   2.409   2.730   0.059
  691HOH     H2 2279   2.276   2.764  -0.005
  692HOH      O 2280   2.553   1.392   1.903
  692HOH     H1 2281   2.463   1.380   1.874
  692HOH     H2 2282   2.607   1.353   1.834
  693HOH      O 2283   2.923   0.698   1.575
  693HOH     H1 2284   2.968   0.768   1.527
  693HOH     H2 2285   2.991   0.634   1.594
  694HOH      O 2286   3.382   3.386   3.924
  694HOH     H1 2287   3.293   3.422   3.925
  694HOH     H2 2288   3.422   3.424   3.845
  695HOH      O 2289   3.780   1.210   2.777
  695HOH     H1 2290   3.833   1.282   2.811
  695HOH     H2 2291   3.690   1.238   2.793
  696HOH      O 2292   1.193   2.665   3.572
  696HOH     H1 2293   1.206   2.748   3.620
  696HOH     H2 2294   1.112   2.679   3.522
  697HOH      O 2295   1.447   0.579   0.383
  697HOH     H1 2296   1.460   0.646   0.451
  697HOH     H2 2297   1.385   0.619   0.322
  698HOH      O 2298   3.572   2.204   0.652
  698HOH     H1 2299   3.622   2.142   0.705
  698HOH     H2 2300   3.586   2.289   0.695
  699HOH      O 2301   1.030   1.519   0.420
  699HOH     H1 2302   1.006   1.608   0.393
  699HOH     H2 2303   0.992   1.463   0.352
  700HOH      O 2304   1.713   2.690   0.375
  700HOH     H1 2305   1.675   2.714   0.291
  700HOH     H2 2306   1.663   2.740   0.439
  701HOH      O 2307   1.996   3.508   3.357
  701HOH     H1 2308   2.059   3.467   3.417
  701HOH     H2 2309   2.050   3.541   3.285
  702HOH      O 2310   1.124   0.289   3.414
  702HOH     H1 2311   1.135   0.336   3.496
  702HOH     H2 2312   1.032   0.301   3.391
  703HOH      O 2313   1.216   3.252   2.711
  703HOH     H1 2314   1.259   3.167   2.704
  703HOH     H2 2315   1.144   3.248   2.648
  704HOH      O 2316   1.069   1.572   2.740
  704HOH     H1 2317   1.091   1.632   2.669
  704HOH     H2 2318   1.070   1.628   2.819
  705HOH      O 2319   1.629   0.821   3.748
  705HOH     H1 2320   1.694   0.885   3.776
  705HOH     H2 2321   1.545   0.868   3.753
  706HOH      O 2322   0.679   2.568   0.060
  706HOH     H1 2323   0.671   2.582  -0.035
  706HOH     H2 2324   0.685   2.473   0.069
  707HOH      O 2325   4.037   2.820   3.201
  707HOH     H1 2326   4.021   2.814   3.107
  707HOH     H2 2327   4.054   2.730   3.229
  708HOH      O 2328   0.645   3.655   0.842
  708HOH     H1 2329   0.623   3.647   0.935
  708HOH     H2 2330   0.714   3.720   0.839
  709HOH      O 2331   2.818   3.727   3.755
  709HOH     H1 2332   2.769   3.794   3.802
  709HOH     H2 2333   2.903   3.768   3.735
  710HOH      O 2334   2.655   2.774   3.738
  710HOH     H1 2335   2.592   2.832   3.696
  710HOH     H2 2336   2.724   2.761   3.673
  711HOH      O 2337   2.949   3.068   0.277
  711HOH     H1 2338   2.924   2.977   0.258
  711HOH     H2 2339   2.871   3.106   0.316
  712HOH      O 2340   3.221   0.708   2.399
  712HOH     H1 2341   3.245   0.724   2.308
  712HOH     H2 2342   3.165   0.782   2.423
  713HOH      O 2343   3.240   3.407   0.623
  713HOH     H1 2344   3.284   3.404   0.537
  713HOH     H2 2345   3.171   3.472   0.612
  714HOH      O 2346   2.828   2.219   0.180
  714HOH     H1 2347   2.899   2.203   0.242
  714HOH     H2 2348   2.858   2.180   0.098
  715HOH      O 2349   1.478   3.739   2.603
  715HOH     H1 2350   1.542   3.717   2.535
  715HOH     H2 2351   1.486   3.667   2.666
  716HOH      O 2352   2.812   0.825   2.208
  716HOH     H1 2353   2.737   0.776   2.242
  716HOH     H2 2354   2.776   0.911   2.187
  717HOH      O 2355   3.646   3.967   2.727
  717HOH     H1 2356   3.609   3.884   2.756
  717HOH     H2 2357   3.635   3.967   2.632
  718HOH      O 2358   1.597   2.806   0.592
  718HOH     H1 2359   1.545   2.733   0.625
  718HOH     H2 2360   1.621   2.856   0.670
  719HOH      O 2361   2.082   3.256   1.064
  719HOH     H1 2362   2.031   3.222   1.138
  719HOH     H2 2363   2.020   3.258   0.992
  720HOH      O 2364   3.873   0.977   0.964
  720HOH     H1 2365   3.933   0.904   0.977
  720HOH     H2 2366   3.888   1.034   1.039
  721HOH      O 2367   1.717   0.790   2.651
  721HOH     H1 2368   1.709   0.880   2.682
  721HOH     H2 2369   1.703   0.796   2.556
  722HOH      O 2370   3.296   0.544   3.222
  722HOH     H1 2371   3.253   0.627   3.241
  722HOH     H2 2372   3.224   0.480   3.224
  723HOH      O 2373   3.311   1.742   1.594
  723HOH     H1 2374   3.400   1.766   1.568
  723HOH     H2 2375   3.264   1.825   1.595
  724HOH      O 2376   0.665   0.580   0.793
  724HOH     H1 2377   0.694   0.665   0.826
  724HOH     H2 2378   0.745   0.529   0.782
  725HOH      O 2379   2.947   1.831   2.652
  725HOH     H1 2380   2.961   1.746   2.609
  725HOH     H2 2381   2.867   1.819   2.702
  726HOH      O 2382   1.179   0.613   0.808
  726HOH     H1 2383   1.237   0.688   0.822
  726HOH     H2 2384   1.221   0.541   0.855
  727HOH      O 2385   3.495   3.607   1.839
  727HOH     H1 2386   3.579   3.562   1.835
  727HOH     H2 2387   3.500   3.660   1.919
  728HOH      O 2388   3.333   3.903   2.389
  728HOH     H1 2389   3.372   3.927   2.472
  728HOH     H2 2390   3.244   3.876   2.411
  729HOH      O 2391   0.349   1.034   2.309
  729HOH     H1 2392   0.273   1.080   2.345
  729HOH     H2 2393   0.343   1.046   2.215
  730HOH      O 2394   0.354   0.875   0.072
  730HOH     H1 2395   0.425   0.879   0.136
  730HOH     H2 2396   0.300   0.951   0.091
  731HOH      O 2397   0.523   2.219   0.213
  731HOH     H1 2398   0.503   2.312   0.206
  731HOH     H2 2399   0.618   2.214   0.204
  732HOH      O 2400   0.366   2.314   3.788
  732HOH     H1 2401   0.390   2.243   3.847
  732HOH     H2 2402   0.278   2.291   3.758
  733HOH      O 2403   2.630   3.433   3.472
  733HOH     H1 2404   2.575   3.367   3.515
  733HOH     H2 2405   2.577   3.463   3.398
  734HOH      O 2406   0.141   2.187   0.139
  734HOH     H1 2407   0.135   2.144   0.224
  734HOH     H2 2408   0.155   2.280   0.161
  735HOH      O 2409   1.386   2.833   1.666
  735HOH     H1 2410   1.377   2.748   1.623
  735HOH     H2 2411   1.432   2.813   1.748
  736HOH      O 2412   3.068   3.743   1.046
  736HOH     H1 2413   3.025   3.828   1.058
  736HOH     H2 2414   3.160   3.760   1.063
  737HOH      O 2415   1.252   2.553   0.786
  737HOH     H1 2416   1.217   2.642   0.780
  737HOH     H2 2417   1.321   2.550   0.720
  738HOH      O 2418   1.710   0.456   2.516
  738HOH     H1 2419   1.750   0.469   2.602
  738HOH     H2 2420   1.640   0.521   2.512
  739HOH      O 2421   1.455   3.742   3.112
  739HOH     H1 2422   1.428   3.660   3.153
  739HOH     H2 2423   1.531   3.719   3.060
  740HOH      O 2424   2.279   1.728   0.592
  740HOH     H1 2425   2.213   1.716   0.661
  740HOH     H2 2426   2.360   1.696   0.631
  741HOH      O 2427   0.561   3.951   2.638
  741HOH     H1 2428   0.590   3.996   2.717
  741HOH     H2 2429   0.641   3.942   2.585
  742HOH      O 2430   2.581   3.620   3.673
  742HOH     H1 2431   2.607   3.549   3.615
  742HOH     H2 2432   2.663   3.654   3.708
  743HOH      O 2433   3.771   1.697   3.463
  743HOH     H1 2434   3.779   1.609   3.499
  743HOH     H2 2435   3.861   1.730   3.459
  744HOH      O 2436   2.172   2.465   0.620
  744HOH     H1 2437   2.115   2.506   0.555
  744HOH     H2 2438   2.149   2.372   0.616
  745HOH      O 2439   1.493   1.640   0.249
  745HOH     H1 2440   1.435   1.631   0.324
  745HOH     H2 2441   1.520   1.732   0.250
  746HOH      O 2442   3.255   2.922   0.634
  746HOH     H1 2443   3.323   2.979   0.598
  746HOH     H2 2444   3.174   2.972   0.624
  747HOH      O 2445   4.022   0.903   1.796
  747HOH     H1 2446   3.969   0.943   1.865
  747HOH     H2 2447   4.038   0.814   1.827
  748HOH      O 2448   2.082   3.345   1.943
  748HOH     H1 2449   2.171   3.377   1.956
  748HOH     H2 2450   2.027   3.402   1.998
  749HOH      O 2451   3.643   0.002   3.516
  749HOH     H1 2452   3.653   0.080   3.461
  749HOH     H2 2453   3.706   0.013   3.586
  750HOH      O 2454   1.914   3.290   1.717
  750HOH     H1 2455   1.876   3.370   1.681
  750HOH     H2 2456   1.967   3.319   1.790
  751HOH      O 2457   0.470   2.807   1.264
  751HOH     H1 2458   0.405   2.753   1.219
  751HOH     H2 2459   0.553   2.781   1.224
  752HOH      O 2460   1.063   0.192   2.439
  752HOH     H1 2461   1.077   0.195   2.345
  752HOH     H2 2462   1.082   0.281   2.469
  753HOH      O 2463   3.889   0.399   1.510
  753HOH     H1 2464   3.878   0.382   1.604
  753HOH     H2 2465   3.810   0.447   1.485
  754HOH      O 2466   1.604   3.464   2.374
  754HOH     H1 2467   1.644   3.520   2.307
  754HOH     H2 2468   1.666   3.466   2.447
  755HOH      O 2469   2.615   3.649   0.495
  755HOH     H1 2470   2.683   3.585   0.514
  755HOH     H2 2471   2.536   3.597   0.481
  756HOH      O 2472   1.740   0.049   1.880
  756HOH     H1 2473   1.689  -0.029   1.904
  756HOH     H2 2474   1.729   0.108   1.955
  757HOH      O 2475   0.499   0.501   2.426
  757HOH     H1 2476   0.590   0.515   2.400
  757HOH     H2 2477   0.503   0.483   2.520
  758HOH      O 2478   4.051   0.442   1.916
  758HOH     H1 2479   4.031   0.398   1.998
  758HOH     H2 2480   4.041   0.535   1.935
  759HOH      O 2481   3.897   3.860   0.788
  759HOH     H1 2482   3.986   3.894   0.773
  759HOH     H2 2483   3.903   3.768   0.764
  760HOH      O 2484   2.678   3.660   2.564
  760HOH     H1 2485   2.737   3.597   2.605
  760HOH     H2 2486   2.734   3.716   2.511
  761HOH      O 2487   3.439   1.339   3.784
  761HOH     H1 2488   3.518   1.392   3.797
  761HOH     H2 2489   3.472   1.254   3.756
  762HOH      O 2490   2.248   0.159   0.720
  762HOH     H1 2491   2.307   0.200   0.783
  762HOH     H2 2492   2.161   0.171   0.758
  763HOH      O 2493   3.029   3.458   2.115
  763HOH     H1 2494   3.117   3.421   2.104
  763HOH     H2 2495   3.019   3.466   2.210
  764HOH      O 2496   2.755   1.593   0.096
  764HOH     H1 2497   2.809   1.619   0.022
  764HOH     H2 2498   2.669   1.574   0.059
  765HOH      O 2499   0.898   1.169   0.305
  765HOH     H1 2500   0.955   1.118   0.248
  765HOH     H2 2501   0.947   1.178   0.387
  766HOH      O 2502   0.193   1.320   0.408
  766HOH     H1 2503   0.187   1.302   0.314
  766HOH     H2 2504   0.187   1.416   0.414
  767HOH      O 2505   3.174   2.808   1.549
  767HOH     H1 2506   3.176   2.833   1.457
  767HOH     H2 2507   3.152   2.715   1.548
  768HOH      O 2508   0.184   1.187   1.166
  768HOH     H1 2509   0.096   1.187   1.128
  768HOH     H2 2510   0.171   1.211   1.258
  769HOH      O 2511   3.766   0.606   0.278
  769HOH     H1 2512   3.824   0.683   0.281
  769HOH     H2 2513   3.679   0.642   0.260
  770HOH      O 2514   2.020   0.965   2.550
  770HOH     H1 2515   1.951   1.017   2.591
  770HOH     H2 2516   2.022   0.883   2.600
  771HOH      O 2517   1.858   2.491   3.469
  771HOH     H1 2518   1.918   2.563   3.485
  771HOH     H2 2519   1.903   2.436   3.405
  772HOH      O 2520   2.508   3.130   3.857
  772HOH     H1 2521   2.496   3.119   3.951
  772HOH     H2 2522   2.507   3.041   3.822
  773HOH      O 2523   2.789   0.305   2.658
  773HOH     H1 2524   2.720   0.366   2.631
  773HOH     H2 2525   2.795   0.316   2.753
  774HOH      O 2526   1.922   1.980   1.239
  774HOH     H1 2527   1.948   1.910   1.299
  774HOH     H2 2528   1.849   1.943   1.189
  775HOH      O 2529   1.982   0.250   3.692
  775HOH     H1 2530   1.986   0.319   3.758
  775HOH     H2 2531   2.015   0.290   3.612
  776HOH      O 2532   3.314   3.727   2.123
  776HOH     H1 2533   3.237   3.766   2.166
  776HOH     H2 2534   3.386   3.744   2.183
  777HOH      O 2535   4.001   1.580   1.831
  777HOH     H1 2536   3.907   1.593   1.820
  777HOH     H2 2537   4.012   1.485   1.832
  778HOH      O 2538   2.332   3.542   3.496
  778HOH     H1 2539   2.343   3.546   3.401
  778HOH     H2 2540   2.360   3.454   3.520
  779HOH      O 2541   2.487   1.726   1.689
  779HOH     H1 2542   2.495   1.737   1.784
  779HOH     H2 2543   2.567   1.679   1.663
  780HOH      O 2544   3.508   0.217   2.691
  780HOH     H1 2545   3.581   0.156   2.686
  780HOH     H2 2546   3.500   0.250   2.601
  781HOH      O 2547   3.275   0.986   1.965
  781HOH     H1 2548   3.289   1.064   2.019
  781HOH     H2 2549   3.264   1.020   1.876
  782HOH      O 2550   1.595   2.039   1.426
  782HOH     H1 2551   1.571   2.030   1.334
  782HOH     H2 2552   1.599   1.950   1.459
  783HOH      O 2553   1.615   2.977   1.107
  783HOH     H1 2554   1.699   2.997   1.148
  783HOH     H2 2555   1.557   3.048   1.135
  784HOH      O 2556   3.011   0.870   0.514
  784HOH     H1 2557   2.977   0.788   0.477
  784HOH     H2 2558   2.952   0.890   0.587
  785HOH      O 2559   2.017   2.929   2.429
  785HOH     H1 2560   1.966   2.981   2.491
  785HOH     H2 2561   2.000   2.970   2.344
  786HOH      O 2562   1.309   1.415   1.227
  786HOH     H1 2563   1.398   1.401   1.195
  786HOH     H2 2564   1.321   1.463   1.310
  787HOH      O 2565   1.653   1.312   3.174
  787HOH     H1 2566   1.635   1.259   3.252
  787HOH     H2 2567   1.567   1.325   3.133
  788HOH      O 2568   2.122   2.577   1.109
  788HOH     H1 2569   2.122   2.532   1.193
  788HOH     H2 2570   2.049   2.639   1.115
  789HOH      O 2571   0.890   3.879   2.687
  789HOH     H1 2572   0.876   3.927   2.769
  789HOH     H2 2573   0.952   3.933   2.638
  790HOH      O 2574   3.122   0.510   3.874
  790HOH     H1 2575   3.166   0.562   3.942
  790HOH     H2 2576   3.050   0.565   3.845
  791HOH      O 2577   3.579   1.510   0.304
  791HOH     H1 2578   3.528   1.592   0.306
  791HOH     H2 2579   3.612   1.506   0.214
  792HOH      O 2580   0.865   3.674   1.759
  792HOH     H1 2581   0.922   3.650   1.833
  792HOH     H2 2582   0.808   3.742   1.794
  793HOH      O 2583   2.190   3.727   0.516
  793HOH     H1 2584   2.238   3.758   0.593
  793HOH     H2 2585   2.167   3.807   0.468
  794HOH      O 2586   1.462   3.272   0.014
  794HOH     H1 2587   1.495   3.338   0.075
  794HOH     H2 2588   1.539   3.218  -0.006
  795HOH      O 2589   2.299   0.737   0.498
  795HOH     H1 2590   2.250   0.813   0.530
  795HOH     H2 2591   2.255   0.714   0.416
  796HOH      O 2592   1.803   2.178   1.034
  796HOH     H1 2593   1.822   2.155   1.125
  796HOH     H2 2594   1.763   2.265   1.039
  797HOH      O 2595   0.155   3.136   0.624
  797HOH     H1 2596   0.190   3.064   0.571
  797HOH     H2 2597   0.230   3.196   0.634
  798HOH      O 2598   3.803   1.551   2.463
  798HOH     H1 2599   3.797   1.595   2.378
  798HOH     H2 2600   3.897   1.539   2.477
  799HOH      O 2601   1.176   2.263   3.929
  799HOH     H1 2602   1.084   2.250   3.949
  799HOH     H2 2603   1.177   2.310   3.846
  800HOH      O 2604   1.862   1.756   0.911
  800HOH     H1 2605   1.778   1.727   0.947
  800HOH     H2 2606   1.845   1.845   0.879
  801HOH      O 2607   2.195   0.603   3.644
  801HOH     H1 2608   2.140   0.674   3.679
  801HOH     H2 2609   2.133   0.547   3.596
  802HOH      O 2610   3.444   1.756   3.066
  802HOH     H1 2611   3.492   1.701   3.004
  802HOH     H2 2612   3.464   1.845   3.039
  803HOH      O 2613   1.573   2.553   3.919
  803HOH     H1 2614   1.611   2.559   3.832
  803HOH     H2 2615   1.627   2.488   3.964
  804HOH      O 2616   2.131   2.353   3.543
  804HOH     H1 2617   2.105   2.354   3.451
  804HOH     H2 2618   2.183   2.433   3.554
  805HOH      O 2619   3.548   2.974   1.013
  805HOH     H1 2620   3.601   2.909   1.059
  805HOH     H2 2621   3.611   3.023   0.960
  806HOH      O 2622   3.954   3.833   2.596
  806HOH     H1 2623   3.926   3.898   2.531
  806HOH     H2 2624   4.046   3.817   2.575
  807HOH      O 2625   0.319   1.721   3.324
  807HOH     H1 2626   0.415   1.730   3.320
  807HOH     H2 2627   0.305   1.646   3.382
  808HOH      O 2628   1.024   3.496   0.033
  808HOH     H1 2629   1.041   3.517  -0.059
  808HOH     H2 2630   1.108   3.512   0.077
  809HOH      O 2631   0.206   1.751   1.827
  809HOH     H1 2632   0.158   1.669   1.818
  809HOH     H2 2633   0.279   1.730   1.886
  810HOH      O 2634   3.282   3.393   1.311
  810HOH     H1 2635   3.221   3.392   1.237
  810HOH     H2 2636   3.283   3.484   1.340
  811HOH      O 2637   2.759   3.468   2.989
  811HOH     H1 2638   2.758   3.562   2.971
  811HOH     H2 2639   2.851   3.443   2.984
  812HOH      O 2640   0.057   0.996   0.252
  812HOH     H1 2641   0.013   0.910   0.258
  812HOH     H2 2642   0.131   0.989   0.312
  813HOH      O 2643   1.527   0.552   1.563
  813HOH     H1 2644   1.550   0.599   1.483
  813HOH     H2 2645   1.469   0.611   1.610
  814HOH      O 2646   0.169   3.901   0.753
  814HOH     H1 2647   0.209   3.903   0.666
  814HOH     H2 2648   0.198   3.818   0.791
  815HOH      O 2649   3.432   0.315   2.441
  815HOH     H1 2650   3.475   0.298   2.357
  815HOH     H2 2651   3.446   0.408   2.456
  816HOH      O 2652   0.937   1.821   2.080
  816HOH     H1 2653   0.927   1.859   1.993
  816HOH     H2 2654   0.849   1.820   2.116
  817HOH      O 2655   0.100   1.069   2.444
  817HOH     H1 2656   0.029   1.098   2.501
  817HOH     H2 2657   0.094   0.973   2.445
  818HOH      O 2658   3.461   1.994   1.075
  818HOH     H1 2659   3.452   2.036   1.161
  818HOH     H2 2660   3.371   1.981   1.045
  819HOH      O 2661   1.314   0.718   0.176
  819HOH     H1 2662   1.375   0.792   0.177
  819HOH     H2 2663   1.318   0.686   0.086
  820HOH      O 2664   0.124  -0.020   3.182
  820HOH     H1 2665   0.151   0.054   3.128
  820HOH     H2 2666   0.190  -0.024   3.251
  821HOH      O 2667   1.533   3.458   1.081
  821HOH     H1 2668   1.438   3.454   1.083
  821HOH     H2 2669   1.561   3.431   1.168
  822HOH      O 2670   3.425   1.521   2.329
  822HOH     H1 2671   3.399   1.588   2.266
  822HOH     H2 2672   3.342   1.490   2.367
  823HOH      O 2673   2.428   1.405   3.269
  823HOH     H1 2674   2.422   1.331   3.329
  823HOH     H2 2675   2.475   1.370   3.193
  824HOH      O 2676   3.293   2.349   3.380
  824HOH     H1 2677   3.230   2.339   3.451
  824HOH     H2 2678   3.258   2.419   3.326
  825HOH      O 2679   2.447   3.837   3.718
  825HOH     H1 2680   2.518   3.859   3.779
  825HOH     H2 2681   2.468   3.748   3.689
  826HOH      O 2682   3.069   3.144   1.142
  826HOH     H1 2683   3.138   3.164   1.079
  826HOH     H2 2684   2.988   3.156   1.094
  827HOH      O 2685   3.924   3.142   3.546
  827HOH     H1 2686   3.982   3.074   3.581
  827HOH     H2 2687   3.836   3.106   3.556
  828HOH      O 2688   0.847   3.183   2.357
  828HOH     H1 2689   0.756   3.178   2.386
  828HOH     H2 2690   0.861   3.102   2.307
  829HOH      O 2691   3.843   2.853   1.863
  829HOH     H1 2692   3.892   2.871   1.944
  829HOH     H2 2693   3.833   2.939   1.822
  830HOH      O 2694   2.838   2.386   3.917
  830HOH     H1 2695   2.907   2.451   3.926
  830HOH     H2 2696   2.765   2.421   3.969
  831HOH      O 2697   2.865   3.605   1.590
  831HOH     H1 2698   2.873   3.512   1.571
  831HOH     H2 2699   2.884   3.649   1.507
  832HOH      O 2700   2.054   0.462   3.461
  832HOH     H1 2701   1.974   0.477   3.411
  832HOH     H2 2702   2.103   0.397   3.410
  833HOH      O 2703   1.215   4.031   0.687
  833HOH     H1 2704   1.196   3.948   0.644
  833HOH     H2 2705   1.220   4.009   0.780
  834HOH      O 2706   0.070   0.707   1.954
  834HOH     H1 2707   0.039   0.710   2.045
  834HOH     H2 2708   0.165   0.696   1.962
  835HOH      O 2709   2.040   0.717   2.138
  835HOH     H1 2710   2.030   0.657   2.065
  835HOH     H2 2711   2.123   0.762   2.122
  836HOH      O 2712   4.029   3.080   2.820
  836HOH     H1 2713   4.068   3.138   2.886
  836HOH     H2 2714   3.941   3.115   2.807
  837HOH      O 2715   2.234   2.101   1.862
  837HOH     H1 2716   2.278   2.110   1.778
  837HOH     H2 2717   2.159   2.161   1.857
  838HOH      O 2718   0.546   0.031   0.635
  838HOH     H1 2719   0.595   0.032   0.553
  838HOH     H2 2720   0.461   0.068   0.613
  839HOH      O 2721   1.754   1.558   2.721
  839HOH     H1 2722   1.801   1.495   2.775
  839HOH     H2 2723   1.688   1.505   2.674
  840HOH      O 2724   1.905   0.549   1.416
  840HOH     H1 2725   1.922   0.456   1.432
  840HOH     H2 2726   1.917   0.560   1.321
  841HOH      O 2727   1.734   1.501   3.906
  841HOH     H1 2728   1.825   1.500   3.879
  841HOH     H2 2729   1.718   1.592   3.933
  842HOH      O 2730   2.976   1.379   1.228
  842HOH     H1 2731   2.952   1.471   1.214
  842HOH     H2 2732   3.058   1.383   1.277
  843HOH      O 2733   1.345   0.851   2.746
  843HOH     H1 2734   1.364   0.763   2.779
  843HOH     H2 2735   1.255   0.846   2.715
  844HOH      O 2736   0.359   3.151   1.912
  844HOH     H1 2737   0.362   3.083   1.845
  844HOH     H2 2738   0.299   3.217   1.876
  845HOH      O 2739   1.296   3.423   0.569
  845HOH     H1 2740   1.322   3.350   0.514
  845HOH     H2 2741   1.205   3.404   0.593
  846HOH      O 2742   2.400   2.633   1.203
  846HOH     H1 2743   2.316   2.593   1.182
  846HOH     H2 2744   2.417   2.693   1.130
  847HOH      O 2745   3.646   2.240   2.979
  847HOH     H1 2746   3.710   2.308   3.003
  847HOH     H2 2747   3.615   2.266   2.893
  848HOH      O 2748   0.376   1.249   3.400
  848HOH     H1 2749   0.314   1.181   3.375
  848HOH     H2 2750   0.434   1.207   3.463
  849HOH      O 2751   3.030   0.001   3.483
  849HOH     H1 2752   3.022   0.068   3.550
  849HOH     H2 2753   3.120   0.008   3.452
  850HOH      O 2754   2.454   3.026   0.304
  850HOH     H1 2755   2.498   2.941   0.304
  850HOH     H2 2756   2.374   3.010   0.355
  851HOH      O 2757   3.585   1.046   1.014
  851HOH     H1 2758   3.561   0.961   1.051
  851HOH     H2 2759   3.681   1.047   1.015
  852HOH      O 2760   1.206   3.035   1.639
  852HOH     H1 2761   1.147   3.014   1.712
  852HOH     H2 2762   1.282   2.979   1.653
  853HOH      O 2763   2.409   2.552   0.088
  853HOH     H1 2764   2.422   2.461   0.118
  853HOH     H2 2765   2.484   2.568   0.031
  854HOH      O 2766   1.870   3.046   2.673
  854HOH     H1 2767   1.816   3.119   2.703
  854HOH     H2 2768   1.944   3.044   2.733
  855HOH      O 2769   3.973   2.061   2.747
  855HOH     H1 2770   4.044   2.123   2.764
  855HOH     H2 2771   3.895   2.103   2.783
  856HOH      O 2772   3.190   0.254   2.564
  856HOH     H1 2773   3.212   0.242   2.657
  856HOH     H2 2774   3.272   0.284   2.524
  857HOH      O 2775   0.784   1.137   0.902
  857HOH     H1 2776   0.708   1.079   0.911
  857HOH     H2 2777   0.859   1.083   0.928
  858HOH      O 2778   2.785   0.348   0.575
  858HOH     H1 2779   2.841   0.291   0.523
  858HOH     H2 2780   2.800   0.321   0.666
  859HOH      O 2781   0.167   2.864   1.855
  859HOH     H1 2782   0.146   2.921   1.929
  859HOH     H2 2783   0.252   2.896   1.824
  860HOH      O 2784   1.646   0.272   0.987
  860HOH     H1 2785   1.740   0.256   0.996
  860HOH     H2 2786   1.606   0.188   1.007
  861HOH      O 2787   0.184   1.635   2.707
  861HOH     H1 2788   0.176   1.708   2.768
  861HOH     H2 2789   0.126   1.657   2.635
  862HOH      O 2790   1.044   3.610   3.256
  862HOH     H1 2791   1.023   3.678   3.192
  862HOH     H2 2792   0.959   3.576   3.284
  863HOH      O 2793   2.326   0.441   2.575
  863HOH     H1 2794   2.275   0.517   2.547
  863HOH     H2 2795   2.265   0.388   2.625
  864HOH      O 2796   2.387   0.640   4.062
  864HOH     H1 2797   2.292   0.646   4.075
  864HOH     H2 2798   2.397   0.609   3.972
  865HOH      O 2799   1.605   0.793   3.007
  865HOH     H1 2800   1.613   0.836   3.092
  865HOH     H2 2801   1.546   0.719   3.023
  866HOH      O 2802   1.129   2.007   0.596
  866HOH     H1 2803   1.057   1.954   0.563
  866HOH     H2 2804   1.207   1.953   0.582
  867HOH      O 2805   0.109   3.135   0.092
  867HOH     H1 2806   0.050   3.152   0.166
  867HOH     H2 2807   0.171   3.071   0.125
  868HOH      O 2808  -0.003   0.825   1.431
  868HOH     H1 2809  -0.064   0.868   1.492
  868HOH     H2 2810   0.079   0.873   1.442
  869HOH      O 2811   3.472   2.363   0.332
  869HOH     H1 2812   3.524   2.395   0.406
  869HOH     H2 2813   3.492   2.270   0.328
  870HOH      O 2814   1.395   3.027   2.405
  870HOH     H1 2815   1.454   3.098   2.429
  870HOH     H2 2816   1.422   2.953   2.460
  871HOH      O 2817   1.992   3.341   2.814
  871HOH     H1 2818   2.019   3.251   2.834
  871HOH     H2 2819   2.043   3.364   2.737
  872HOH      O 2820   0.829   1.558   0.580
  872HOH     H1 2821   0.912   1.533   0.540
  872HOH     H2 2822   0.809   1.488   0.641
  873HOH      O 2823   3.103   2.569   1.424
  873HOH     H1 2824   3.008   2.582   1.424
  873HOH     H2 2825   3.127   2.565   1.331
  874HOH      O 2826   1.332   0.892   1.441
  874HOH     H1 2827   1.407   0.896   1.382
  874HOH     H2 2828   1.371   0.900   1.529
  875HOH      O 2829   2.105   1.811   2.250
  875HOH     H1 2830   2.138   1.827   2.339
  875HOH     H2 2831   2.086   1.717   2.248
  876HOH      O 2832   1.310   0.141   1.644
  876HOH     H1 2833   1.229   0.182   1.615
  876HOH     H2 2834   1.379   0.183   1.592
  877HOH      O 2835   3.641   1.544   3.812
  877HOH     H1 2836   3.580   1.616   3.793
  877HOH     H2 2837   3.695   1.537   3.733
  878HOH      O 2838   4.039   3.439   2.836
  878HOH     H1 2839   4.026   3.411   2.745
  878HOH     H2 2840   4.024   3.533   2.834
  879HOH      O 2841   0.240   0.952   1.443
  879HOH     H1 2842   0.284   0.895   1.507
  879HOH     H2 2843   0.299   0.953   1.368
  880HOH      O 2844   3.220   1.030   3.527
  880HOH     H1 2845   3.163   0.958   3.499
  880HOH     H2 2846   3.170   1.109   3.508
  881HOH      O 2847   3.013   2.625   3.710
  881HOH     H1 2848   3.077   2.665   3.651
  881HOH     H2 2849   3.055   2.627   3.796
  882HOH      O 2850   3.286   3.050   0.974
  882HOH     H1 2851   3.299   3.093   0.890
  882HOH     H2 2852   3.372   3.013   0.996
  883HOH      O 2853   1.313   2.965   3.202
  883HOH     H1 2854   1.241   2.976   3.140
  883HOH     H2 2855   1.273   2.975   3.288
  884HOH      O 2856   2.382   2.326   2.415
  884HOH     H1 2857   2.361   2.286   2.499
  884HOH     H2 2858   2.307   2.305   2.359
  885HOH      O 2859   2.814   3.622   3.350
  885HOH     H1 2860   2.880   3.554   3.336
  885HOH     H2 2861   2.736   3.574   3.380
  886HOH      O 2862   3.540   1.872   0.519
  886HOH     H1 2863   3.449   1.886   0.494
  886HOH     H2 2864   3.581   1.834   0.442
  887HOH      O 2865   0.837   0.449   3.221
  887HOH     H1 2866   0.851   0.496   3.139
  887HOH     H2 2867   0.747   0.418   3.216
  888HOH      O 2868   3.086   3.742   2.717
  888HOH     H1 2869   3.096   3.734   2.812
  888HOH     H2 2870   3.023   3.813   2.706
  889HOH      O 2871   0.690   3.134   1.316
  889HOH     H1 2872   0.708   3.041   1.300
  889HOH     H2 2873   0.648   3.135   1.402
  890HOH      O 2874   0.280   1.378   2.812
  890HOH     H1 2875   0.251   1.468   2.802
  890HOH     H2 2876   0.336   1.361   2.736
  891HOH      O 2877   0.774   2.005   3.944
  891HOH     H1 2878   0.846   1.956   3.904
  891HOH     H2 2879   0.702   1.995   3.882
  892HOH      O 2880   0.182   3.250   1.172
  892HOH     H1 2881   0.140   3.169   1.203
  892HOH     H2 2882   0.273   3.241   1.202
  893HOH      O 2883   0.833   4.002   2.936
  893HOH     H1 2884   0.884   4.083   2.942
  893HOH     H2 2885   0.742   4.032   2.930
  894HOH      O 2886   1.562   1.074   0.425
  894HOH     H1 2887   1.512   1.127   0.362
  894HOH     H2 2888   1.613   1.138   0.475
  895HOH      O 2889   0.943   3.794   3.077
  895HOH     H1 2890   0.924   3.723   3.016
  895HOH     H2 2891   0.895   3.869   3.042
  896HOH      O 2892   2.628   0.637   2.276
  896HOH     H1 2893   2.702   0.615   2.332
  896HOH     H2 2894   2.570   0.560   2.283
  897HOH      O 2895   2.123   1.945   4.005
  897HOH     H1 2896   2.217   1.952   3.987
  897HOH     H2 2897   2.110   1.854   4.029
  898HOH      O 2898   3.635   0.148   2.290
  898HOH     H1 2899   3.559   0.121   2.237
  898HOH     H2 2900   3.678   0.215   2.237
  899HOH      O 2901   1.690   2.879   2.381
  899HOH     H1 2902   1.657   2.821   2.312
  899HOH     H2 2903   1.735   2.949   2.333
  900HOH      O 2904   0.658  -0.019   3.249
  900HOH     H1 2905   0.667   0.025   3.334
  900HOH     H2 2906   0.662   0.051   3.185
  901HOH      O 2907   3.644   3.808   1.493
  901HOH     H1 2908   3.684   3.722   1.481
  901HOH     H2 2909   3.550   3.793   1.480
  902HOH      O 2910   2.514   0.229   0.845
  902HOH     H1 2911   2.492   0.184   0.764
  902HOH     H2 2912   2.607   0.212   0.858
  903HOH      O 2913   2.602   2.218   3.343
  903HOH     H1 2914   2.563   2.271   3.413
  903HOH     H2 2915   2.683   2.183   3.382
  904HOH      O 2916   0.708   1.581   1.522
  904HOH     H1 2917   0.739   1.668   1.548
  904HOH     H2 2918   0.627   1.598   1.473
  905HOH      O 2919   0.731   0.450   1.040
  905HOH     H1 2920   0.794   0.424   0.973
  905HOH     H2 2921   0.673   0.512   0.996
  906HOH      O 2922   2.011   0.910   3.137
  906HOH     H1 2923   1.953   0.834   3.123
  906HOH     H2 2924   1.957   0.972   3.185
  907HOH      O 2925   3.301   3.540   0.196
  907HOH     H1 2926   3.369   3.570   0.137
  907HOH     H2 2927   3.219   3.573   0.158
  908HOH      O 2928   2.739   2.008   2.370
  908HOH     H1 2929   2.818   2.047   2.407
  908HOH     H2 2930   2.683   1.991   2.446
  909HOH      O 2931   2.545   2.665   3.301
  909HOH     H1 2932   2.615   2.602   3.320
  909HOH     H2 2933   2.489   2.619   3.237
  910HOH      O 2934   3.461   2.168   2.427
  910HOH     H1 2935   3.413   2.226   2.486
  910HOH     H2 2936   3.553   2.178   2.452
  911HOH      O 2937   1.045   1.682   1.771
  911HOH     H1 2938   1.056   1.681   1.867
  911HOH     H2 2939   0.973   1.743   1.756
  912HOH      O 2940   0.633   0.221   3.121
  912HOH     H1 2941   0.642   0.302   3.071
  912HOH     H2 2942   0.538   0.211   3.132
  913HOH      O 2943   3.564   1.616   2.825
  913HOH     H1 2944   3.545   1.565   2.746
  913HOH     H2 2945   3.642   1.667   2.803
  914HOH      O 2946   3.356   2.133   0.511
  914HOH     H1 2947   3.305   2.214   0.519
  914HOH     H2 2948   3.439   2.153   0.554
  915HOH      O 2949   3.711   0.746   3.035
  915HOH     H1 2950   3.666   0.800   3.100
  915HOH     H2 2951   3.793   0.792   3.018
  916HOH      O 2952   3.899   1.190   0.361
  916HOH     H1 2953   3.865   1.179   0.273
  916HOH     H2 2954   3.994   1.186   0.351
  917HOH      O 2955   2.634   1.832   0.740
  917HOH     H1 2956   2.640   1.823   0.835
  917HOH     H2 2957   2.592   1.917   0.726
  918HOH      O 2958   0.907   1.447   1.084
  918HOH     H1 2959   0.861   1.500   1.150
  918HOH     H2 2960   0.861   1.465   1.002
  919HOH      O 2961   3.863   3.553   2.573
  919HOH     H1 2962   3.834   3.632   2.619
  919HOH     H2 2963   3.896   3.584   2.489
  920HOH      O 2964   1.787   1.714   3.047
  920HOH     H1 2965   1.791   1.776   3.120
  920HOH     H2 2966   1.818   1.631   3.084
  921HOH      O 2967   2.431   0.336   0.479
  921HOH     H1 2968   2.401   0.372   0.562
  921HOH     H2 2969   2.505   0.392   0.454
  922HOH      O 2970   1.791   1.429   1.890
  922HOH     H1 2971   1.839   1.369   1.832
  922HOH     H2 2972   1.840   1.511   1.885
  923HOH      O 2973   2.359   1.191   1.053
  923HOH     H1 2974   2.313   1.275   1.053
  923HOH     H2 2975   2.304   1.133   1.106
  924HOH      O 2976   3.316   3.715   3.295
  924HOH     H1 2977   3.390   3.766   3.328
  924HOH     H2 2978   3.241   3.776   3.299
  925HOH      O 2979   0.397   2.460   0.197
  925HOH     H1 2980   0.319   2.505   0.229
  925HOH     H2 2981   0.468   2.496   0.250
  926HOH      O 2982   3.393   1.036   2.292
  926HOH     H1 2983   3.309   1.082   2.284
  926HOH     H2 2984   3.452   1.087   2.236
  927HOH      O 2985   2.571   3.358   1.582
  927HOH     H1 2986   2.661   3.392   1.578
  927HOH     H2 2987   2.571   3.283   1.522
  928HOH      O 2988   0.072   1.402   3.733
  928HOH     H1 2989   0.111   1.456   3.801
  928HOH     H2 2990   0.119   1.319   3.738
  929HOH      O 2991   2.717   0.273   0.227
  929HOH     H1 2992   2.677   0.331   0.292
  929HOH     H2 2993   2.811   0.277   0.247
  930HOH      O 2994   1.215   0.075   1.050
  930HOH     H1 2995   1.150   0.119   0.996
  930HOH     H2 2996   1.189   0.095   1.140
  931HOH      O 2997   3.209   0.541   1.375
  931HOH     H1 2998   3.258   0.609   1.422
  931HOH     H2 2999   3.170   0.488   1.444
  932HOH      O 3000   0.539   3.262   0.326
  932HOH     H1 3001   0.555   3.306   0.243
  932HOH     H2 3002   0.544   3.169   0.305
  933HOH      O 3003   1.286   3.887   0.908
  933HOH     H1 3004   1.238   3.940   0.972
  933HOH     H2 3005   1.241   3.803   0.909
  934HOH      O 3006   3.340   3.340   0.371
  934HOH     H1 3007   3.430   3.323   0.346
  934HOH     H2 3008   3.309   3.404   0.307
  935HOH      O 3009   2.941   1.188   2.173
  935HOH     H1 3010   2.939   1.132   2.096
  935HOH     H2 3011   2.852   1.223   2.179
  936HOH      O 3012   3.339   2.423   1.028
  936HOH     H1 3013   3.401   2.488   0.995
  936HOH     H2 3014   3.329   2.361   0.956
  937HOH      O 3015   2.934   3.965   2.720
  937HOH     H1 3016   2.891   3.998   2.798
  937HOH     H2 3017   2.897   4.016   2.648
  938HOH      O 3018   1.626   3.493   3.924
  938HOH     H1 3019   1.641   3.401   3.944
  938HOH     H2 3020   1.669   3.508   3.840
  939HOH      O 3021   0.520   1.315   3.050
  939HOH     H1 3022   0.588   1.367   3.007
  939HOH     H2 3023   0.439   1.365   3.035
  940HOH      O 3024   2.439   1.164   2.832
  940HOH     H1 3025   2.419   1.116   2.752
  940HOH     H2 3026   2.491   1.239   2.803
  941HOH      O 3027   0.050   0.768   2.392
  941HOH     H1 3028   0.008   0.753   2.476
  941HOH     H2 3029   0.109   0.693   2.381
  942HOH      O 3030   1.350   3.175   3.474
  942HOH     H1 3031   1.297   3.240   3.427
  942HOH     H2 3032   1.433   3.219   3.489
  943HOH      O 3033   1.232   3.824   3.368
  943HOH     H1 3034   1.195   3.885   3.304
  943HOH     H2 3035   1.198   3.739   3.342
  944HOH      O 3036   2.767   1.442   2.297
  944HOH     H1 3037   2.764   1.444   2.201
  944HOH     H2 3038   2.731   1.526   2.324
  945HOH      O 3039   0.849   3.820   1.046
  945HOH     H1 3040   0.761   3.790   1.070
  945HOH     H2 3041   0.835   3.874   0.968
  946HOH      O 3042   3.481   0.746   2.721
  946HOH     H1 3043   3.510   0.827   2.764
  946HOH     H2 3044   3.415   0.710   2.780
  947HOH      O 3045   2.322   3.093   1.618
  947HOH     H1 3046   2.342   3.112   1.527
  947HOH     H2 3047   2.406   3.071   1.657
  948HOH      O 3048   0.241   0.234   0.957
  948HOH     H1 3049   0.263   0.189   1.039
  948HOH     H2 3050   0.322   0.276   0.930
  949HOH      O 3051   0.241   2.893   0.204
  949HOH     H1 3052   0.199   2.815   0.240
  949HOH     H2 3053   0.244   2.877   0.109
  950HOH      O 3054   2.032   3.728   1.410
  950HOH     H1 3055   2.056   3.759   1.323
  950HOH     H2 3056   2.078   3.644   1.418
  951HOH      O 3057   0.400   2.703   3.589
  951HOH     H1 3058   0.460   2.760   3.639
  951HOH     H2 3059   0.316   2.749   3.593
  952HOH      O 3060   1.416   3.479   3.240
  952HOH     H1 3061   1.370   3.451   3.319
  952HOH     H2 3062   1.423   3.400   3.186
  953HOH      O 3063   4.033   2.490   0.085
  953HOH     H1 3064   3.973   2.560   0.058
  953HOH     H2 3065   4.110   2.502   0.030
  954HOH      O 3066   0.279   0.078   0.568
  954HOH     H1 3067   0.263   0.158   0.518
  954HOH     H2 3068   0.221   0.086   0.644
  955HOH      O 3069   1.171   0.232   2.162
  955HOH     H1 3070   1.154   0.326   2.167
  955HOH     H2 3071   1.215   0.219   2.078
  956HOH      O 3072   3.439   0.328   3.557
  956HOH     H1 3073   3.511   0.331   3.494
  956HOH     H2 3074   3.442   0.239   3.592
  957HOH      O 3075   0.499   3.422   1.180
  957HOH     H1 3076   0.562   3.397   1.112
  957HOH     H2 3077   0.484   3.341   1.229
  958HOH      O 3078   1.417   3.242   0.366
  958HOH     H1 3079   1.463   3.312   0.320
  958HOH     H2 3080   1.482   3.206   0.427
  959HOH      O 3081   2.662   1.064   1.625
  959HOH     H1 3082   2.596   1.094   1.688
  959HOH     H2 3083   2.612   1.028   1.552
  960HOH      O 3084   1.160   0.876   2.490
  960HOH     H1 3085   1.102   0.877   2.413
  960HOH     H2 3086   1.227   0.941   2.469
  961HOH      O 3087   3.074   2.515   3.992
  961HOH     H1 3088   3.092   2.529   4.084
  961HOH     H2 3089   3.138   2.570   3.946
  962HOH      O 3090   3.423   3.511   3.465
  962HOH     H1 3091   3.371   3.526   3.544
  962HOH     H2 3092   3.374   3.554   3.395
  963HOH      O 3093   3.327   1.057   1.414
  963HOH     H1 3094   3.409   1.012   1.392
  963HOH     H2 3095   3.262   1.017   1.357
  964HOH      O 3096   1.931   0.587   1.099
  964HOH     H1 3097   1.902   0.550   1.016
  964HOH     H2 3098   1.918   0.682   1.090
  965HOH      O 3099   3.674   0.484   3.071
  965HOH     H1 3100   3.675   0.578   3.052
  965HOH     H2 3101   3.766   0.461   3.084
  966HOH      O 3102   0.580   0.550   2.010
  966HOH     H1 3103   0.563   0.477   2.069
  966HOH     H2 3104   0.636   0.514   1.941
  967HOH      O 3105   1.155   3.057   2.973
  967HOH     H1 3106   1.212   3.131   2.952
  967HOH     H2 3107   1.157   3.001   2.896
  968HOH      O 3108   3.370   2.167   4.042
  968HOH     H1 3109   3.344   2.182   3.951
  968HOH     H2 3110   3.298   2.205   4.094
  969HOH      O 3111   0.543   3.450   3.359
  969HOH     H1 3112   0.472   3.438   3.422
  969HOH     H2 3113   0.522   3.389   3.287
  970HOH      O 3114   2.407   2.885   3.788
  970HOH     H1 3115   2.372   2.866   3.876
  970HOH     H2 3116   2.329   2.888   3.732
  971HOH      O 3117   3.324   1.518   3.020
  971HOH     H1 3118   3.292   1.481   3.103
  971HOH     H2 3119   3.338   1.611   3.040
  972HOH      O 3120   0.100   0.116   0.765
  972HOH     H1 3121   0.114   0.029   0.802
  972HOH     H2 3122   0.145   0.175   0.827
  973HOH      O 3123   0.596   1.082   3.872
  973HOH     H1 3124   0.577   0.993   3.903
  973HOH     H2 3125   0.556   1.139   3.937
  974HOH      O 3126   0.065   3.180   1.580
  974HOH     H1 3127   0.044   3.087   1.582
  974HOH     H2 3128   0.053   3.205   1.488
  975HOH      O 3129   0.686   3.530   3.094
  975HOH     H1 3130   0.739   3.506   3.019
  975HOH     H2 3131   0.597   3.540   3.058
  976HOH      O 3132   0.505   0.455   2.701
  976HOH     H1 3133   0.503   0.449   2.796
  976HOH     H2 3134   0.413   0.462   2.675
  977HOH      O 3135   3.677   3.385   2.379
  977HOH     H1 3136   3.624   3.448   2.428
  977HOH     H2 3137   3.749   3.436   2.343
  978HOH      O 3138   1.001   1.779   0.330
  978HOH     H1 3139   0.961   1.842   0.271
  978HOH     H2 3140   0.957   1.793   0.414
  979HOH      O 3141   2.759   2.517   3.405
  979HOH     H1 3142   2.819   2.451   3.370
  979HOH     H2 3143   2.781   2.522   3.498
  980HOH      O 3144   3.147   3.180   0.093
  980HOH     H1 3145   3.118   3.211   0.178
  980HOH     H2 3146   3.066   3.170   0.043
  981HOH      O 3147   0.822   0.947   2.963
  981HOH     H1 3148   0.738   0.973   2.925
  981HOH     H2 3149   0.833   1.005   3.038
  982HOH      O 3150   0.597   1.731   0.547
  982HOH     H1 3151   0.671   1.671   0.548
  982HOH     H2 3152   0.591   1.760   0.456
  983HOH      O 3153   2.939   2.762   2.641
  983HOH     H1 3154   2.873   2.770   2.572
  983HOH     H2 3155   3.023   2.770   2.595
  984HOH      O 3156   0.820   2.536   3.261
  984HOH     H1 3157   0.847   2.445   3.278
  984HOH     H2 3158   0.730   2.528   3.230
  985HOH      O 3159   1.521   3.662   1.346
  985HOH     H1 3160   1.534   3.569   1.363
  985HOH     H2 3161   1.512   3.668   1.251
  986HOH      O 3162   1.697   3.427   1.956
  986HOH     H1 3163   1.704   3.422   2.051
  986HOH     H2 3164   1.763   3.492   1.930
  987HOH      O 3165   1.635   0.181   3.126
  987HOH     H1 3166   1.718   0.135   3.135
  987HOH     H2 3167   1.596   0.179   3.214
  988HOH      O 3168   2.456   0.500   1.939
  988HOH     H1 3169   2.542   0.540   1.928
  988HOH     H2 3170   2.425   0.533   2.023
  989HOH      O 3171   2.958   1.982   1.378
  989HOH     H1 3172   2.962   2.055   1.439
  989HOH     H2 3173   2.901   1.918   1.421
  990HOH      O 3174   0.531   1.735   1.867
  990HOH     H1 3175   0.571   1.822   1.865
  990HOH     H2 3176   0.497   1.723   1.778
  991HOH      O 3177   3.956   3.620   0.660
  991HOH     H1 3178   4.038   3.613   0.611
  991HOH     H2 3179   3.892   3.574   0.605
  992HOH      O 3180   1.330   0.859   0.800
  992HOH     H1 3181   1.348   0.859   0.706
  992HOH     H2 3182   1.398   0.802   0.837
  993HOH      O 3183   2.606   0.013   0.346
  993HOH     H1 3184   2.638   0.098   0.315
  993HOH     H2 3185   2.677  -0.021   0.400
  994HOH      O 3186   1.412   0.970   3.826
  994HOH     H1 3187   1.443   1.054   3.793
  994HOH     H2 3188   1.316   0.979   3.827
  995HOH      O 3189   1.343   0.738   2.213
  995HOH     H1 3190   1.424   0.730   2.162
  995HOH     H2 3191   1.370   0.784   2.293
  996HOH      O 3192   2.944   0.571   1.263
  996HOH     H1 3193   2.947   0.665   1.246
  996HOH     H2 3194   3.019   0.555   1.321
  997HOH      O 3195   1.503   3.498   2.735
  997HOH     H1 3196   1.415   3.503   2.773
  997HOH     H2 3197   1.542   3.420   2.776
  998HOH      O 3198   2.425   0.668   3.284
  998HOH     H1 3199   2.394   0.578   3.286
  998HOH     H2 3200   2.413   0.695   3.193
  999HOH      O 3201   2.883   0.046   1.715
  999HOH     H1 3202   2.866   0.117   1.652
  999HOH     H2 3203   2.938   0.086   1.782
 1000HOH      O 3204   2.476   2.122   3.985
 1000HOH     H1 3205   2.482   2.149   3.893
 1000HOH     H2 3206   2.436   2.035   3.982
 1001HOH      O 3207   2.333   2.773   3.076
 1001HOH     H1 3208   2.407   2.832   3.092
 1001HOH     H2 3209   2.298   2.802   2.991
 1002HOH      O 3210   0.097   3.440   0.799
 1002HOH     H1 3211   0.042   3.516   0.778
 1002HOH     H2 3212   0.055   3.401   0.875
 1003HOH      O 3213   1.991   2.394   2.020
 1003HOH     H1 3214   2.078   2.391   1.981
 1003HOH     H2 3215   1.951   2.311   1.993
 1004HOH      O 3216   1.923   3.057   0.701
 1004HOH     H1 3217   1.912   3.022   0.613
 1004HOH     H2 3218   1.837   3.046   0.742
 1005HOH      O 3219   2.207   2.718   1.983
 1005HOH     H1 3220   2.149   2.758   1.918
 1005HOH     H2 3221   2.225   2.630   1.948
 1006HOH      O 3222   2.536   0.154   2.531
 1006HOH     H1 3223   2.551   0.231   2.477
 1006HOH     H2 3224   2.541   0.187   2.621
 1007HOH      O 3225   3.497   0.974   1.761
 1007HOH     H1 3226   3.428   1.039   1.747
 1007HOH     H2 3227   3.557   0.986   1.688
 1008HOH      O 3228   1.483   0.624   2.529
 1008HOH     H1 3229   1.450   0.712   2.510
 1008HOH     H2 3230   1.461   0.609   2.621
 1009HOH      O 3231   0.604   3.445   1.679
 1009HOH     H1 3232   0.539   3.379   1.654
 1009HOH     H2 3233   0.685   3.396   1.692
 1010HOH      O 3234   1.883   2.861   3.724
 1010HOH     H1 3235   1.828   2.913   3.665
 1010HOH     H2 3236   1.822   2.807   3.773
 1011HOH      O 3237   3.208   1.551   0.872
 1011HOH     H1 3238   3.251   1.600   0.943
 1011HOH     H2 3239   3.142   1.612   0.839
 1012HOH      O 3240   3.295   4.047   3.405
 1012HOH     H1 3241   3.356   3.974   3.423
 1012HOH     H2 3242   3.339   4.099   3.338
 1013HOH      O 3243   3.550   3.439   1.545
 1013HOH     H1 3244   3.557   3.374   1.615
 1013HOH     H2 3245   3.463   3.478   1.557
 1014HOH      O 3246   2.025   2.388   2.492
 1014HOH     H1 3247   2.093   2.328   2.464
 1014HOH     H2 3248   2.027   2.459   2.428
 1015HOH      O 3249   2.567   0.846   1.223
 1015HOH     H1 3250   2.629   0.810   1.287
 1015HOH     H2 3251   2.617   0.914   1.178
 1016HOH      O 3252   2.402   2.798   3.486
 1016HOH     H1 3253   2.438   2.744   3.416
 1016HOH     H2 3254   2.372   2.878   3.441
 1017HOH      O 3255   1.822   1.113   1.508
 1017HOH     H1 3256   1.792   1.030   1.470
 1017HOH     H2 3257   1.895   1.140   1.453
 1018HOH      O 3258   1.038   3.229   2.087
 1018HOH     H1 3259   1.112   3.190   2.039
 1018HOH     H2 3260   0.968   3.164   2.080
 1019HOH      O 3261   2.741   0.100   3.478
 1019HOH     H1 3262   2.724   0.011   3.446
 1019HOH     H2 3263   2.716   0.097   3.570
 1020HOH      O 3264   0.086   0.153   2.516
 1020HOH     H1 3265  -0.002   0.188   2.501
 1020HOH     H2 3266   0.123   0.140   2.429
 1021HOH      O 3267   0.795   3.293   0.866
 1021HOH     H1 3268   0.792   3.277   0.960
 1021HOH     H2 3269   0.708   3.270   0.834
 1022HOH      O 3270   2.565   3.303   3.061
 1022HOH     H1 3271   2.611   3.373   3.016
 1022HOH     H2 3272   2.633   3.260   3.113
 1023HOH      O 3273   1.584   2.104   2.001
 1023HOH     H1 3274   1.530   2.178   1.973
 1023HOH     H2 3275   1.592   2.115   2.096
 1024HOH      O 3276   0.159   2.593   0.295
 1024HOH     H1 3277   0.084   2.625   0.245
 1024HOH     H2 3278   0.121   2.548   0.371
 1025HOH      O 3279   2.831   3.204   1.037
 1025HOH     H1 3280   2.759   3.243   1.086
 1025HOH     H2 3281   2.796   3.193   0.948
 1026HOH      O 3282   0.899   1.430   1.709
 1026HOH     H1 3283   0.959   1.505   1.711
 1026HOH     H2 3284   0.937   1.371   1.644
 1027HOH      O 3285   3.417   0.348   3.041
 1027HOH     H1 3286   3.369   0.414   3.092
 1027HOH     H2 3287   3.509   0.368   3.056
 1028HOH      O 3288   0.614   3.195   2.493
 1028HOH     H1 3289   0.546   3.165   2.553
 1028HOH     H2 3290   0.652   3.272   2.536
 1029HOH      O 3291   2.859   3.341   1.576
 1029HOH     H1 3292   2.842   3.277   1.645
 1029HOH     H2 3293   2.922   3.298   1.518
 1030HOH      O 3294   2.094   1.709   0.804
 1030HOH     H1 3295   2.170   1.739   0.853
 1030HOH     H2 3296   2.019   1.742   0.854
 1031HOH      O 3297   1.588   3.254   3.644
 1031HOH     H1 3298   1.603   3.324   3.580
 1031HOH     H2 3299   1.514   3.285   3.696
 1032HOH      O 3300   3.902   0.776   0.688
 1032HOH     H1 3301   3.900   0.721   0.610
 1032HOH     H2 3302   3.876   0.863   0.657
 1033HOH      O 3303   2.988   1.687   0.772
 1033HOH     H1 3304   2.916   1.629   0.748
 1033HOH     H2 3305   2.953   1.739   0.845
 1034HOH      O 3306   2.169   1.543   0.187
 1034HOH     H1 3307   2.096   1.606   0.192
 1034HOH     H2 3308   2.176   1.523   0.094
 1035HOH      O 3309   1.967   1.632   1.165
 1035HOH     H1 3310   1.939   1.723   1.153
 1035HOH     H2 3311   1.888   1.580   1.154
 1036HOH      O 3312   0.897   0.218   1.340
 1036HOH     H1 3313   0.861   0.159   1.273
 1036HOH     H2 3314   0.883   0.172   1.423
 1037HOH      O 3315   0.437   0.643   1.086
 1037HOH     H1 3316   0.376   0.705   1.045
 1037HOH     H2 3317   0.383   0.593   1.147
 1038HOH      O 3318   0.136   1.698   0.754
 1038HOH     H1 3319   0.043   1.720   0.747
 1038HOH     H2 3320   0.141   1.635   0.826
 1039HOH      O 3321   2.864   2.341   2.013
 1039HOH     H1 3322   2.883   2.435   2.005
 1039HOH     H2 3323   2.812   2.321   1.935
 1040HOH      O 3324   1.361   1.897   2.100
 1040HOH     H1 3325   1.416   1.964   2.060
 1040HOH     H2 3326   1.281   1.944   2.125
 1041HOH      O 3327   0.729   0.109   2.441
 1041HOH     H1 3328   0.747   0.129   2.349
 1041HOH     H2 3329   0.788   0.166   2.490
 1042HOH      O 3330   3.993   3.287   3.049
 1042HOH     H1 3331   3.907   3.304   3.088
 1042HOH     H2 3332   3.986   3.319   2.959
 1043HOH      O 3333   0.418   1.341   2.539
 1043HOH     H1 3334   0.338   1.328   2.489
 1043HOH     H2 3335   0.472   1.397   2.484
 1044HOH      O 3336   2.302   1.308   3.805
 1044HOH     H1 3337   2.395   1.293   3.787
 1044HOH     H2 3338   2.258   1.279   3.725
 1045HOH      O 3339   1.589   0.731   2.002
 1045HOH     H1 3340   1.526   0.793   1.966
 1045HOH     H2 3341   1.616   0.769   2.085
 1046HOH      O 3342   2.234   3.584   1.754
 1046HOH     H1 3343   2.214   3.546   1.840
 1046HOH     H2 3344   2.329   3.578   1.746
 1047HOH      O 3345   3.030   3.345   0.871
 1047HOH     H1 3346   2.940   3.370   0.852
 1047HOH     H2 3347   3.057   3.403   0.943
 1048HOH      O 3348   2.577   0.471   2.644
 1048HOH     H1 3349   2.542   0.431   2.723
 1048HOH     H2 3350   2.505   0.467   2.581
 1049HOH      O 3351   3.084   3.157   2.594
 1049HOH     H1 3352   3.118   3.238   2.631
 1049HOH     H2 3353   3.144   3.089   2.625
 1050HOH      O 3354   0.163   0.091   3.989
 1050HOH     H1 3355   0.075   0.103   4.024
 1050HOH     H2 3356   0.178  -0.003   3.992
 1051HOH      O 3357   2.405   3.637   1.129
 1051HOH     H1 3358   2.382   3.578   1.201
 1051HOH     H2 3359   2.379   3.590   1.050
 1052HOH      O 3360   3.690   2.984   3.883
 1052HOH     H1 3361   3.774   3.026   3.896
 1052HOH     H2 3362   3.670   2.999   3.791
 1053HOH      O 3363   0.236   0.597   3.545
 1053HOH     H1 3364   0.295   0.538   3.498
 1053HOH     H2 3365   0.293   0.647   3.603
 1054HOH      O 3366   0.018   1.700   3.594
 1054HOH     H1 3367  -0.040   1.637   3.636
 1054HOH     H2 3368   0.031   1.666   3.505
 1055HOH      O 3369   0.956   2.995   3.627
 1055HOH     H1 3370   0.881   2.977   3.570
 1055HOH     H2 3371   0.972   2.912   3.671
 1056HOH      O 3372   1.020   0.061   1.853
 1056HOH     H1 3373   0.948   0.108   1.896
 1056HOH     H2 3374   1.083   0.044   1.923
 1057HOH      O 3375   1.526   3.469   1.728
 1057HOH     H1 3376   1.585   3.440   1.658
 1057HOH     H2 3377   1.578   3.460   1.808
 1058HOH      O 3378   0.267   2.895   3.225
 1058HOH     H1 3379   0.254   2.989   3.214
 1058HOH     H2 3380   0.192   2.855   3.182
 1059HOH      O 3381   1.971   0.472   3.842
 1059HOH     H1 3382   2.058   0.509   3.822
 1059HOH     H2 3383   1.968   0.470   3.938
 1060HOH      O 3384   1.472   0.059   0.959
 1060HOH     H1 3385   1.377   0.056   0.971
 1060HOH     H2 3386   1.494  -0.024   0.917
 1061HOH      O 3387   1.407   0.923   1.923
 1061HOH     H1 3388   1.353   0.991   1.964
 1061HOH     H2 3389   1.451   0.968   1.851
 1062HOH      O 3390   2.761   2.672   1.954
 1062HOH     H1 3391   2.750   2.658   1.860
 1062HOH     H2 3392   2.679   2.641   1.992
 1063HOH      O 3393   2.686   0.264   3.958
 1063HOH     H1 3394   2.737   0.263   4.039
 1063HOH     H2 3395   2.602   0.224   3.982
 1064HOH      O 3396   3.852   3.402   1.822
 1064HOH     H1 3397   3.897   3.422   1.740
 1064HOH     H2 3398   3.790   3.333   1.799
 1065HOH      O 3399   3.719   1.456   3.558
 1065HOH     H1 3400   3.687   1.400   3.488
 1065HOH     H2 3401   3.761   1.395   3.619
 1066HOH      O 3402   3.878   3.813   3.442
 1066HOH     H1 3403   3.800   3.757   3.434
 1066HOH     H2 3404   3.860   3.887   3.384
 1067HOH      O 3405   3.014   0.561   2.621
 1067HOH     H1 3406   2.950   0.576   2.690
 1067HOH     H2 3407   3.058   0.480   2.646
 1068HOH      O 3408   1.275   0.730   3.679
 1068HOH     H1 3409   1.195   0.773   3.648
 1068HOH     H2 3410   1.310   0.789   3.745
 1069HOH      O 3411   1.258   0.267   0.270
 1069HOH     H1 3412   1.231   0.321   0.344
 1069HOH     H2 3413   1.340   0.305   0.241
 1070HOH      O 3414   1.455   0.081   1.341
 1070HOH     H1 3415   1.486   0.162   1.381
 1070HOH     H2 3416   1.476   0.090   1.248
 1071HOH      O 3417   2.732   2.756   2.811
 1071HOH     H1 3418   2.822   2.749   2.777
 1071HOH     H2 3419   2.688   2.812   2.747
 1072HOH      O 3420   0.254   3.282   2.900
 1072HOH     H1 3421   0.230   3.368   2.865
 1072HOH     H2 3422   0.349   3.284   2.906
 1073HOH      O 3423   1.324   1.547   0.464
 1073HOH     H1 3424   1.237   1.507   0.465
 1073HOH     H2 3425   1.367   1.512   0.541
 1074HOH      O 3426   3.557   3.208   1.698
 1074HOH     H1 3427   3.491   3.181   1.634
 1074HOH     H2 3428   3.514   3.194   1.783
 1075HOH      O 3429   3.737   2.187   2.521
 1075HOH     H1 3430   3.786   2.264   2.550
 1075HOH     H2 3431   3.805   2.121   2.504
 1076HOH      O 3432   1.154   2.087   1.640
 1076HOH     H1 3433   1.076   2.111   1.591
 1076HOH     H2 3434   1.129   2.100   1.732
 1077HOH      O 3435   3.720   0.486   2.335
 1077HOH     H1 3436   3.729   0.494   2.241
 1077HOH     H2 3437   3.707   0.575   2.366
 1078HOH      O 3438   1.894   1.377   3.412
 1078HOH     H1 3439   1.871   1.450   3.469
 1078HOH     H2 3440   1.903   1.302   3.471
 1079HOH      O 3441   2.144   0.982   0.943
 1079HOH     H1 3442   2.228   0.977   0.988
 1079HOH     H2 3443   2.165   0.969   0.851
 1080HOH      O 3444   3.791   2.691   3.079
 1080HOH     H1 3445   3.700   2.687   3.109
 1080HOH     H2 3446   3.832   2.614   3.119
 1081HOH      O 3447   1.158   1.487   3.130
 1081HOH     H1 3448   1.119   1.402   3.108
 1081HOH     H2 3449   1.244   1.465   3.166
 1082HOH      O 3450   2.597   1.372   2.758
 1082HOH     H1 3451   2.596   1.453   2.707
 1082HOH     H2 3452   2.672   1.323   2.725
 1083HOH      O 3453   2.166   4.050   1.212
 1083HOH     H1 3454   2.238   4.064   1.150
 1083HOH     H2 3455   2.115   3.979   1.173
 1084HOH      O 3456   1.289   1.657   3.622
 1084HOH     H1 3457   1.368   1.609   3.648
 1084HOH     H2 3458   1.289   1.654   3.527
 1085HOH      O 3459   3.133   1.679   0.281
 1085HOH     H1 3460   3.196   1.713   0.344
 1085HOH     H2 3461   3.067   1.635   0.334
 1086HOH      O 3462   1.787   1.213   4.006
 1086HOH     H1 3463   1.750   1.297   3.978
 1086HOH     H2 3464   1.790   1.161   3.927
 1087HOH      O 3465   3.063   3.155   0.660
 1087HOH     H1 3466   3.037   3.200   0.579
 1087HOH     H2 3467   3.094   3.225   0.717
 1088HOH      O 3468   2.148   3.885   0.281
 1088HOH     H1 3469   2.071   3.910   0.230
 1088HOH     H2 3470   2.174   3.964   0.328
 1089HOH      O 3471   0.292   2.981   1.026
 1089HOH     H1 3472   0.242   2.994   0.945
 1089HOH     H2 3473   0.228   2.948   1.089
 1090HOH      O 3474   1.102   2.147   1.098
 1090HOH     H1 3475   1.185   2.193   1.089
 1090HOH     H2 3476   1.035   2.216   1.093
 1091HOH      O 3477   1.815   3.189   3.346
 1091HOH     H1 3478   1.848   3.278   3.356
 1091HOH     H2 3479   1.755   3.177   3.419
 1092HOH      O 3480   1.405   1.038   2.975
 1092HOH     H1 3481   1.492   1.051   2.938
 1092HOH     H2 3482   1.352   1.009   2.900
 1093HOH      O 3483   0.780   1.670   3.344
 1093HOH     H1 3484   0.799   1.604   3.411
 1093HOH     H2 3485   0.704   1.635   3.297
 1094HOH      O 3486   0.104   3.667   0.474
 1094HOH     H1 3487   0.142   3.743   0.431
 1094HOH     H2 3488   0.176   3.603   0.477
 1095HOH      O 3489   0.699   1.205   2.072
 1095HOH     H1 3490   0.670   1.145   2.003
 1095HOH     H2 3491   0.775   1.249   2.034
 1096HOH      O 3492   3.136   2.828   0.947
 1096HOH     H1 3493   3.185   2.906   0.975
 1096HOH     H2 3494   3.198   2.780   0.892
 1097HOH      O 3495   0.063   3.314   3.714
 1097HOH     H1 3496   0.034   3.385   3.657
 1097HOH     H2 3497   0.018   3.236   3.679
 1098HOH      O 3498   3.761   2.903   0.400
 1098HOH     H1 3499   3.727   2.983   0.359
 1098HOH     H2 3500   3.724   2.832   0.347
 1099HOH      O 3501   4.038   0.939   2.122
 1099HOH     H1 3502   4.067   0.874   2.186
 1099HOH     H2 3503   3.942   0.938   2.130
 1100HOH      O 3504   1.748   0.497   2.778
 1100HOH     H1 3505   1.688   0.452   2.837
 1100HOH     H2 3506   1.722   0.589   2.784
 1101HOH      O 3507   0.139   0.252   1.431
 1101HOH     H1 3508   0.111   0.340   1.456
 1101HOH     H2 3509   0.084   0.193   1.483
 1102HOH      O 3510   3.481   0.522   3.755
 1102HOH     H1 3511   3.466   0.480   3.840
 1102HOH     H2 3512   3.455   0.456   3.691
 1103HOH      O 3513   0.219   0.529   2.325
 1103HOH     H1 3514   0.213   0.461   2.258
 1103HOH     H2 3515   0.311   0.529   2.352
 1104HOH      O 3516   3.490   1.476   1.421
 1104HOH     H1 3517   3.522   1.538   1.486
 1104HOH     H2 3518   3.563   1.469   1.358
 1105HOH      O 3519   0.065   2.046   3.415
 1105HOH     H1 3520   0.139   2.021   3.471
 1105HOH     H2 3521   0.075   1.990   3.338
 1106HOH      O 3522   1.828   1.168   2.591
 1106HOH     H1 3523   1.790   1.227   2.526
 1106HOH     H2 3524   1.866   1.227   2.656
 1107HOH      O 3525   1.297   0.631   3.970
 1107HOH     H1 3526   1.211   0.611   3.933
 1107HOH     H2 3527   1.357   0.620   3.897
 1108HOH      O 3528   1.105   1.220   3.068
 1108HOH     H1 3529   1.027   1.167   3.052
 1108HOH     H2 3530   1.172   1.157   3.096
 1109HOH      O 3531   2.765   0.936   0.231
 1109HOH     H1 3532   2.728   0.866   0.178
 1109HOH     H2 3533   2.753   1.015   0.178
 1110HOH      O 3534   2.446   0.131  -0.012
 1110HOH     H1 3535   2.410   0.169   0.069
 1110HOH     H2 3536   2.409   0.042  -0.013
 1111HOH      O 3537   3.820   0.059   0.306
 1111HOH     H1 3538   3.845   0.110   0.383
 1111HOH     H2 3539   3.871  -0.022   0.312
 1112HOH      O 3540   3.658   0.510   2.742
 1112HOH     H1 3541   3.620   0.541   2.825
 1112HOH     H2 3542   3.596   0.540   2.675
 1113HOH      O 3543   0.630   3.693   2.839
 1113HOH     H1 3544   0.711   3.726   2.800
 1113HOH     H2 3545   0.623   3.739   2.922
 1114HOH      O 3546   3.288   1.473   0.533
 1114HOH     H1 3547   3.263   1.424   0.611
 1114HOH     H2 3548   3.285   1.409   0.462
 1115HOH      O 3549   2.115   3.640   3.094
 1115HOH     H1 3550   2.180   3.666   3.030
 1115HOH     H2 3551   2.145   3.679   3.176
 1116HOH      O 3552   0.560   2.591   0.410
 1116HOH     H1 3553   0.641   2.547   0.437
 1116HOH     H2 3554   0.590   2.672   0.367
 1117HOH      O 3555   1.922   0.119   0.611
 1117HOH     H1 3556   1.914   0.170   0.530
 1117HOH     H2 3557   1.950   0.183   0.676
 1118HOH      O 3558   2.395   1.546   1.187
 1118HOH     H1 3559   2.314   1.494   1.180
 1118HOH     H2 3560   2.420   1.564   1.097
 1119HOH      O 3561   3.111   3.403   2.732
 1119HOH     H1 3562   3.177   3.466   2.701
 1119HOH     H2 3563   3.142   3.376   2.818
 1120HOH      O 3564   1.587   3.284   0.859
 1120HOH     H1 3565   1.622   3.330   0.783
 1120HOH     H2 3566   1.586   3.349   0.929
 1121HOH      O 3567   3.524   1.286   2.698
 1121HOH     H1 3568   3.446   1.301   2.751
 1121HOH     H2 3569   3.529   1.363   2.641
 1122HOH      O 3570   1.108   3.870   3.824
 1122HOH     H1 3571   1.014   3.858   3.834
 1122HOH     H2 3572   1.146   3.825   3.899
 1123HOH      O 3573   1.045   1.289   3.346
 1123HOH     H1 3574   1.018   1.238   3.270
 1123HOH     H2 3575   1.117   1.343   3.314
 1124HOH      O 3576   2.193   1.421   0.970
 1124HOH     H1 3577   2.209   1.509   0.934
 1124HOH     H2 3578   2.151   1.437   1.054
 1125HOH      O 3579   2.830   4.032   1.395
 1125HOH     H1 3580   2.825   4.020   1.301
 1125HOH     H2 3581   2.920   4.009   1.418
 1126HOH      O 3582   1.770   3.832   1.441
 1126HOH     H1 3583   1.728   3.773   1.379
 1126HOH     H2 3584   1.863   3.821   1.426
 1127HOH      O 3585   3.463   2.415   1.287
 1127HOH     H1 3586   3.404   2.395   1.215
 1127HOH     H2 3587   3.419   2.380   1.365
 1128HOH      O 3588   1.707   2.145   4.016
 1128HOH     H1 3589   1.708   2.101   4.102
 1128HOH     H2 3590   1.777   2.102   3.967
 1129HOH      O 3591   1.344   4.005   2.655
 1129HOH     H1 3592   1.389   3.923   2.636
 1129HOH     H2 3593   1.376   4.030   2.742
 1130HOH      O 3594   3.673   3.072   3.590
 1130HOH     H1 3595   3.633   2.991   3.559
 1130HOH     H2 3596   3.617   3.141   3.555
 1131HOH      O 3597   2.120   2.921   3.624
 1131HOH     H1 3598   2.028   2.924   3.650
 1131HOH     H2 3599   2.121   2.875   3.540
 1132HOH      O 3600   2.341   4.061   1.772
 1132HOH     H1 3601   2.374   3.979   1.807
 1132HOH     H2 3602   2.385   4.071   1.687
 1133HOH      O 3603   1.904   0.511   0.834
 1133HOH     H1 3604   1.985   0.546   0.797
 1133HOH     H2 3605   1.840   0.521   0.763
 1134HOH      O 3606   1.918   0.758   3.421
 1134HOH     H1 3607   1.905   0.740   3.328
 1134HOH     H2 3608   1.999   0.809   3.425
 1135HOH      O 3609   2.809   0.067   2.515
 1135HOH     H1 3610   2.801   0.161   2.529
 1135HOH     H2 3611   2.724   0.032   2.542
 1136HOH      O 3612   0.268   1.741   0.256
 1136HOH     H1 3613   0.174   1.760   0.262
 1136HOH     H2 3614   0.310   1.826   0.260
 1137HOH      O 3615   0.415   0.063   3.498
 1137HOH     H1 3616   0.399  -0.028   3.475
 1137HOH     H2 3617   0.498   0.062   3.546
 1138HOH      O 3618   3.462   2.438   2.460
 1138HOH     H1 3619   3.470   2.524   2.501
 1138HOH     H2 3620   3.437   2.457   2.370
 1139HOH      O 3621   2.875   3.492   3.905
 1139HOH     H1 3622   2.792   3.487   3.953
 1139HOH     H2 3623   2.858   3.554   3.834
 1140HOH      O 3624   1.995   0.269   0.810
 1140HOH     H1 3625   1.957   0.356   0.799
 1140HOH     H2 3626   1.982   0.248   0.902
 1141HOH      O 3627   3.776   1.751   2.728
 1141HOH     H1 3628   3.785   1.690   2.654
 1141HOH     H2 3629   3.722   1.823   2.694
 1142HOH      O 3630   1.367   1.299   0.596
 1142HOH     H1 3631   1.291   1.320   0.651
 1142HOH     H2 3632   1.410   1.226   0.641
 1143HOH      O 3633   3.110   0.723   3.285
 1143HOH     H1 3634   3.048   0.794   3.268
 1143HOH     H2 3635   3.135   0.735   3.377
 1144HOH      O 3636   0.402   2.472   0.591
 1144HOH     H1 3637   0.346   2.545   0.617
 1144HOH     H2 3638   0.453   2.506   0.517
 1145HOH      O 3639   3.976   3.558   3.620
 1145HOH     H1 3640   3.934   3.495   3.561
 1145HOH     H2 3641   3.917   3.632   3.622
 1146HOH      O 3642   2.352   3.261   0.775
 1146HOH     H1 3643   2.291   3.188   0.790
 1146HOH     H2 3644   2.432   3.220   0.745
 1147HOH      O 3645   1.953   1.092   0.154
 1147HOH     H1 3646   2.041   1.128   0.148
 1147HOH     H2 3647   1.901   1.147   0.096
 1148HOH      O 3648   0.405   1.982   0.297
 1148HOH     H1 3649   0.353   2.030   0.361
 1148HOH     H2 3650   0.469   2.045   0.264
 1149HOH      O 3651   1.684   3.009   3.574
 1149HOH     H1 3652   1.602   2.966   3.550
 1149HOH     H2 3653   1.657   3.089   3.618
 1150HOH      O 3654   3.906  -0.016   2.378
 1150HOH     H1 3655   3.992  -0.025   2.335
 1150HOH     H2 3656   3.880   0.074   2.359
 1151HOH      O 3657   2.032   1.193   0.447
 1151HOH     H1 3658   2.008   1.131   0.378
 1151HOH     H2 3659   1.958   1.254   0.450
 1152HOH      O 3660   3.858   0.333   2.729
 1152HOH     H1 3661   3.783   0.391   2.744
 1152HOH     H2 3662   3.926   0.367   2.788
 1153HOH      O 3663   3.189   1.175   1.040
 1153HOH     H1 3664   3.209   1.194   0.948
 1153HOH     H2 3665   3.262   1.212   1.089
 1154HOH      O 3666   1.882   0.258   0.369
 1154HOH     H1 3667   1.960   0.268   0.315
 1154HOH     H2 3668   1.816   0.222   0.310
 1155HOH      O 3669   1.487   0.813   0.548
 1155HOH     H1 3670   1.566   0.775   0.588
 1155HOH     H2 3671   1.520   0.888   0.498
 1156HOH      O 3672   3.646   2.398   3.267
 1156HOH     H1 3673   3.653   2.417   3.361
 1156HOH     H2 3674   3.736   2.404   3.235
 1157HOH      O 3675   2.611   3.476  -0.007
 1157HOH     H1 3676   2.604   3.402   0.053
 1157HOH     H2 3677   2.523   3.513  -0.010
 1158HOH      O 3678   0.756   0.735   3.097
 1158HOH     H1 3679   0.789   0.819   3.065
 1158HOH     H2 3680   0.797   0.670   3.040
 1159HOH      O 3681   1.890   2.667   0.006
 1159HOH     H1 3682   1.849   2.584  -0.018
 1159HOH     H2 3683   1.981   2.644   0.026
 1160HOH      O 3684   1.627   3.967   1.605
 1160HOH     H1 3685   1.674   4.051   1.606
 1160HOH     H2 3686   1.677   3.913   1.544
 1161HOH      O 3687   4.011   0.714   0.943
 1161HOH     H1 3688   4.059   0.632   0.949
 1161HOH     H2 3689   3.987   0.721   0.851
 1162HOH      O 3690   1.235   2.003   4.014
 1162HOH     H1 3691   1.218   1.977   3.923
 1162HOH     H2 3692   1.268   2.092   4.007
 1163HOH      O 3693   3.475   2.036   3.734
 1163HOH     H1 3694   3.443   2.106   3.677
 1163HOH     H2 3695   3.564   2.064   3.758
 1164HOH      O 3696   3.644   0.767   0.881
 1164HOH     H1 3697   3.727   0.813   0.894
 1164HOH     H2 3698   3.667   0.675   0.883
 1165HOH      O 3699   2.517   1.517   3.690
 1165HOH     H1 3700   2.559   1.599   3.718
 1165HOH     H2 3701   2.585   1.471   3.642
 1166HOH      O 3702   3.687   3.230   0.924
 1166HOH     H1 3703   3.610   3.279   0.952
 1166HOH     H2 3704   3.697   3.252   0.831
 1167HOH      O 3705   2.421   0.616   3.789
 1167HOH     H1 3706   2.342   0.633   3.739
 1167HOH     H2 3707   2.447   0.527   3.764
 1168HOH      O 3708   0.334   3.839   0.427
 1168HOH     H1 3709   0.356   3.776   0.495
 1168HOH     H2 3710   0.383   3.918   0.450
 1169HOH      O 3711   0.958   2.944   1.784
 1169HOH     H1 3712   0.884   2.957   1.725
 1169HOH     H2 3713   0.975   2.849   1.781
 1170HOH      O 3714   2.611   1.300   0.660
 1170HOH     H1 3715   2.584   1.242   0.589
 1170HOH     H2 3716   2.663   1.245   0.718
 1171HOH      O 3717   0.939   2.550   3.686
 1171HOH     H1 3718   0.926   2.471   3.738
 1171HOH     H2 3719   0.889   2.534   3.606
 1172HOH      O 3720   0.218   0.795   2.651
 1172HOH     H1 3721   0.130   0.830   2.665
 1172HOH     H2 3722   0.273   0.843   2.713
 1173HOH      O 3723   1.781   1.814   3.328
 1173HOH     H1 3724   1.694   1.832   3.293
 1173HOH     H2 3725   1.770   1.734   3.379
 1174HOH      O 3726   1.720   0.974   3.190
 1174HOH     H1 3727   1.754   1.064   3.184
 1174HOH     H2 3728   1.709   0.959   3.284
 1175HOH      O 3729   2.857   0.237   1.526
 1175HOH     H1 3730   2.800   0.196   1.462
 1175HOH     H2 3731   2.804   0.308   1.563
 1176HOH      O 3732   1.367   2.259   0.610
 1176HOH     H1 3733   1.389   2.338   0.560
 1176HOH     H2 3734   1.370   2.188   0.546
 1177HOH      O 3735   3.942   3.867   1.566
 1177HOH     H1 3736   3.850   3.844   1.571
 1177HOH     H2 3737   3.989   3.788   1.593
 1178HOH      O 3738   3.669   1.836   2.447
 1178HOH     H1 3739   3.614   1.890   2.503
 1178HOH     H2 3740   3.757   1.874   2.456
 1179HOH      O 3741   0.923   3.593   2.883
 1179HOH     H1 3742   1.002   3.635   2.849
 1179HOH     H2 3743   0.956   3.518   2.933
 1180HOH      O 3744   2.339   1.682   0.930
 1180HOH     H1 3745   2.398   1.635   0.871
 1180HOH     H2 3746   2.365   1.773   0.921
 1181HOH      O 3747   2.422   0.004   1.500
 1181HOH     H1 3748   2.473   0.079   1.469
 1181HOH     H2 3749   2.371  -0.023   1.424
 1182HOH      O 3750   3.138   2.596   1.151
 1182HOH     H1 3751   3.207   2.543   1.112
 1182HOH     H2 3752   3.138   2.676   1.098
 1183HOH      O 3753   1.811   0.991   0.353
 1183HOH     H1 3754   1.716   1.007   0.352
 1183HOH     H2 3755   1.843   1.033   0.274
 1184HOH      O 3756   0.153   2.623   2.021
 1184HOH     H1 3757   0.131   2.693   1.960
 1184HOH     H2 3758   0.167   2.546   1.965
 1185HOH      O 3759   2.277   0.902   3.080
 1185HOH     H1 3760   2.198   0.905   3.133
 1185HOH     H2 3761   2.337   0.964   3.122
 1186HOH      O 3762   3.334   3.943   0.625
 1186HOH     H1 3763   3.274   3.884   0.671
 1186HOH     H2 3764   3.416   3.935   0.672
 1187HOH      O 3765   3.963   1.393   2.848
 1187HOH     H1 3766   3.954   1.474   2.899
 1187HOH     H2 3767   4.041   1.351   2.884
 1188HOH      O 3768   4.024   2.597   3.448
 1188HOH     H1 3769   4.074   2.524   3.485
 1188HOH     H2 3770   3.966   2.555   3.384
 1189HOH      O 3771   3.855   0.390   3.984
 1189HOH     H1 3772   3.891   0.371   3.898
 1189HOH     H2 3773   3.875   0.312   4.036
 1190HOH      O 3774   2.437   3.929   2.253
 1190HOH     H1 3775   2.527   3.962   2.259
 1190HOH     H2 3776   2.395   3.985   2.187
 1191HOH      O 3777   3.994   2.114   3.960
 1191HOH     H1 3778   4.063   2.104   4.026
 1191HOH     H2 3779   4.022   2.057   3.888
 1192HOH      O 3780   1.827   0.572   1.692
 1192HOH     H1 3781   1.885   0.562   1.617
 1192HOH     H2 3782   1.740   0.550   1.658
 1193HOH      O 3783   2.884   1.353   3.342
 1193HOH     H1 3784   2.866   1.422   3.278
 1193HOH     H2 3785   2.822   1.283   3.320
 1194HOH      O 3786   2.285   1.261   2.090
 1194HOH     H1 3787   2.324   1.255   2.003
 1194HOH     H2 3788   2.202   1.308   2.076
 1195HOH      O 3789   4.006   0.613   4.060
 1195HOH     H1 3790   3.963   0.662   3.989
 1195HOH     H2 3791   3.967   0.526   4.055
 1196HOH      O 3792   1.009   2.440   0.774
 1196HOH     H1 3793   1.015   2.365   0.714
 1196HOH     H2 3794   1.099   2.473   0.780
 1197HOH      O 3795   2.078   2.072   0.812
 1197HOH     H1 3796   2.113   2.073   0.723
 1197HOH     H2 3797   1.983   2.071   0.801
 1198HOH      O 3798   3.258   1.851   3.783
 1198HOH     H1 3799   3.275   1.767   3.826
 1198HOH     H2 3800   3.342   1.897   3.786
 1199HOH      O 3801   0.904   0.465   0.777
 1199HOH     H1 3802   0.926   0.481   0.685
 1199HOH     H2 3803   0.964   0.521   0.826
 1200HOH      O 3804   1.643   3.439   3.461
 1200HOH     H1 3805   1.668   3.527   3.491
 1200HOH     H2 3806   1.637   3.447   3.366
 1201HOH      O 3807   2.453   3.505   0.874
 1201HOH     H1 3808   2.409   3.434   0.826
 1201HOH     H2 3809   2.546   3.490   0.858
 1202HOH      O 3810   3.468   2.997   1.312
 1202HOH     H1 3811   3.509   3.061   1.253
 1202HOH     H2 3812   3.542   2.946   1.346
 1203HOH      O 3813   3.345   3.513   0.885
 1203HOH     H1 3814   3.364   3.587   0.827
 1203HOH     H2 3815   3.310   3.445   0.827
 1204HOH      O 3816   0.530   1.511   0.929
 1204HOH     H1 3817   0.511   1.596   0.970
 1204HOH     H2 3818   0.503   1.447   0.994
 1205HOH      O 3819   2.487   1.799   3.047
 1205HOH     H1 3820   2.449   1.881   3.015
 1205HOH     H2 3821   2.562   1.825   3.099
 1206HOH      O 3822   1.355   3.338   2.455
 1206HOH     H1 3823   1.312   3.346   2.540
 1206HOH     H2 3824   1.446   3.365   2.472
 1207HOH      O 3825   0.865   0.016   0.458
 1207HOH     H1 3826   0.915   0.089   0.496
 1207HOH     H2 3827   0.840   0.047   0.371
 1208HOH      O 3828   2.072   2.634   3.775
 1208HOH     H1 3829   2.129   2.595   3.709
 1208HOH     H2 3830   2.067   2.726   3.750
 1209HOH      O 3831   0.909   2.375   1.042
 1209HOH     H1 3832   0.814   2.371   1.029
 1209HOH     H2 3833   0.944   2.397   0.956
 1210HOH      O 3834   3.106   0.433   2.974
 1210HOH     H1 3835   3.144   0.361   2.923
 1210HOH     H2 3836   3.127   0.410   3.065
 1211HOH      O 3837   0.233   1.935   1.034
 1211HOH     H1 3838   0.229   1.983   1.116
 1211HOH     H2 3839   0.304   1.871   1.046
 1212HOH      O 3840   0.216   1.485   0.953
 1212HOH     H1 3841   0.208   1.411   1.014
 1212HOH     H2 3842   0.301   1.473   0.912
 1213HOH      O 3843   2.378   0.951   2.636
 1213HOH     H1 3844   2.435   0.879   2.660
 1213HOH     H2 3845   2.316   0.914   2.574
 1214HOH      O 3846   1.913   1.179   3.197
 1214HOH     H1 3847   1.919   1.188   3.102
 1214HOH     H2 3848   1.895   1.267   3.228
 1215HOH      O 3849   2.598   0.839   0.443
 1215HOH     H1 3850   2.540   0.782   0.394
 1215HOH     H2 3851   2.674   0.851   0.386
 1216HOH      O 3852   2.984   1.635   2.441
 1216HOH     H1 3853   2.941   1.587   2.370
 1216HOH     H2 3854   3.076   1.607   2.435
 1217HOH      O 3855   3.175   0.295   0.162
 1217HOH     H1 3856   3.237   0.243   0.212
 1217HOH     H2 3857   3.164   0.247   0.079
 1218HOH      O 3858   2.080   0.339   1.691
 1218HOH     H1 3859   2.105   0.251   1.717
 1218HOH     H2 3860   2.163   0.387   1.685
 1219HOH      O 3861   3.251   0.853   0.838
 1219HOH     H1 3862   3.308   0.791   0.793
 1219HOH     H2 3863   3.257   0.933   0.786
 1220HOH      O 3864   2.928   1.605   0.455
 1220HOH     H1 3865   2.913   1.562   0.540
 1220HOH     H2 3866   2.841   1.625   0.423
 1221HOH      O 3867   0.616   0.812   2.128
 1221HOH     H1 3868   0.543   0.832   2.187
 1221HOH     H2 3869   0.594   0.728   2.089
 1222HOH      O 3870   1.875   1.705   1.961
 1222HOH     H1 3871   1.942   1.770   1.939
 1222HOH     H2 3872   1.843   1.732   2.047
 1223HOH      O 3873   1.753   2.929   1.895
 1223HOH     H1 3874   1.717   2.847   1.928
 1223HOH     H2 3875   1.821   2.953   1.958
 1224HOH      O 3876   2.786   0.293   0.905
 1224HOH     H1 3877   2.831   0.365   0.949
 1224HOH     H2 3878   2.809   0.215   0.956
 1225HOH      O 3879   2.849   2.417   3.641
 1225HOH     H1 3880   2.807   2.400   3.725
 1225HOH     H2 3881   2.901   2.496   3.656
 1226HOH      O 3882   2.896   1.890   1.086
 1226HOH     H1 3883   2.901   1.956   1.155
 1226HOH     H2 3884   2.908   1.939   1.005
 1227HOH      O 3885   1.726   4.038   2.698
 1227HOH     H1 3886   1.644   4.000   2.729
 1227HOH     H2 3887   1.775   4.058   2.778
 1228HOH      O 3888   3.945   0.636   1.275
 1228HOH     H1 3889   3.982   0.715   1.314
 1228HOH     H2 3890   3.859   0.626   1.316
 1229HOH      O 3891   3.943   0.804   2.644
 1229HOH     H1 3892   3.958   0.751   2.722
 1229HOH     H2 3893   3.856   0.776   2.613
 1230HOH      O 3894   2.886   3.478   2.629
 1230HOH     H1 3895   2.969   3.440   2.657
 1230HOH     H2 3896   2.906   3.522   2.547
 1231HOH      O 3897   1.440   3.942   3.867
 1231HOH     H1 3898   1.370   4.005   3.881
 1231HOH     H2 3899   1.418   3.900   3.783
 1232HOH      O 3900   1.571   0.305   3.837
 1232HOH     H1 3901   1.628   0.229   3.823
 1232HOH     H2 3902   1.496   0.289   3.780
 1233HOH      O 3903   0.523   0.159   0.349
 1233HOH     H1 3904   0.493   0.185   0.262
 1233HOH     H2 3905   0.453   0.186   0.408
 1234HOH      O 3906   3.006   0.875   2.408
 1234HOH     H1 3907   2.997   0.812   2.336
 1234HOH     H2 3908   2.931   0.934   2.398
 1235HOH      O 3909   1.475   1.281   2.238
 1235HOH     H1 3910   1.423   1.348   2.283
 1235HOH     H2 3911   1.419   1.250   2.167
 1236HOH      O 3912   1.562   2.500   0.841
 1236HOH     H1 3913   1.581   2.458   0.757
 1236HOH     H2 3914   1.584   2.592   0.828
 1237HOH      O 3915   3.168   2.473   2.513
 1237HOH     H1 3916   3.098   2.435   2.567
 1237HOH     H2 3917   3.249   2.448   2.558
 1238HOH      O 3918   0.742   2.587   1.336
 1238HOH     H1 3919   0.660   2.588   1.385
 1238HOH     H2 3920   0.749   2.674   1.298
 1239HOH      O 3921   1.517   3.211   1.588
 1239HOH     H1 3922   1.461   3.136   1.604
 1239HOH     H2 3923   1.517   3.260   1.670
 1240HOH      O 3924   3.812   0.058   3.776
 1240HOH     H1 3925   3.884   0.121   3.775
 1240HOH     H2 3926   3.835  -0.004   3.845
 1241HOH      O 3927   1.796   3.420   2.551
 1241HOH     H1 3928   1.887   3.423   2.522
 1241HOH     H2 3929   1.801   3.423   2.647
 1242HOH      O 3930   3.793   0.732   3.893
 1242HOH     H1 3931   3.754   0.678   3.824
 1242HOH     H2 3932   3.731   0.729   3.965
 1243HOH      O 3933   0.800   1.662   1.231
 1243HOH     H1 3934   0.807   1.708   1.148
 1243HOH     H2 3935   0.732   1.708   1.279
 1244HOH      O 3936   2.319   1.317   0.452
 1244HOH     H1 3937   2.224   1.305   0.445
 1244HOH     H2 3938   2.337   1.314   0.546
 1245HOH      O 3939   3.843   3.001   3.309
 1245HOH     H1 3940   3.903   3.045   3.369
 1245HOH     H2 3941   3.899   2.940   3.260
 1246HOH      O 3942   2.348   2.910   2.583
 1246HOH     H1 3943   2.298   2.843   2.538
 1246HOH     H2 3944   2.336   2.989   2.530
 1247HOH      O 3945   2.405   1.529   0.326
 1247HOH     H1 3946   2.396   1.450   0.379
 1247HOH     H2 3947   2.316   1.546   0.293
 1248HOH      O 3948   3.560   3.088   2.928
 1248HOH     H1 3949   3.636   3.038   2.957
 1248HOH     H2 3950   3.486   3.049   2.975
 1249HOH      O 3951   3.136   0.323   3.250
 1249HOH     H1 3952   3.184   0.268   3.313
 1249HOH     H2 3953   3.049   0.283   3.246
 1250HOH      O 3954   1.074   0.679   1.729
 1250HOH     H1 3955   1.006   0.739   1.758
 1250HOH     H2 3956   1.048   0.594   1.765
 1251HOH      O 3957   2.248   2.092   0.551
 1251HOH     H1 3958   2.232   2.009   0.507
 1251HOH     H2 3959   2.343   2.098   0.557
 1252HOH      O 3960   1.678   3.956   3.985
 1252HOH     H1 3961   1.688   4.049   4.004
 1252HOH     H2 3962   1.591   3.949   3.947
 1253HOH      O 3963   2.064   3.491   2.500
 1253HOH     H1 3964   2.097   3.579   2.515
 1253HOH     H2 3965   2.141   3.434   2.507
 1254HOH      O 3966   3.977   0.397   1.178
 1254HOH     H1 3967   3.910   0.404   1.110
 1254HOH     H2 3968   3.989   0.486   1.210
 1255HOH      O 3969   3.577   1.477   1.105
 1255HOH     H1 3970   3.507   1.541   1.119
 1255HOH     H2 3971   3.658   1.528   1.115
 1256HOH      O 3972   0.302   3.104   2.403
 1256HOH     H1 3973   0.341   3.088   2.490
 1256HOH     H2 3974   0.208   3.092   2.416
 1257HOH      O 3975   2.854   2.886   1.044
 1257HOH     H1 3976   2.947   2.889   1.019
 1257HOH     H2 3977   2.817   2.967   1.011
 1258HOH      O 3978   3.459   1.496   1.997
 1258HOH     H1 3979   3.422   1.575   2.038
 1258HOH     H2 3980   3.422   1.495   1.909
 1259HOH      O 3981   1.752   1.071   3.763
 1259HOH     H1 3982   1.689   1.142   3.768
 1259HOH     H2 3983   1.807   1.092   3.688
 1260HOH      O 3984   1.785   1.344   0.485
 1260HOH     H1 3985   1.821   1.430   0.509
 1260HOH     H2 3986   1.731   1.361   0.408
 1261HOH      O 3987   1.919   0.881   1.102
 1261HOH     H1 3988   2.002   0.895   1.055
 1261HOH     H2 3989   1.852   0.909   1.040
 1262HOH      O 3990   0.443   2.583   0.944
 1262HOH     H1 3991   0.380   2.615   0.879
 1262HOH     H2 3992   0.394   2.584   1.027
 1263HOH      O 3993   0.291   1.599   3.695
 1263HOH     H1 3994   0.220   1.640   3.744
 1263HOH     H2 3995   0.321   1.528   3.752
 1264HOH      O 3996   3.227   3.448   1.912
 1264HOH     H1 3997   3.158   3.503   1.876
 1264HOH     H2 3998   3.302   3.506   1.921
 1265HOH      O 3999   0.227   0.505   1.752
 1265HOH     H1 4000   0.193   0.516   1.664
 1265HOH     H2 4001   0.164   0.449   1.796
 1266HOH      O 4002   2.141   0.602   0.746
 1266HOH     H1 4003   2.212   0.540   0.731
 1266HOH     H2 4004   2.168   0.681   0.700
 1267HOH      O 4005   0.458   0.548   1.454
 1267HOH     H1 4006   0.375   0.536   1.409
 1267HOH     H2 4007   0.451   0.634   1.496
 1268HOH      O 4008   1.528   1.854   3.166
 1268HOH     H1 4009   1.526   1.829   3.073
 1268HOH     H2 4010   1.438   1.882   3.185
 1269HOH      O 4011   0.215   3.010   2.096
 1269HOH     H1 4012   0.209   3.042   2.186
 1269HOH     H2 4013   0.283   3.064   2.056
 1270HOH      O 4014   0.166   0.248   2.253
 1270HOH     H1 4015   0.191   0.218   2.165
 1270HOH     H2 4016   0.246   0.240   2.305
 1271HOH      O 4017   2.407   0.162   2.804
 1271HOH     H1 4018   2.355   0.242   2.800
 1271HOH     H2 4019   2.422   0.148   2.898
 1272HOH      O 4020   2.819   1.461   0.657
 1272HOH     H1 4021   2.735   1.415   0.652
 1272HOH     H2 4022   2.869   1.412   0.722
 1273HOH      O 4023   2.921   2.232   1.161
 1273HOH     H1 4024   2.912   2.285   1.082
 1273HOH     H2 4025   2.844   2.254   1.214
 1274HOH      O 4026   3.080   2.244   3.568
 1274HOH     H1 4027   3.003   2.280   3.612
 1274HOH     H2 4028   3.090   2.156   3.607
 1275HOH      O 4029   0.119   1.737   2.956
 1275HOH     H1 4030   0.111   1.787   3.038
 1275HOH     H2 4031   0.048   1.674   2.959
 1276HOH      O 4032   2.217   1.565   1.617
 1276HOH     H1 4033   2.283   1.627   1.586
 1276HOH     H2 4034   2.159   1.618   1.672
 1277HOH      O 4035   3.949   0.856   2.969
 1277HOH     H1 4036   4.041   0.837   2.987
 1277HOH     H2 4037   3.944   0.951   2.966
 1278HOH      O 4038   2.953   1.757   1.601
 1278HOH     H1 4039   2.978   1.664   1.608
 1278HOH     H2 4040   2.912   1.764   1.515
 1279HOH      O 4041   0.405   0.127   3.220
 1279HOH     H1 4042   0.415   0.098   3.311
 1279HOH     H2 4043   0.359   0.056   3.177
 1280HOH      O 4044   1.942   3.390   2.249
 1280HOH     H1 4045   1.896   3.466   2.213
 1280HOH     H2 4046   1.987   3.423   2.326
 1281HOH      O 4047   1.308   3.254   2.012
 1281HOH     H1 4048   1.358   3.186   1.967
 1281HOH     H2 4049   1.291   3.319   1.943
 1282HOH      O 4050   2.467   1.208   3.462
 1282HOH     H1 4051   2.373   1.198   3.481
 1282HOH     H2 4052   2.509   1.207   3.548
 1283HOH      O 4053   2.444   3.781   0.685
 1283HOH     H1 4054   2.466   3.713   0.748
 1283HOH     H2 4055   2.491   3.756   0.605
 1284HOH      O 4056   2.564   0.987   0.780
 1284HOH     H1 4057   2.533   1.009   0.692
 1284HOH     H2 4058   2.496   0.930   0.816
 1285HOH      O 4059   0.662   1.238   0.202
 1285HOH     H1 4060   0.611   1.219   0.281
 1285HOH     H2 4061   0.751   1.210   0.223
 1286HOH      O 4062   2.762   4.034   0.723
 1286HOH     H1 4063   2.673   4.057   0.699
 1286HOH     H2 4064   2.802   4.003   0.642
 1287HOH      O 4065   2.295   3.082   2.367
 1287HOH     H1 4066   2.367   3.061   2.308
 1287HOH     H2 4067   2.228   3.120   2.309
 1288HOH      O 4068   2.304   1.824   1.535
 1288HOH     H1 4069   2.370   1.825   1.466
 1288HOH     H2 4070   2.350   1.794   1.613
 1289HOH      O 4071   0.742   0.363   3.772
 1289HOH     H1 4072   0.673   0.304   3.801
 1289HOH     H2 4073   0.806   0.362   3.843
 1290HOH      O 4074   2.522   1.870   0.191
 1290HOH     H1 4075   2.587   1.881   0.260
 1290HOH     H2 4076   2.537   1.944   0.132
 1291HOH      O 4077   2.965   3.317   3.025
 1291HOH     H1 4078   3.042   3.285   2.978
 1291HOH     H2 4079   2.895   3.258   2.997
 1292HOH      O 4080   3.258   0.605   1.116
 1292HOH     H1 4081   3.225   0.533   1.062
 1292HOH     H2 4082   3.215   0.594   1.200
 1293HOH      O 4083   3.158   2.559   2.232
 1293HOH     H1 4084   3.169   2.523   2.321
 1293HOH     H2 4085   3.231   2.522   2.182
 1294HOH      O 4086   3.797   1.524   2.181
 1294HOH     H1 4087   3.726   1.526   2.117
 1294HOH     H2 4088   3.852   1.451   2.153
 1295HOH      O 4089   3.393   0.785   3.708
 1295HOH     H1 4090   3.409   0.695   3.737
 1295HOH     H2 4091   3.480   0.819   3.687
 1296HOH      O 4092   1.029   0.194   0.904
 1296HOH     H1 4093   0.940   0.179   0.935
 1296HOH     H2 4094   1.019   0.236   0.819
 1297HOH      O 4095   2.071   1.338   0.702
 1297HOH     H1 4096   2.099   1.354   0.792
 1297HOH     H2 4097   2.112   1.255   0.679
 1298HOH      O 4098   2.984   1.804   3.744
 1298HOH     H1 4099   2.973   1.736   3.678
 1298HOH     H2 4100   3.072   1.839   3.730
 1299HOH      O 4101   0.618   0.104   1.663
 1299HOH     H1 4102   0.625   0.010   1.648
 1299HOH     H2 4103   0.526   0.124   1.649
 1300HOH      O 4104   0.353   0.131   1.607
 1300HOH     H1 4105   0.281   0.141   1.669
 1300HOH     H2 4106   0.330   0.189   1.534
 1301HOH      O 4107   0.277   0.352   0.497
 1301HOH     H1 4108   0.353   0.406   0.518
 1301HOH     H2 4109   0.207   0.388   0.552
 1302HOH      O 4110   0.216   1.116   2.035
 1302HOH     H1 4111   0.149   1.058   2.071
 1302HOH     H2 4112   0.170   1.166   1.967
 1303HOH      O 4113   0.385   3.072   3.583
 1303HOH     H1 4114   0.412   3.018   3.508
 1303HOH     H2 4115   0.428   3.031   3.658
 1304HOH      O 4116   1.430   1.327   3.046
 1304HOH     H1 4117   1.350   1.276   3.029
 1304HOH     H2 4118   1.430   1.394   2.978
 1305HOH      O 4119   2.921   2.974   2.281
 1305HOH     H1 4120   2.952   2.937   2.199
 1305HOH     H2 4121   2.851   2.915   2.310
 1306HOH      O 4122   2.744   1.310   1.676
 1306HOH     H1 4123   2.832   1.282   1.701
 1306HOH     H2 4124   2.695   1.229   1.666
 1307HOH      O 4125   1.541   1.041   1.729
 1307HOH     H1 4126   1.625   0.995   1.733
 1307HOH     H2 4127   1.560   1.128   1.764
 1308HOH      O 4128   1.534   0.978   1.267
 1308HOH     H1 4129   1.557   0.973   1.174
 1308HOH     H2 4130   1.478   1.055   1.274
 1309HOH      O 4131   0.777   0.400   2.723
 1309HOH     H1 4132   0.832   0.454   2.667
 1309HOH     H2 4133   0.690   0.404   2.682
 1310HOH      O 4134   4.020   0.738   0.297
 1310HOH     H1 4135   4.030   0.717   0.390
 1310HOH     H2 4136   4.069   0.669   0.251
 1311HOH      O 4137   2.962   0.835   1.221
 1311HOH     H1 4138   3.055   0.856   1.229
 1311HOH     H2 4139   2.917   0.919   1.227
 1312HOH      O 4140   2.231   3.673   0.879
 1312HOH     H1 4141   2.169   3.642   0.812
 1312HOH     H2 4142   2.298   3.605   0.883
 1313HOH      O 4143   1.605   3.201   0.559
 1313HOH     H1 4144   1.612   3.146   0.637
 1313HOH     H2 4145   1.605   3.291   0.592
 1314HOH      O 4146   1.834   0.675   3.166
 1314HOH     H1 4147   1.809   0.585   3.187
 1314HOH     H2 4148   1.769   0.703   3.102
 1315HOH      O 4149   0.555   1.775   1.296
 1315HOH     H1 4150   0.564   1.859   1.341
 1315HOH     H2 4151   0.467   1.745   1.318
 1316HOH      O 4152   3.958   3.455   1.586
 1316HOH     H1 4153   4.019   3.422   1.519
 1316HOH     H2 4154   3.916   3.530   1.544
 1317HOH      O 4155   0.681   2.081   1.227
 1317HOH     H1 4156   0.612   2.070   1.292
 1317HOH     H2 4157   0.750   2.021   1.255
 1318HOH      O 4158   2.497   1.181   2.248
 1318HOH     H1 4159   2.409   1.197   2.215
 1318HOH     H2 4160   2.530   1.267   2.273
 1319HOH      O 4161   3.474   3.903   0.335
 1319HOH     H1 4162   3.529   3.893   0.413
 1319HOH     H2 4163   3.508   3.981   0.291
 1320HOH      O 4164   2.115   3.769   2.547
 1320HOH     H1 4165   2.093   3.844   2.492
 1320HOH     H2 4166   2.208   3.780   2.566
 1321HOH      O 4167   3.177   2.773   2.497
 1321HOH     H1 4168   3.181   2.815   2.411
 1321HOH     H2 4169   3.193   2.680   2.479
 1322HOH      O 4170   1.600   1.294   1.551
 1322HOH     H1 4171   1.537   1.236   1.595
 1322HOH     H2 4172   1.671   1.236   1.523
 1323HOH      O 4173   0.818  -0.003   3.998
 1323HOH     H1 4174   0.801   0.003   4.092
 1323HOH     H2 4175   0.880   0.068   3.981
 1324HOH      O 4176   3.704   1.189   1.662
 1324HOH     H1 4177   3.637   1.208   1.597
 1324HOH     H2 4178   3.657   1.187   1.746
 1325HOH      O 4179   2.195   2.982   0.363
 1325HOH     H1 4180   2.132   2.913   0.382
 1325HOH     H2 4181   2.170   3.014   0.276
 1326HOH      O 4182   1.303   3.766   0.167
 1326HOH     H1 4183   1.295   3.688   0.113
 1326HOH     H2 4184   1.372   3.745   0.230
 1327HOH      O 4185   2.031   0.506   1.947
 1327HOH     H1 4186   2.103   0.523   1.886
 1327HOH     H2 4187   1.969   0.454   1.896
 1328HOH      O 4188   3.098   3.586   3.522
 1328HOH     H1 4189   3.071   3.522   3.587
 1328HOH     H2 4190   3.079   3.545   3.437
 1329HOH      O 4191   3.986   2.808   0.274
 1329HOH     H1 4192   3.946   2.761   0.200
 1329HOH     H2 4193   3.930   2.786   0.349
 1330HOH      O 4194   0.422   3.926   1.693
 1330HOH     H1 4195   0.374   3.875   1.628
 1330HOH     H2 4196   0.416   4.016   1.662
 1331HOH      O 4197   3.952   0.484   3.118
 1331HOH     H1 4198   3.961   0.502   3.024
 1331HOH     H2 4199   4.000   0.402   3.131
 1332HOH      O 4200   2.760   2.305   2.881
 1332HOH     H1 4201   2.667   2.329   2.888
 1332HOH     H2 4202   2.807   2.380   2.915
 1333HOH      O 4203   2.587   2.082   2.171
 1333HOH     H1 4204   2.609   2.175   2.172
 1333HOH     H2 4205   2.649   2.043   2.232
 1334HOH      O 4206   0.928   1.204   1.220
 1334HOH     H1 4207   0.846   1.156   1.208
 1334HOH     H2 4208   0.932   1.264   1.146
 1335HOH      O 4209   1.899   0.444   2.320
 1335HOH     H1 4210   1.820   0.460   2.372
 1335HOH     H2 4211   1.890   0.502   2.245
 1336HOH      O 4212   3.209   1.409   1.380
 1336HOH     H1 4213   3.291   1.367   1.354
 1336HOH     H2 4214   3.226   1.503   1.369
 1337HOH      O 4215   2.823   3.488   0.530
 1337HOH     H1 4216   2.875   3.568   0.538
 1337HOH     H2 4217   2.883   3.424   0.493
 1338HOH      O 4218   3.410   0.026   2.160
 1338HOH     H1 4219   3.373  -0.027   2.232
 1338HOH     H2 4220   3.341   0.089   2.140
 1339HOH      O 4221   2.484   1.663   0.030
 1339HOH     H1 4222   2.538   1.730   0.073
 1339HOH     H2 4223   2.431   1.626   0.101
 1340HOH      O 4224   3.693   3.330   3.807
 1340HOH     H1 4225   3.749   3.334   3.730
 1340HOH     H2 4226   3.754   3.328   3.881
 1341HOH      O 4227   0.949   2.903   0.212
 1341HOH     H1 4228   1.031   2.872   0.173
 1341HOH     H2 4229   0.977   2.969   0.276
 1342HOH      O 4230   2.586   3.074   1.659
 1342HOH     H1 4231   2.656   3.110   1.714
 1342HOH     H2 4232   2.630   3.051   1.577
 1343HOH      O 4233   3.761   3.583   1.448
 1343HOH     H1 4234   3.732   3.573   1.357
 1343HOH     H2 4235   3.699   3.532   1.499
 1344HOH      O 4236   0.213   3.757   2.074
 1344HOH     H1 4237   0.177   3.717   1.995
 1344HOH     H2 4238   0.304   3.774   2.053
 1345HOH      O 4239   3.152   2.593   3.259
 1345HOH     H1 4240   3.064   2.623   3.235
 1345HOH     H2 4241   3.207   2.619   3.185
 1346HOH      O 4242   1.975   2.023   2.139
 1346HOH     H1 4243   2.020   1.945   2.171
 1346HOH     H2 4244   1.988   2.088   2.208
 1347HOH      O 4245   1.877   0.221   2.875
 1347HOH     H1 4246   1.821   0.230   2.798
 1347HOH     H2 4247   1.910   0.309   2.891
 1348HOH      O 4248   2.016   2.217   0.155
 1348HOH     H1 4249   2.063   2.264   0.223
 1348HOH     H2 4250   2.077   2.214   0.081
 1349HOH      O 4251   3.809   1.423   1.557
 1349HOH     H1 4252   3.898   1.443   1.529
 1349HOH     H2 4253   3.814   1.333   1.589
 1350HOH      O 4254   1.460   1.447   3.732
 1350HOH     H1 4255   1.394   1.400   3.783
 1350HOH     H2 4256   1.513   1.493   3.797
 1351HOH      O 4257   0.007   2.820   2.914
 1351HOH     H1 4258  -0.038   2.901   2.889
 1351HOH     H2 4259   0.098   2.835   2.889
 1352HOH      O 4260   0.418   0.594   0.305
 1352HOH     H1 4261   0.491   0.532   0.304
 1352HOH     H2 4262   0.376   0.583   0.220
 1353HOH      O 4263   2.085   2.304   1.704
 1353HOH     H1 4264   2.140   2.239   1.659
 1353HOH     H2 4265   2.038   2.349   1.634
 1354HOH      O 4266   0.463   2.122   1.083
 1354HOH     H1 4267   0.447   2.063   1.009
 1354HOH     H2 4268   0.555   2.107   1.106
 1355HOH      O 4269   3.601   1.250   1.945
 1355HOH     H1 4270   3.584   1.344   1.946
 1355HOH     H2 4271   3.599   1.224   2.037
 1356HOH      O 4272   3.792   0.190   1.391
 1356HOH     H1 4273   3.775   0.217   1.300
 1356HOH     H2 4274   3.844   0.262   1.427
 1357HOH      O 4275   0.799   2.485   0.520
 1357HOH     H1 4276   0.861   2.555   0.498
 1357HOH     H2 4277   0.765   2.510   0.606
 1358HOH      O 4278   1.200   3.347   3.333
 1358HOH     H1 4279   1.128   3.406   3.353
 1358HOH     H2 4280   1.157   3.264   3.311
 1359HOH      O 4281   3.639   2.759   0.640
 1359HOH     H1 4282   3.699   2.769   0.714
 1359HOH     H2 4283   3.673   2.820   0.574
 1360HOH      O 4284   0.716   3.753   2.063
 1360HOH     H1 4285   0.745   3.811   1.992
 1360HOH     H2 4286   0.623   3.739   2.045
 1361HOH      O 4287   2.712   1.885   0.371
 1361HOH     H1 4288   2.797   1.872   0.329
 1361HOH     H2 4289   2.683   1.796   0.395
 1362HOH      O 4290   2.827   0.549   2.419
 1362HOH     H1 4291   2.890   0.550   2.492
 1362HOH     H2 4292   2.853   0.474   2.366
 1363HOH      O 4293   3.988   0.518   3.564
 1363HOH     H1 4294   3.930   0.546   3.493
 1363HOH     H2 4295   4.076   0.538   3.532
 1364HOH      O 4296   3.822   1.018   0.571
 1364HOH     H1 4297   3.797   1.074   0.645
 1364HOH     H2 4298   3.869   1.077   0.512
 1365HOH      O 4299   1.983   2.233   3.741
 1365HOH     H1 4300   2.036   2.259   3.816
 1365HOH     H2 4301   2.038   2.255   3.665
 1366HOH      O 4302   2.639   1.074   3.306
 1366HOH     H1 4303   2.598   1.076   3.219
 1366HOH     H2 4304   2.570   1.104   3.365
 1367HOH      O 4305   2.348   2.787   1.685
 1367HOH     H1 4306   2.404   2.854   1.725
 1367HOH     H2 4307   2.266   2.791   1.734
 1368HOH      O 4308   2.725   1.723   2.329
 1368HOH     H1 4309   2.790   1.792   2.313
 1368HOH     H2 4310   2.641   1.767   2.323
 1369HOH      O 4311   3.424   1.760   0.187
 1369HOH     H1 4312   3.332   1.735   0.177
 1369HOH     H2 4313   3.439   1.822   0.116
 1370HOH      O 4314   3.506   3.085   0.526
 1370HOH     H1 4315   3.579   3.033   0.491
 1370HOH     H2 4316   3.463   3.121   0.448
 1371HOH      O 4317   0.639   3.916   2.311
 1371HOH     H1 4318   0.700   3.861   2.263
 1371HOH     H2 4319   0.694   3.979   2.358
 1372HOH      O 4320   1.774   1.344   0.848
 1372HOH     H1 4321   1.820   1.388   0.777
 1372HOH     H2 4322   1.766   1.410   0.917
 1373HOH      O 4323   0.535   3.706   0.224
 1373HOH     H1 4324   0.478   3.723   0.299
 1373HOH     H2 4325   0.594   3.637   0.253
 1374HOH      O 4326   2.309   0.218   2.266
 1374HOH     H1 4327   2.303   0.151   2.198
 1374HOH     H2 4328   2.232   0.203   2.321
 1375HOH      O 4329   2.238   2.444   1.894
 1375HOH     H1 4330   2.181   2.410   1.824
 1375HOH     H2 4331   2.321   2.398   1.881
 1376HOH      O 4332   0.549   0.441   4.039
 1376HOH     H1 4333   0.506   0.369   4.086
 1376HOH     H2 4334   0.481   0.476   3.981
 1377HOH      O 4335   0.341   0.543   3.913
 1377HOH     H1 4336   0.296   0.567   3.994
 1377HOH     H2 4337   0.321   0.614   3.852
 1378HOH      O 4338   1.858   1.464   3.137
 1378HOH     H1 4339   1.783   1.407   3.118
 1378HOH     H2 4340   1.847   1.487   3.229
 1379HOH      O 4341   0.215   3.849   1.538
 1379HOH     H1 4342   0.145   3.843   1.603
 1379HOH     H2 4343   0.174   3.889   1.462
 1380HOH      O 4344   2.009   2.163   3.129
 1380HOH     H1 4345   1.921   2.156   3.093
 1380HOH     H2 4346   2.059   2.211   3.063
 1381HOH      O 4347   1.824   2.782   2.752
 1381HOH     H1 4348   1.828   2.874   2.724
 1381HOH     H2 4349   1.784   2.736   2.678
 1382HOH      O 4350   1.869   0.451   0.066
 1382HOH     H1 4351   1.805   0.503   0.018
 1382HOH     H2 4352   1.837   0.450   0.156
 1383HOH      O 4353   3.962   1.457   0.663
 1383HOH     H1 4354   3.948   1.446   0.757
 1383HOH     H2 4355   4.028   1.391   0.641
 1384HOH      O 4356   1.556   1.581   0.719
 1384HOH     H1 4357   1.524   1.638   0.790
 1384HOH     H2 4358   1.565   1.495   0.759
 1385HOH      O 4359   1.785   2.853   3.326
 1385HOH     H1 4360   1.759   2.929   3.379
 1385HOH     H2 4361   1.702   2.811   3.303
 1386HOH      O 4362   3.309   1.352   3.240
 1386HOH     H1 4363   3.255   1.354   3.320
 1386HOH     H2 4364   3.270   1.282   3.187
 1387HOH      O 4365   3.787   1.254   3.212
 1387HOH     H1 4366   3.761   1.238   3.303
 1387HOH     H2 4367   3.751   1.341   3.192
 1388HOH      O 4368   1.257   1.895   0.235
 1388HOH     H1 4369   1.185   1.852   0.281
 1388HOH     H2 4370   1.226   1.902   0.144
 1389HOH      O 4371   0.187   3.488   3.112
 1389HOH     H1 4372   0.151   3.413   3.064
 1389HOH     H2 4373   0.113   3.548   3.120
 1390HOH      O 4374   1.276   3.476   0.166
 1390HOH     H1 4375   1.255   3.384   0.154
 1390HOH     H2 4376   1.366   3.476   0.200
 1391HOH      O 4377   2.723   1.771   2.774
 1391HOH     H1 4378   2.686   1.859   2.784
 1391HOH     H2 4379   2.689   1.723   2.849
 1392HOH      O 4380   1.033   3.390   0.913
 1392HOH     H1 4381   0.950   3.343   0.919
 1392HOH     H2 4382   1.043   3.410   0.820
 1393HOH      O 4383   0.256   0.555   2.883
 1393HOH     H1 4384   0.212   0.627   2.928
 1393HOH     H2 4385   0.226   0.561   2.793
 1394HOH      O 4386   0.592   3.299   0.052
 1394HOH     H1 4387   0.559   3.377   0.008
 1394HOH     H2 4388   0.683   3.291   0.021
 1395HOH      O 4389   0.035   3.583   1.199
 1395HOH     H1 4390   0.092   3.549   1.131
 1395HOH     H2 4391  -0.000   3.664   1.162
 1396HOH      O 4392   2.175   1.165   3.260
 1396HOH     H1 4393   2.084   1.157   3.232
 1396HOH     H2 4394   2.212   1.232   3.201
 1397HOH      O 4395   3.109   3.122   3.716
 1397HOH     H1 4396   3.172   3.050   3.711
 1397HOH     H2 4397   3.063   3.108   3.799
 1398HOH      O 4398   4.024   1.443   2.589
 1398HOH     H1 4399   3.979   1.430   2.672
 1398HOH     H2 4400   4.110   1.476   2.613
 1399HOH      O 4401   0.059   3.949   2.172
 1399HOH     H1 4402   0.084   3.861   2.144
 1399HOH     H2 4403   0.066   4.003   2.093
 1400HOH      O 4404   0.359   0.983   1.167
 1400HOH     H1 4405   0.326   0.924   1.100
 1400HOH     H2 4406   0.291   1.050   1.177
 1401HOH      O 4407   2.468   1.407   4.029
 1401HOH     H1 4408   2.476   1.372   3.941
 1401HOH     H2 4409   2.457   1.501   4.016
 1402HOH      O 4410   2.052   1.381   2.031
 1402HOH     H1 4411   2.014   1.411   2.113
 1402HOH     H2 4412   1.982   1.329   1.990
 1403HOH      O 4413   3.473   0.778   1.103
 1403HOH     H1 4414   3.409   0.708   1.092
 1403HOH     H2 4415   3.536   0.763   1.033
 1404HOH      O 4416   1.975   3.542   0.357
 1404HOH     H1 4417   1.895   3.593   0.340
 1404HOH     H2 4418   2.041   3.608   0.377
 1405HOH      O 4419   2.333   1.210   1.540
 1405HOH     H1 4420   2.335   1.282   1.476
 1405HOH     H2 4421   2.369   1.135   1.493
 1406HOH      O 4422   3.375   2.732   1.982
 1406HOH     H1 4423   3.348   2.812   2.026
 1406HOH     H2 4424   3.468   2.724   2.000
 1407HOH      O 4425   2.619   1.227   1.126
 1407HOH     H1 4426   2.657   1.153   1.080
 1407HOH     H2 4427   2.526   1.222   1.108
 1408HOH      O 4428   1.794   1.996   1.671
 1408HOH     H1 4429   1.860   2.002   1.739
 1408HOH     H2 4430   1.822   2.059   1.605
 1409HOH      O 4431   1.034   0.187   0.592
 1409HOH     H1 4432   1.077   0.271   0.576
 1409HOH     H2 4433   1.104   0.128   0.620
 1410HOH      O 4434   3.835   3.118   2.397
 1410HOH     H1 4435   3.776   3.172   2.345
 1410HOH     H2 4436   3.852   3.041   2.342
 1411HOH      O 4437   3.540   2.924   2.285
 1411HOH     H1 4438   3.633   2.906   2.273
 1411HOH     H2 4439   3.526   2.912   2.379
 1412HOH      O 4440   3.561   2.670   1.311
 1412HOH     H1 4441   3.527   2.581   1.307
 1412HOH     H2 4442   3.492   2.721   1.354
 1413HOH      O 4443   0.219   0.262   2.719
 1413HOH     H1 4444   0.160   0.207   2.668
 1413HOH     H2 4445   0.206   0.351   2.685
 1414HOH      O 4446   3.827   3.385   3.448
 1414HOH     H1 4447   3.869   3.300   3.465
 1414HOH     H2 4448   3.782   3.373   3.364
 1415HOH      O 4449   1.036   3.152   3.203
 1415HOH     H1 4450   1.071   3.087   3.263
 1415HOH     H2 4451   1.070   3.126   3.117
 1416HOH      O 4452   3.778   3.655   1.832
 1416HOH     H1 4453   3.816   3.567   1.828
 1416HOH     H2 4454   3.731   3.656   1.915
 1417HOH      O 4455   1.791   3.114   0.095
 1417HOH     H1 4456   1.764   3.149   0.011
 1417HOH     H2 4457   1.758   3.024   0.095
 1418HOH      O 4458  -0.005   3.363   1.338
 1418HOH     H1 4459   0.056   3.322   1.276
 1418HOH     H2 4460  -0.021   3.450   1.303
 1419HOH      O 4461   0.361   0.184   0.119
 1419HOH     H1 4462   0.282   0.167   0.068
 1419HOH     H2 4463   0.411   0.103   0.115
 1420HOH      O 4464   3.706   3.155   0.283
 1420HOH     H1 4465   3.668   3.135   0.197
 1420HOH     H2 4466   3.671   3.241   0.305
 1421HOH      O 4467   0.938   1.943   1.243
 1421HOH     H1 4468   0.932   1.900   1.157
 1421HOH     H2 4469   0.998   2.016   1.228
 1422HOH      O 4470   0.599   3.045   3.934
 1422HOH     H1 4471   0.686   3.014   3.959
 1422HOH     H2 4472   0.586   3.122   3.989
 1423HOH      O 4473   1.743   2.663   2.519
 1423HOH     H1 4474   1.823   2.634   2.475
 1423HOH     H2 4475   1.707   2.730   2.461
 1424HOH      O 4476   4.023   1.522   0.237
 1424HOH     H1 4477   3.953   1.587   0.235
 1424HOH     H2 4478   3.988   1.450   0.290
 1425HOH      O 4479   1.698   2.620   1.687
 1425HOH     H1 4480   1.649   2.691   1.727
 1425HOH     H2 4481   1.668   2.541   1.733
 1426HOH      O 4482   2.780   3.619   0.893
 1426HOH     H1 4483   2.847   3.645   0.956
 1426HOH     H2 4484   2.701   3.665   0.921
 1427HOH      O 4485   0.469   0.374   0.891
 1427HOH     H1 4486   0.468   0.449   0.832
 1427HOH     H2 4487   0.458   0.411   0.978
 1428HOH      O 4488   1.339   1.863   1.534
 1428HOH     H1 4489   1.316   1.832   1.446
 1428HOH     H2 4490   1.329   1.786   1.590
 1429HOH      O 4491   3.513   1.922   1.604
 1429HOH     H1 4492   3.492   1.972   1.683
 1429HOH     H2 4493   3.606   1.901   1.613
 1430HOH      O 4494   1.357   2.503   0.307
 1430HOH     H1 4495   1.278   2.455   0.282
 1430HOH     H2 4496   1.346   2.590   0.269
 1431HOH      O 4497   0.648   1.147   1.220
 1431HOH     H1 4498   0.674   1.197   1.298
 1431HOH     H2 4499   0.564   1.185   1.195
 1432HOH      O 4500   3.346   3.212   1.490
 1432HOH     H1 4501   3.316   3.292   1.448
 1432HOH     H2 4502   3.399   3.168   1.423
 1433HOH      O 4503   1.348   0.712   1.728
 1433HOH     H1 4504   1.252   0.718   1.720
 1433HOH     H2 4505   1.372   0.788   1.781
 1434HOH      O 4506   2.336   2.024   3.013
 1434HOH     H1 4507   2.380   2.093   3.062
 1434HOH     H2 4508   2.262   1.999   3.068
 1435HOH      O 4509   1.008   1.605   1.405
 1435HOH     H1 4510   0.928   1.628   1.357
 1435HOH     H2 4511   1.007   1.663   1.482
 1436HOH      O 4512   3.940   2.337   3.801
 1436HOH     H1 4513   4.015   2.321   3.743
 1436HOH     H2 4514   3.957   2.283   3.878
 1437HOH      O 4515   2.992   2.316   2.239
 1437HOH     H1 4516   3.031   2.403   2.254
 1437HOH     H2 4517   2.938   2.327   2.160
 1438HOH      O 4518   2.562   2.405   0.965
 1438HOH     H1 4519   2.517   2.363   1.039
 1438HOH     H2 4520   2.600   2.484   1.002
 1439HOH      O 4521   3.167   1.160   3.064
 1439HOH     H1 4522   3.083   1.138   3.103
 1439HOH     H2 4523   3.190   1.083   3.012
 1440HOH      O 4524   3.120   2.354   1.915
 1440HOH     H1 4525   3.136   2.270   1.870
 1440HOH     H2 4526   3.040   2.338   1.966
 1441HOH      O 4527   3.736   2.196   3.680
 1441HOH     H1 4528   3.782   2.268   3.724
 1441HOH     H2 4529   3.718   2.133   3.750
 1442HOH      O 4530   2.851   0.783   1.843
 1442HOH     H1 4531   2.874   0.778   1.750
 1442HOH     H2 4532   2.760   0.754   1.847
 1443HOH      O 4533   3.254   4.055   0.253
 1443HOH     H1 4534   3.264   4.060   0.158
 1443HOH     H2 4535   3.324   3.995   0.281
 1444HOH      O 4536   0.949   1.687   3.997
 1444HOH     H1 4537   1.024   1.739   4.029
 1444HOH     H2 4538   0.980   1.648   3.916
 1445HOH      O 4539   1.095   3.926   1.303
 1445HOH     H1 4540   1.130   4.015   1.305
 1445HOH     H2 4541   1.149   3.877   1.365
 1446HOH      O 4542   2.618   3.040   2.008
 1446HOH     H1 4543   2.664   3.120   2.036
 1446HOH     H2 4544   2.688   2.976   1.993
 1447HOH      O 4545   3.365   0.139   3.194
 1447HOH     H1 4546   3.365   0.223   3.148
 1447HOH     H2 4547   3.440   0.091   3.158
 1448HOH      O 4548   2.011   1.523   3.711
 1448HOH     H1 4549   1.970   1.589   3.654
 1448HOH     H2 4550   2.100   1.515   3.678
 1449HOH      O 4551   0.508   3.267   3.152
 1449HOH     H1 4552   0.581   3.207   3.172
 1449HOH     H2 4553   0.520   3.288   3.060
 1450HOH      O 4554   3.339   2.853   3.458
 1450HOH     H1 4555   3.425   2.851   3.416
 1450HOH     H2 4556   3.284   2.904   3.398
 1451HOH      O 4557   2.817   3.167   1.795
 1451HOH     H1 4558   2.783   3.210   1.873
 1451HOH     H2 4559   2.909   3.192   1.791
 1452HOH      O 4560   1.301   3.415   2.922
 1452HOH     H1 4561   1.262   3.358   2.857
 1452HOH     H2 4562   1.334   3.355   2.989
 1453HOH      O 4563   3.027   1.447   2.796
 1453HOH     H1 4564   3.103   1.451   2.738
 1453HOH     H2 4565   3.010   1.538   2.819
 1454HOH      O 4566   0.261   2.826   3.963
 1454HOH     H1 4567   0.181   2.830   3.911
 1454HOH     H2 4568   0.277   2.733   3.977
 1455HOH      O 4569   1.829   3.940   0.480
 1455HOH     H1 4570   1.837   3.942   0.384
 1455HOH     H2 4571   1.864   4.024   0.509
 1456HOH      O 4572   0.763   3.929   1.852
 1456HOH     H1 4573   0.788   4.015   1.885
 1456HOH     H2 4574   0.764   3.939   1.757
 1457HOH      O 4575   1.287   2.906   0.538
 1457HOH     H1 4576   1.270   2.886   0.631
 1457HOH     H2 4577   1.382   2.915   0.533
 1458HOH      O 4578   2.681   2.643   1.694
 1458HOH     H1 4579   2.694   2.671   1.603
 1458HOH     H2 4580   2.644   2.555   1.688
 1459HOH      O 4581   2.287   0.031   2.057
 1459HOH     H1 4582   2.335  -0.002   1.981
 1459HOH     H2 4583   2.195   0.014   2.037
 1460HOH      O 4584   3.414   3.598   2.438
 1460HOH     H1 4585   3.337   3.650   2.414
 1460HOH     H2 4586   3.481   3.622   2.374
 1461HOH      O 4587   3.819   1.999   0.535
 1461HOH     H1 4588   3.732   1.960   0.533
 1461HOH     H2 4589   3.810   2.081   0.486
 1462HOH      O 4590   2.589   2.669   1.410
 1462HOH     H1 4591   2.577   2.586   1.456
 1462HOH     H2 4592   2.524   2.667   1.340
 1463HOH      O 4593   0.063   3.376   2.571
 1463HOH     H1 4594  -0.012   3.416   2.526
 1463HOH     H2 4595   0.065   3.286   2.540
 1464HOH      O 4596   0.902   2.736   0.508
 1464HOH     H1 4597   0.845   2.810   0.492
 1464HOH     H2 4598   0.911   2.733   0.603
 1465HOH      O 4599   2.213   1.037   1.239
 1465HOH     H1 4600   2.158   1.093   1.294
 1465HOH     H2 4601   2.155   0.967   1.211
 1466HOH      O 4602   3.396   2.979   2.085
 1466HOH     H1 4603   3.463   3.009   2.023
 1466HOH     H2 4604   3.442   2.972   2.168
 1467HOH      O 4605   3.987   0.110   1.575
 1467HOH     H1 4606   3.993   0.015   1.571
 1467HOH     H2 4607   3.919   0.133   1.512
 1468HOH      O 4608   1.483   1.938   0.767
 1468HOH     H1 4609   1.430   2.012   0.795
 1468HOH     H2 4610   1.431   1.896   0.698
 1469HOH      O 4611   1.828   3.946   0.200
 1469HOH     H1 4612   1.804   4.038   0.185
 1469HOH     H2 4613   1.807   3.902   0.118
 1470HOH      O 4614   2.323   2.174   2.631
 1470HOH     H1 4615   2.360   2.236   2.694
 1470HOH     H2 4616   2.304   2.096   2.683
 1471HOH      O 4617   1.520   0.693   0.943
 1471HOH     H1 4618   1.517   0.612   0.993
 1471HOH     H2 4619   1.603   0.689   0.895
 1472HOH      O 4620   1.900   1.975   2.549
 1472HOH     H1 4621   1.833   1.908   2.533
 1472HOH     H2 4622   1.863   2.055   2.514
 1473HOH      O 4623   3.786   0.092   2.884
 1473HOH     H1 4624   3.793   0.170   2.830
 1473HOH     H2 4625   3.742   0.028   2.828
 1474HOH      O 4626   2.474   1.117   1.814
 1474HOH     H1 4627   2.406   1.171   1.774
 1474HOH     H2 4628   2.427   1.042   1.849
 1475HOH      O 4629   2.601   2.904   3.013
 1475HOH     H1 4630   2.609   2.823   2.963
 1475HOH     H2 4631   2.672   2.960   2.980
 1476HOH      O 4632   2.573   2.718   0.734
 1476HOH     H1 4633   2.626   2.668   0.672
 1476HOH     H2 4634   2.508   2.763   0.680
 1477HOH      O 4635   2.456   3.322   0.164
 1477HOH     H1 4636   2.373   3.368   0.156
 1477HOH     H2 4637   2.434   3.239   0.206
 1478HOH      O 4638   3.005   1.000   3.798
 1478HOH     H1 4639   2.971   0.946   3.727
 1478HOH     H2 4640   3.038   0.937   3.862
 1479HOH      O 4641   2.028   3.936   3.611
 1479HOH     H1 4642   1.963   3.932   3.681
 1479HOH     H2 4643   2.082   3.858   3.623
 1480HOH      O 4644   1.408   2.571   0.558
 1480HOH     H1 4645   1.378   2.550   0.470
 1480HOH     H2 4646   1.488   2.520   0.569
 1481HOH      O 4647   3.168   3.061   1.624
 1481HOH     H1 4648   3.232   3.110   1.573
 1481HOH     H2 4649   3.164   2.975   1.582
 1482HOH      O 4650   3.672   3.630   3.403
 1482HOH     H1 4651   3.600   3.566   3.408
 1482HOH     H2 4652   3.751   3.577   3.403
 1483HOH      O 4653   0.086   0.962   3.862
 1483HOH     H1 4654   0.039   0.907   3.800
 1483HOH     H2 4655   0.033   0.960   3.942
 1484HOH      O 4656   1.034   2.645   0.015
 1484HOH     H1 4657   1.111   2.675   0.064
 1484HOH     H2 4658   1.006   2.566   0.062
 1485HOH      O 4659   1.269   2.757   0.128
 1485HOH     H1 4660   1.223   2.755   0.212
 1485HOH     H2 4661   1.320   2.838   0.131
 1486HOH      O 4662   0.400   1.233   0.809
 1486HOH     H1 4663   0.366   1.183   0.734
 1486HOH     H2 4664   0.459   1.297   0.770
 1487HOH      O 4665   0.241   0.529   2.609
 1487HOH     H1 4666   0.221   0.622   2.621
 1487HOH     H2 4667   0.209   0.508   2.522
 1488HOH      O 4668   1.682   3.696   0.595
 1488HOH     H1 4669   1.604   3.692   0.540
 1488HOH     H2 4670   1.730   3.773   0.564
 1489HOH      O 4671   1.294   0.216   3.170
 1489HOH     H1 4672   1.246   0.227   3.252
 1489HOH     H2 4673   1.307   0.121   3.162
 1490HOH      O 4674   1.365   2.899   2.055
 1490HOH     H1 4675   1.358   2.987   2.093
 1490HOH     H2 4676   1.274   2.871   2.044
 1491HOH      O 4677   2.026   3.995   2.017
 1491HOH     H1 4678   1.936   3.978   1.989
 1491HOH     H2 4679   2.018   4.069   2.078
 1492HOH      O 4680   3.497   3.854   3.443
 1492HOH     H1 4681   3.556   3.779   3.452
 1492HOH     H2 4682   3.551   3.930   3.466
 1493HOH      O 4683   1.941   2.493   1.579
 1493HOH     H1 4684   1.912   2.483   1.488
 1493HOH     H2 4685   1.862   2.517   1.627
 1494HOH      O 4686   3.847   1.890   1.953
 1494HOH     H1 4687   3.862   1.983   1.969
 1494HOH     H2 4688   3.862   1.878   1.860
 1495HOH      O 4689   3.181   0.941   1.603
 1495HOH     H1 4690   3.234   0.992   1.541
 1495HOH     H2 4691   3.091   0.971   1.588
 1496HOH      O 4692   0.022   3.881   0.084
 1496HOH     H1 4693   0.081   3.807   0.069
 1496HOH     H2 4694   0.051   3.920   0.166
 1497HOH      O 4695   1.314   2.935   1.277
 1497HOH     H1 4696   1.338   3.016   1.233
 1497HOH     H2 4697   1.388   2.915   1.334
 1498HOH      O 4698   3.277   0.226   2.828
 1498HOH     H1 4699   3.330   0.259   2.900
 1498HOH     H2 4700   3.340   0.200   2.761
 1499HOH      O 4701   2.487   1.970   3.319
 1499HOH     H1 4702   2.516   2.061   3.309
 1499HOH     H2 4703   2.397   1.978   3.352
 1500HOH      O 4704   3.829   1.056   3.823
 1500HOH     H1 4705   3.740   1.026   3.843
 1500HOH     H2 4706   3.870   1.068   3.908
 1501HOH      O 4707   0.799   3.877   1.581
 1501HOH     H1 4708   0.815   3.900   1.490
 1501HOH     H2 4709   0.740   3.801   1.577
 1502HOH      O 4710   2.101   2.970   1.339
 1502HOH     H1 4711   2.097   2.955   1.434
 1502HOH     H2 4712   2.195   2.972   1.320
 1503HOH      O 4713   0.690   2.131   3.477
 1503HOH     H1 4714   0.618   2.192   3.493
 1503HOH     H2 4715   0.745   2.174   3.412
 1504HOH      O 4716   2.651   1.084   2.043
 1504HOH     H1 4717   2.598   1.096   1.964
 1504HOH     H2 4718   2.591   1.103   2.115
 1505HOH      O 4719   3.047   3.511   3.257
 1505HOH     H1 4720   3.024   3.437   3.202
 1505HOH     H2 4721   3.142   3.518   3.250
 1506HOH      O 4722   3.909   2.524   2.020
 1506HOH     H1 4723   3.865   2.543   2.103
 1506HOH     H2 4724   4.001   2.547   2.037
 1507HOH      O 4725   3.646   3.859   0.079
 1507HOH     H1 4726   3.631   3.952   0.094
 1507HOH     H2 4727   3.622   3.817   0.162
 1508HOH      O 4728   0.698   0.848   3.623
 1508HOH     H1 4729   0.736   0.814   3.704
 1508HOH     H2 4730   0.728   0.789   3.555
 1509HOH      O 4731   3.348   2.494   3.671
 1509HOH     H1 4732   3.312   2.547   3.601
 1509HOH     H2 4733   3.411   2.436   3.628
 1510HOH      O 4734   0.242   2.600   1.161
 1510HOH     H1 4735   0.252   2.505   1.156
 1510HOH     H2 4736   0.152   2.614   1.193
 1511HOH      O 4737   1.116   0.586   2.933
 1511HOH     H1 4738   1.102   0.614   2.843
 1511HOH     H2 4739   1.180   0.516   2.926
 1512HOH      O 4740   0.052   1.839   0.459
 1512HOH     H1 4741  -0.039   1.829   0.486
 1512HOH     H2 4742   0.099   1.861   0.539
 1513HOH      O 4743   1.132   2.400   1.502
 1513HOH     H1 4744   1.097   2.448   1.427
 1513HOH     H2 4745   1.161   2.468   1.562
 1514HOH      O 4746   3.353   0.744   1.515
 1514HOH     H1 4747   3.375   0.681   1.584
 1514HOH     H2 4748   3.314   0.818   1.561
 1515HOH      O 4749   0.461   3.761   3.810
 1515HOH     H1 4750   0.383   3.724   3.769
 1515HOH     H2 4751   0.527   3.764   3.740
 1516HOH      O 4752   2.423   2.364   1.229
 1516HOH     H1 4753   2.336   2.344   1.262
 1516HOH     H2 4754   2.428   2.460   1.230
 1517HOH      O 4755   1.890   1.995   3.862
 1517HOH     H1 4756   1.911   2.070   3.806
 1517HOH     H2 4757   1.971   1.976   3.909
 1518HOH      O 4758   3.814   3.143   2.665
 1518HOH     H1 4759   3.758   3.221   2.670
 1518HOH     H2 4760   3.820   3.124   2.571
 1519HOH      O 4761   1.035   3.687   1.532
 1519HOH     H1 4762   0.965   3.687   1.597
 1519HOH     H2 4763   1.073   3.599   1.537
 1520HOH      O 4764   2.147   0.938   0.644
 1520HOH     H1 4765   2.209   1.011   0.652
 1520HOH     H2 4766   2.079   0.972   0.586
 1521HOH      O 4767   3.728   2.163   1.745
 1521HOH     H1 4768   3.663   2.216   1.699
 1521HOH     H2 4769   3.769   2.110   1.676
 1522HOH      O 4770   3.514   3.310   2.127
 1522HOH     H1 4771   3.562   3.323   2.209
 1522HOH     H2 4772   3.423   3.327   2.149
 1523HOH      O 4773   2.428   0.391   1.107
 1523HOH     H1 4774   2.454   0.315   1.056
 1523HOH     H2 4775   2.342   0.415   1.072
 1524HOH      O 4776   3.038   1.404   3.961
 1524HOH     H1 4777   3.084   1.457   4.026
 1524HOH     H2 4778   2.966   1.459   3.932
 1525HOH      O 4779   0.396   3.646   3.227
 1525HOH     H1 4780   0.423   3.564   3.266
 1525HOH     H2 4781   0.322   3.622   3.171
 1526HOH      O 4782   1.426   2.487   3.556
 1526HOH     H1 4783   1.390   2.575   3.560
 1526HOH     H2 4784   1.485   2.488   3.480
 1527HOH      O 4785   1.914   3.571   2.937
 1527HOH     H1 4786   1.982   3.605   2.996
 1527HOH     H2 4787   1.941   3.481   2.920
 1528HOH      O 4788   0.006   1.869   1.677
 1528HOH     H1 4789   0.076   1.826   1.726
 1528HOH     H2 4790   0.021   1.963   1.691
 1529HOH      O 4791   3.570   3.114   0.052
 1529HOH     H1 4792   3.596   3.041  -0.005
 1529HOH     H2 4793   3.552   3.186  -0.009
 1530HOH      O 4794   0.724   0.756   0.475
 1530HOH     H1 4795   0.681   0.779   0.557
 1530HOH     H2 4796   0.675   0.804   0.408
 1531HOH      O 4797   0.763   1.000   1.634
 1531HOH     H1 4798   0.727   0.951   1.560
 1531HOH     H2 4799   0.844   1.038   1.600
 1532HOH      O 4800   3.852   2.212   0.998
 1532HOH     H1 4801   3.938   2.181   0.971
 1532HOH     H2 4802   3.870   2.273   1.070
 1533HOH      O 4803   0.134   0.271   0.260
 1533HOH     H1 4804   0.148   0.305   0.349
 1533HOH     H2 4805   0.216   0.289   0.215
 1534HOH      O 4806   1.111   2.775   1.416
 1534HOH     H1 4807   1.066   2.747   1.337
 1534HOH     H2 4808   1.171   2.844   1.387
 1535HOH      O 4809   2.742   3.749   0.270
 1535HOH     H1 4810   2.702   3.707   0.347
 1535HOH     H2 4811   2.668   3.790   0.225
 1536HOH      O 4812   3.502   3.750   2.808
 1536HOH     H1 4813   3.437   3.793   2.753
 1536HOH     H2 4814   3.472   3.659   2.815
 1537HOH      O 4815   2.530   2.385   3.779
 1537HOH     H1 4816   2.594   2.319   3.753
 1537HOH     H2 4817   2.445   2.345   3.762
 1538HOH      O 4818   2.104   0.242   3.298
 1538HOH     H1 4819   2.023   0.217   3.254
 1538HOH     H2 4820   2.155   0.162   3.302
 1539HOH      O 4821   2.947   0.424   2.083
 1539HOH     H1 4822   3.000   0.388   2.154
 1539HOH     H2 4823   2.979   0.514   2.073
 1540HOH      O 4824   2.915   0.887   3.043
 1540HOH     H1 4825   2.873   0.969   3.016
 1540HOH     H2 4826   2.995   0.884   2.991
 1541HOH      O 4827   3.893   2.731   4.059
 1541HOH     H1 4828   3.839   2.715   3.981
 1541HOH     H2 4829   3.938   2.813   4.041
 1542HOH      O 4830   3.315   1.256   2.066
 1542HOH     H1 4831   3.236   1.297   2.101
 1542HOH     H2 4832   3.384   1.320   2.081
 1543HOH      O 4833   2.735   3.652   1.276
 1543HOH     H1 4834   2.709   3.742   1.255
 1543HOH     H2 4835   2.824   3.661   1.310
 1544HOH      O 4836   2.797   1.574   3.171
 1544HOH     H1 4837   2.889   1.600   3.174
 1544HOH     H2 4838   2.752   1.644   3.218
 1545HOH      O 4839   3.126   1.042   0.184
 1545HOH     H1 4840   3.138   1.064   0.091
 1545HOH     H2 4841   3.039   1.075   0.206
 1546HOH      O 4842   1.033   3.382   0.614
 1546HOH     H1 4843   0.995   3.416   0.533
 1546HOH     H2 4844   0.997   3.294   0.623
 1547HOH      O 4845   0.158   2.433   1.842
 1547HOH     H1 4846   0.113   2.354   1.870
 1547HOH     H2 4847   0.227   2.401   1.783
 1548HOH      O 4848   1.253   1.886   2.845
 1548HOH     H1 4849   1.300   1.806   2.821
 1548HOH     H2 4850   1.176   1.855   2.892
 1549HOH      O 4851   2.768   0.516   4.000
 1549HOH     H1 4852   2.807   0.550   3.920
 1549HOH     H2 4853   2.729   0.432   3.975
 1550HOH      O 4854   1.097   3.235   0.221
 1550HOH     H1 4855   1.042   3.310   0.245
 1550HOH     H2 4856   1.084   3.173   0.293
 1551HOH      O 4857   1.162   1.489   1.007
 1551HOH     H1 4858   1.215   1.469   1.085
 1551HOH     H2 4859   1.071   1.483   1.038
 1552HOH      O 4860   2.264   0.535   1.691
 1552HOH     H1 4861   2.247   0.626   1.715
 1552HOH     H2 4862   2.352   0.536   1.653
 1553HOH      O 4863   3.963   2.991   2.059
 1553HOH     H1 4864   4.052   2.971   2.088
 1553HOH     H2 4865   3.911   2.985   2.139
 1554HOH      O 4866   2.644   0.400   3.240
 1554HOH     H1 4867   2.700   0.461   3.288
 1554HOH     H2 4868   2.556   0.436   3.251
 1555HOH      O 4869   3.455   0.489  -0.030
 1555HOH     H1 4870   3.363   0.488  -0.004
 1555HOH     H2 4871   3.502   0.458   0.048
 1556HOH      O 4872   4.027   3.868   3.696
 1556HOH     H1 4873   3.998   3.956   3.676
 1556HOH     H2 4874   3.950   3.813   3.683
 1557HOH      O 4875   2.533   3.024   0.959
 1557HOH     H1 4876   2.510   2.934   0.981
 1557HOH     H2 4877   2.468   3.078   1.004
 1558HOH      O 4878   1.044   1.028   0.138
 1558HOH     H1 4879   1.048   0.946   0.187
 1558HOH     H2 4880   1.003   1.004   0.055
 1559HOH      O 4881   0.563   3.153   0.843
 1559HOH     H1 4882   0.531   3.086   0.904
 1559HOH     H2 4883   0.486   3.177   0.792
 1560HOH      O 4884   2.563   2.968   2.315
 1560HOH     H1 4885   2.582   3.024   2.239
 1560HOH     H2 4886   2.489   2.914   2.287
 1561HOH      O 4887   0.289   2.699   0.713
 1561HOH     H1 4888   0.275   2.794   0.703
 1561HOH     H2 4889   0.206   2.660   0.687
 1562HOH      O 4890   2.998   3.429   1.252
 1562HOH     H1 4891   2.951   3.398   1.174
 1562HOH     H2 4892   3.005   3.352   1.308
 1563HOH      O 4893   1.727   3.312   2.831
 1563HOH     H1 4894   1.677   3.271   2.902
 1563HOH     H2 4895   1.797   3.360   2.877
 1564HOH      O 4896   4.053   2.838   3.836
 1564HOH     H1 4897   4.057   2.864   3.744
 1564HOH     H2 4898   4.010   2.752   3.835
 1565HOH      O 4899   2.623   3.714   2.074
 1565HOH     H1 4900   2.601   3.622   2.087
 1565HOH     H2 4901   2.568   3.762   2.136
 1566HOH      O 4902   1.537   1.300   1.122
 1566HOH     H1 4903   1.596   1.255   1.062
 1566HOH     H2 4904   1.459   1.244   1.124
 1567HOH      O 4905   1.505   0.480   1.089
 1567HOH     H1 4906   1.541   0.406   1.039
 1567HOH     H2 4907   1.435   0.442   1.142
 1568HOH      O 4908   1.668   3.638   2.168
 1568HOH     H1 4909   1.746   3.685   2.197
 1568HOH     H2 4910   1.606   3.707   2.145
 1569HOH      O 4911   0.338   3.315   0.696
 1569HOH     H1 4912   0.363   3.394   0.647
 1569HOH     H2 4913   0.265   3.343   0.751
 1570HOH      O 4914   1.589   1.824   2.890
 1570HOH     H1 4915   1.668   1.781   2.924
 1570HOH     H2 4916   1.543   1.756   2.841
 1571HOH      O 4917   3.860   4.021   3.247
 1571HOH     H1 4918   3.915   3.986   3.177
 1571HOH     H2 4919   3.902   4.104   3.271
 1572HOH      O 4920   0.227   3.639   2.311
 1572HOH     H1 4921   0.296   3.581   2.279
 1572HOH     H2 4922   0.205   3.694   2.236
 1573HOH      O 4923   3.356   3.677   1.359
 1573HOH     H1 4924   3.338   3.770   1.344
 1573HOH     H2 4925   3.315   3.658   1.444
 1574HOH      O 4926   0.696   2.665   3.808
 1574HOH     H1 4927   0.779   2.711   3.799
 1574HOH     H2 4928   0.630   2.734   3.804
 1575HOH      O 4929   3.407   3.207   0.788
 1575HOH     H1 4930   3.447   3.157   0.717
 1575HOH     H2 4931   3.333   3.252   0.748
 1576HOH      O 4932   3.297   2.166   3.134
 1576HOH     H1 4933   3.300   2.228   3.206
 1576HOH     H2 4934   3.309   2.219   3.055
 1577HOH      O 4935   0.301   2.578   4.003
 1577HOH     H1 4936   0.345   2.525   4.070
 1577HOH     H2 4937   0.323   2.535   3.921
 1578HOH      O 4938   0.724   3.735   3.321
 1578HOH     H1 4939   0.708   3.679   3.245
 1578HOH     H2 4940   0.709   3.824   3.290
 1579HOH      O 4941   2.237   3.089   3.312
 1579HOH     H1 4942   2.321   3.052   3.286
 1579HOH     H2 4943   2.174   3.053   3.249
 1580HOH      O 4944   1.767   2.404   0.013
 1580HOH     H1 4945   1.747   2.323  -0.033
 1580HOH     H2 4946   1.743   2.386   0.104
 1581HOH      O 4947   3.252   4.037   3.732
 1581HOH     H1 4948   3.259   4.085   3.649
 1581HOH     H2 4949   3.209   3.955   3.708
 1582HOH      O 4950   1.927   3.599   1.952
 1582HOH     H1 4951   1.977   3.641   2.023
 1582HOH     H2 4952   1.888   3.673   1.904
 1583HOH      O 4953   0.122   1.573   3.946
 1583HOH     H1 4954   0.055   1.539   4.004
 1583HOH     H2 4955   0.185   1.616   4.004
 1584HOH      O 4956   3.269   1.930   0.892
 1584HOH     H1 4957   3.271   1.903   0.801
 1584HOH     H2 4958   3.182   1.970   0.904
 1585HOH      O 4959   2.695   2.530   0.546
 1585HOH     H1 4960   2.657   2.451   0.583
 1585HOH     H2 4961   2.695   2.514   0.451
 1586HOH      O 4962   3.070   3.866   0.295
 1586HOH     H1 4963   3.153   3.891   0.255
 1586HOH     H2 4964   3.034   3.800   0.235
 1587HOH      O 4965   2.464   1.833   2.345
 1587HOH     H1 4966   2.511   1.908   2.380
 1587HOH     H2 4967   2.400   1.811   2.413
 1588HOH      O 4968   1.034   0.171   0.150
 1588HOH     H1 4969   1.110   0.207   0.196
 1588HOH     H2 4970   1.040   0.077   0.165
 1589HOH      O 4971   3.023   2.181   0.391
 1589HOH     H1 4972   3.096   2.217   0.340
 1589HOH     H2 4973   3.039   2.087   0.393
 1590HOH      O 4974   1.586   1.112   0.123
 1590HOH     H1 4975   1.676   1.128   0.094
 1590HOH     H2 4976   1.555   1.198   0.152
 1591HOH      O 4977   3.926   2.333   0.291
 1591HOH     H1 4978   3.870   2.271   0.245
 1591HOH     H2 4979   3.983   2.369   0.223
 1592HOH      O 4980   3.650   1.423   4.070
 1592HOH     H1 4981   3.604   1.345   4.037
 1592HOH     H2 4982   3.659   1.480   3.994
 1593HOH      O 4983   3.460   0.975   2.906
 1593HOH     H1 4984   3.479   1.068   2.900
 1593HOH     H2 4985   3.481   0.952   2.997
 1594HOH      O 4986   2.499   3.681   2.339
 1594HOH     H1 4987   2.466   3.771   2.338
 1594HOH     H2 4988   2.560   3.678   2.413
 1595HOH      O 4989   0.934   3.613   2.144
 1595HOH     H1 4990   0.864   3.675   2.124
 1595HOH     H2 4991   0.937   3.555   2.069
 1596HOH      O 4992   3.580   3.759   2.253
 1596HOH     H1 4993   3.607   3.802   2.172
 1596HOH     H2 4994   3.578   3.830   2.318
 1597HOH      O 4995   0.944   0.176   3.219
 1597HOH     H1 4996   0.900   0.257   3.194
 1597HOH     H2 4997   0.903   0.150   3.302
 1598HOH      O 4998   0.881   0.481   1.283
 1598HOH     H1 4999   0.841   0.466   1.197
 1598HOH     H2 5000   0.909   0.394   1.312
 1599HOH      O 5001   3.036   2.176   2.940
 1599HOH     H1 5002   2.948   2.182   2.904
 1599HOH     H2 5003   3.082   2.116   2.882
 1600HOH      O 5004   2.040   0.188   2.427
 1600HOH     H1 5005   2.064   0.104   2.390
 1600HOH     H2 5006   2.018   0.243   2.352
 1601HOH      O 5007   1.992   2.600   3.105
 1601HOH     H1 5008   1.944   2.565   3.030
 1601HOH     H2 5009   2.009   2.691   3.082
 1602HOH      O 5010   2.291   2.073   2.130
 1602HOH     H1 5011   2.292   2.064   2.034
 1602HOH     H2 5012   2.378   2.106   2.152
 1603HOH      O 5013   3.186   0.569   0.098
 1603HOH     H1 5014   3.158   0.478   0.111
 1603HOH     H2 5015   3.136   0.619   0.163
 1604HOH      O 5016   0.137   2.386   1.518
 1604HOH     H1 5017   0.219   2.339   1.503
 1604HOH     H2 5018   0.160   2.478   1.512
 1605HOH      O 5019   3.198   1.416   2.449
 1605HOH     H1 5020   3.118   1.395   2.497
 1605HOH     H2 5021   3.246   1.333   2.445
 1606HOH      O 5022   3.877   0.895   3.312
 1606HOH     H1 5023   3.897   0.892   3.219
 1606HOH     H2 5024   3.956   0.860   3.355
 1607HOH      O 5025   3.909   1.242   1.845
 1607HOH     H1 5026   3.867   1.160   1.870
 1607HOH     H2 5027   3.844   1.287   1.793
 1608HOH      O 5028   3.364   2.633   0.314
 1608HOH     H1 5029   3.369   2.538   0.326
 1608HOH     H2 5030   3.310   2.664   0.387
 1609HOH      O 5031   1.143   0.803   3.079
 1609HOH     H1 5032   1.133   0.797   2.984
 1609HOH     H2 5033   1.201   0.730   3.100
 1610HOH      O 5034   3.397   0.113   1.109
 1610HOH     H1 5035   3.386   0.031   1.156
 1610HOH     H2 5036   3.321   0.118   1.051
 1611HOH      O 5037   3.200   2.844   2.254
 1611HOH     H1 5038   3.252   2.880   2.182
 1611HOH     H2 5039   3.152   2.772   2.216
 1612HOH      O 5040   1.033   0.863   2.790
 1612HOH     H1 5041   1.059   0.940   2.740
 1612HOH     H2 5042   0.948   0.886   2.828
 1613HOH      O 5043   3.106   2.079   3.772
 1613HOH     H1 5044   3.155   2.157   3.796
 1613HOH     H2 5045   3.164   2.006   3.796
 1614HOH      O 5046   2.647   3.892   3.907
 1614HOH     H1 5047   2.734   3.916   3.940
 1614HOH     H2 5048   2.592   3.886   3.986
 1615HOH      O 5049   3.927   1.041   0.034
 1615HOH     H1 5050   3.979   1.028   0.114
 1615HOH     H2 5051   3.846   1.082   0.065
 1616HOH      O 5052   2.766   2.927   3.955
 1616HOH     H1 5053   2.684   2.951   3.999
 1616HOH     H2 5054   2.740   2.860   3.892
 1617HOH      O 5055   1.914   0.302   1.464
 1617HOH     H1 5056   1.998   0.292   1.509
 1617HOH     H2 5057   1.900   0.218   1.420
 1618HOH      O 5058   2.701   4.017   2.961
 1618HOH     H1 5059   2.645   4.093   2.979
 1618HOH     H2 5060   2.733   3.990   3.047
 1619HOH      O 5061   0.912   0.617   3.649
 1619HOH     H1 5062   0.821   0.591   3.664
 1619HOH     H2 5063   0.946   0.549   3.590
 1620HOH      O 5064   1.330   2.243   1.335
 1620HOH     H1 5065   1.249   2.248   1.386
 1620HOH     H2 5066   1.371   2.329   1.346
 1621HOH      O 5067   1.475   0.029   2.887
 1621HOH     H1 5068   1.544   0.074   2.935
 1621HOH     H2 5069   1.422  -0.013   2.954
 1622HOH      O 5070   0.109   1.670   1.141
 1622HOH     H1 5071   0.145   1.600   1.087
 1622HOH     H2 5072   0.185   1.712   1.182
 1623HOH      O 5073   2.686   1.343   3.052
 1623HOH     H1 5074   2.700   1.436   3.071
 1623HOH     H2 5075   2.631   1.343   2.973
 1624HOH      O 5076   3.524   2.662   3.178
 1624HOH     H1 5077   3.429   2.664   3.165
 1624HOH     H2 5078   3.540   2.580   3.225
 1625HOH      O 5079   2.135   3.317   0.441
 1625HOH     H1 5080   2.059   3.336   0.386
 1625HOH     H2 5081   2.164   3.230   0.412
 1626HOH      O 5082   3.062   3.603   1.774
 1626HOH     H1 5083   3.035   3.674   1.833
 1626HOH     H2 5084   2.990   3.596   1.711
 1627HOH      O 5085   2.874   0.238   3.290
 1627HOH     H1 5086   2.800   0.274   3.241
 1627HOH     H2 5087   2.837   0.213   3.374
 1628HOH      O 5088   3.073   1.841   2.258
 1628HOH     H1 5089   3.036   1.825   2.345
 1628HOH     H2 5090   3.099   1.934   2.261
 1629HOH      O 5091   3.253   1.638   3.401
 1629HOH     H1 5092   3.336   1.671   3.368
 1629HOH     H2 5093   3.253   1.662   3.494
 1630HOH      O 5094   1.462   1.628   2.130
 1630HOH     H1 5095   1.520   1.630   2.206
 1630HOH     H2 5096   1.435   1.719   2.118
 1631HOH      O 5097   0.389   3.099   2.684
 1631HOH     H1 5098   0.364   3.011   2.715
 1631HOH     H2 5099   0.328   3.158   2.728
 1632HOH      O 5100   0.772   1.422   0.826
 1632HOH     H1 5101   0.774   1.329   0.849
 1632HOH     H2 5102   0.681   1.449   0.841
 1633HOH      O 5103   3.912   3.330   2.117
 1633HOH     H1 5104   3.886   3.377   2.038
 1633HOH     H2 5105   3.997   3.292   2.095
 1634HOH      O 5106   0.261   3.853   1.070
 1634HOH     H1 5107   0.344   3.900   1.072
 1634HOH     H2 5108   0.234   3.848   1.162
 1635HOH      O 5109   2.015   1.682   1.725
 1635HOH     H1 5110   2.041   1.766   1.763
 1635HOH     H2 5111   1.932   1.661   1.768
 1636HOH      O 5112   0.731   0.519   1.506
 1636HOH     H1 5113   0.643   0.510   1.470
 1636HOH     H2 5114   0.789   0.521   1.429
 1637HOH      O 5115   3.646   1.713   2.049
 1637HOH     H1 5116   3.721   1.767   2.073
 1637HOH     H2 5117   3.588   1.719   2.126
 1638HOH      O 5118   2.488   0.930   1.488
 1638HOH     H1 5119   2.445   0.855   1.529
 1638HOH     H2 5120   2.482   0.913   1.394
 1639HOH      O 5121   1.418   3.068   2.773
 1639HOH     H1 5122   1.452   2.992   2.821
 1639HOH     H2 5123   1.480   3.080   2.701
 1640HOH      O 5124   0.563   2.761   0.703
 1640HOH     H1 5125   0.473   2.731   0.703
 1640HOH     H2 5126   0.612   2.692   0.746
 1641HOH      O 5127   3.288   1.358   2.801
 1641HOH     H1 5128   3.287   1.431   2.862
 1641HOH     H2 5129   3.230   1.293   2.840
 1642HOH      O 5130   3.976   1.092   3.091
 1642HOH     H1 5131   3.907   1.128   3.146
 1642HOH     H2 5132   4.024   1.169   3.059
 1643HOH      O 5133   1.995   3.023   1.600
 1643HOH     H1 5134   1.982   3.083   1.674
 1643HOH     H2 5135   1.915   3.030   1.549
 1644HOH      O 5136   3.146   2.125   1.232
 1644HOH     H1 5137   3.144   2.050   1.290
 1644HOH     H2 5138   3.057   2.160   1.233
 1645HOH      O 5139   2.832   1.972   1.735
 1645HOH     H1 5140   2.785   1.978   1.818
 1645HOH     H2 5141   2.856   1.879   1.728
 1646HOH      O 5142   3.426   1.052   0.088
 1646HOH     H1 5143   3.434   1.119   0.157
 1646HOH     H2 5144   3.338   1.016   0.100
 1647HOH      O 5145   2.257   2.982   0.826
 1647HOH     H1 5146   2.347   2.972   0.857
 1647HOH     H2 5147   2.252   2.929   0.747
 1648HOH      O 5148   0.565   0.990   0.939
 1648HOH     H1 5149   0.547   1.015   1.030
 1648HOH     H2 5150   0.480   0.992   0.896
 1649HOH      O 5151   0.405   0.799   0.696
 1649HOH     H1 5152   0.369   0.736   0.634
 1649HOH     H2 5153   0.424   0.876   0.643
 1650HOH      O 5154   3.771   1.606   0.521
 1650HOH     H1 5155   3.717   1.568   0.451
 1650HOH     H2 5156   3.806   1.530   0.568
 1651HOH      O 5157   2.514   1.629   3.405
 1651HOH     H1 5158   2.491   1.548   3.359
 1651HOH     H2 5159   2.460   1.696   3.364
 1652HOH      O 5160   2.017   1.773   1.420
 1652HOH     H1 5161   2.041   1.685   1.392
 1652HOH     H2 5162   2.097   1.809   1.459
 1653HOH      O 5163   0.335   0.658   1.952
 1653HOH     H1 5164   0.398   0.606   2.002
 1653HOH     H2 5165   0.303   0.599   1.884
 1654HOH      O 5166   3.672   0.243   3.356
 1654HOH     H1 5167   3.648   0.193   3.277
 1654HOH     H2 5168   3.755   0.285   3.334
 1655HOH      O 5169   3.616   3.985   1.738
 1655HOH     H1 5170   3.632   4.032   1.657
 1655HOH     H2 5171   3.629   3.893   1.716
 1656HOH      O 5172   3.943   0.322   2.179
 1656HOH     H1 5173   3.891   0.323   2.259
 1656HOH     H2 5174   4.027   0.283   2.205
 1657HOH      O 5175   3.149   3.586   3.954
 1657HOH     H1 5176   3.145   3.682   3.954
 1657HOH     H2 5177   3.057   3.558   3.955
 1658HOH      O 5178   3.450   3.161   3.789
 1658HOH     H1 5179   3.524   3.221   3.783
 1658HOH     H2 5180   3.393   3.199   3.856
 1659HOH      O 5181   0.720   0.385   1.783
 1659HOH     H1 5182   0.750   0.447   1.716
 1659HOH     H2 5183   0.630   0.364   1.757
 1660HOH      O 5184   2.221   3.183   3.560
 1660HOH     H1 5185   2.221   3.101   3.609
 1660HOH     H2 5186   2.231   3.156   3.468
 1661HOH      O 5187   1.166   1.089   0.810
 1661HOH     H1 5188   1.124   1.060   0.891
 1661HOH     H2 5189   1.221   1.015   0.784
 1662HOH      O 5190   0.053   1.242   0.840
 1662HOH     H1 5191  -0.038   1.210   0.836
 1662HOH     H2 5192   0.070   1.253   0.933
 1663HOH      O 5193   2.370   2.739   2.192
 1663HOH     H1 5194   2.440   2.681   2.162
 1663HOH     H2 5195   2.320   2.760   2.113
 1664HOH      O 5196   2.839   3.040   0.763
 1664HOH     H1 5197   2.922   3.069   0.727
 1664HOH     H2 5198   2.855   2.950   0.791
 1665HOH      O 5199   0.900   0.398   0.277
 1665HOH     H1 5200   0.979   0.447   0.299
 1665HOH     H2 5201   0.932   0.314   0.245
 1666HOH      O 5202   0.929   1.307   1.974
 1666HOH     H1 5203   1.021   1.328   1.962
 1666HOH     H2 5204   0.884   1.352   1.902
 1667HOH      O 5205   2.649   1.965   1.922
 1667HOH     H1 5206   2.639   2.009   2.006
 1667HOH     H2 5207   2.605   1.880   1.934
 1668HOH      O 5208   0.461   3.690   1.818
 1668HOH     H1 5209   0.463   3.771   1.766
 1668HOH     H2 5210   0.509   3.626   1.766
 1669HOH      O 5211   3.973   1.923   0.138
 1669HOH     H1 5212   3.951   1.869   0.062
 1669HOH     H2 5213   3.926   2.005   0.124
 1670HOH      O 5214   3.633   0.096   3.130
 1670HOH     H1 5215   3.695   0.029   3.157
 1670HOH     H2 5216   3.663   0.123   3.043
 1671HOH      O 5217   1.440   3.215   3.117
 1671HOH     H1 5218   1.426   3.123   3.138
 1671HOH     H2 5219   1.534   3.221   3.097
 1672HOH      O 5220   0.969   0.922   3.902
 1672HOH     H1 5221   0.952   0.828   3.906
 1672HOH     H2 5222   1.050   0.930   3.852
 1673HOH      O 5223   3.311   3.506   1.622
 1673HOH     H1 5224   3.217   3.521   1.629
 1673HOH     H2 5225   3.337   3.478   1.709
 1674HOH      O 5226   0.225   0.179   2.990
 1674HOH     H1 5227   0.217   0.222   2.905
 1674HOH     H2 5228   0.256   0.091   2.968
 1675HOH      O 5229   1.492   1.512   1.893
 1675HOH     H1 5230   1.585   1.525   1.877
 1675HOH     H2 5231   1.477   1.549   1.980
 1676HOH      O 5232   2.256   2.118   3.372
 1676HOH     H1 5233   2.233   2.211   3.375
 1676HOH     H2 5234   2.172   2.073   3.363
 1677HOH      O 5235   2.101   2.907   3.937
 1677HOH     H1 5236   2.035   2.838   3.938
 1677HOH     H2 5237   2.062   2.976   3.883
 1678HOH      O 5238   3.853   1.998   1.206
 1678HOH     H1 5239   3.912   1.938   1.161
 1678HOH     H2 5240   3.817   2.053   1.136
 1679HOH      O 5241   3.492   1.521   0.708
 1679HOH     H1 5242   3.513   1.607   0.745
 1679HOH     H2 5243   3.445   1.541   0.627
 1680HOH      O 5244   2.534   2.580   2.819
 1680HOH     H1 5245   2.609   2.639   2.820
 1680HOH     H2 5246   2.497   2.590   2.731
 1681HOH      O 5247   3.135   1.978   2.820
 1681HOH     H1 5248   3.064   1.942   2.767
 1681HOH     H2 5249   3.143   1.917   2.894
 1682HOH      O 5250   2.717   3.232   0.337
 1682HOH     H1 5251   2.678   3.291   0.274
 1682HOH     H2 5252   2.654   3.229   0.410
 1683HOH      O 5253   1.019   3.248   1.719
 1683HOH     H1 5254   1.032   3.167   1.670
 1683HOH     H2 5255   0.927   3.247   1.744
 1684HOH      O 5256   3.980   0.270   3.718
 1684HOH     H1 5257   3.977   0.357   3.678
 1684HOH     H2 5258   4.054   0.227   3.674
 1685HOH      O 5259   1.466   3.722   1.096
 1685HOH     H1 5260   1.381   3.758   1.070
 1685HOH     H2 5261   1.462   3.629   1.073
 1686HOH      O 5262   0.724   2.617   1.656
 1686HOH     H1 5263   0.643   2.665   1.647
 1686HOH     H2 5264   0.699   2.525   1.646
 1687HOH      O 5265   0.801   1.075   0.625
 1687HOH     H1 5266   0.890   1.087   0.594
 1687HOH     H2 5267   0.803   1.102   0.716
 1688HOH      O 5268   3.557   0.008   3.843
 1688HOH     H1 5269   3.644   0.018   3.803
 1688HOH     H2 5270   3.496   0.021   3.771
 1689HOH      O 5271   3.327   0.051   4.018
 1689HOH     H1 5272   3.272   0.111   3.968
 1689HOH     H2 5273   3.412   0.054   3.975
 1690HOH      O 5274   0.262   3.487   1.076
 1690HOH     H1 5275   0.350   3.471   1.110
 1690HOH     H2 5276   0.228   3.400   1.056
 1691HOH      O 5277   0.874   0.877   2.253
 1691HOH     H1 5278   0.798   0.840   2.207
 1691HOH     H2 5279   0.949   0.851   2.200
 1692HOH      O 5280   3.022   3.313   0.424
 1692HOH     H1 5281   3.084   3.374   0.382
 1692HOH     H2 5282   3.031   3.232   0.374
 1693HOH      O 5283   1.905   3.386   0.115
 1693HOH     H1 5284   1.835   3.350   0.171
 1693HOH     H2 5285   1.951   3.448   0.171
 1694HOH      O 5286   3.028   3.383   3.710
 1694HOH     H1 5287   3.054   3.291   3.718
 1694HOH     H2 5288   2.974   3.400   3.787
 1695HOH      O 5289   0.861   0.980   2.500
 1695HOH     H1 5290   0.817   1.061   2.474
 1695HOH     H2 5291   0.875   0.933   2.418
 1696HOH      O 5292   1.158   1.363   0.769
 1696HOH     H1 5293   1.155   1.268   0.779
 1696HOH     H2 5294   1.130   1.398   0.853
 1697HOH      O 5295   0.665   0.485   0.370
 1697HOH     H1 5296   0.745   0.434   0.353
 1697HOH     H2 5297   0.697   0.571   0.396
 1698HOH      O 5298   3.504   3.745   3.912
 1698HOH     H1 5299   3.498   3.838   3.890
 1698HOH     H2 5300   3.550   3.743   3.996
 1699HOH      O 5301   0.792   3.938   0.797
 1699HOH     H1 5302   0.871   3.971   0.755
 1699HOH     H2 5303   0.721   3.980   0.748
 1700HOH      O 5304   1.431   2.284   1.680
 1700HOH     H1 5305   1.349   2.332   1.692
 1700HOH     H2 5306   1.483   2.308   1.757
 1701HOH      O 5307   2.181   3.100   1.859
 1701HOH     H1 5308   2.223   3.095   1.773
 1701HOH     H2 5309   2.133   3.182   1.858
 1702HOH      O 5310   3.132   3.254   3.417
 1702HOH     H1 5311   3.146   3.237   3.510
 1702HOH     H2 5312   3.045   3.295   3.414
 1703HOH      O 5313   3.619   0.840   3.296
 1703HOH     H1 5314   3.600   0.755   3.335
 1703HOH     H2 5315   3.707   0.862   3.328
 1704HOH      O 5316   2.414   2.627   0.372
 1704HOH     H1 5317   2.419   2.536   0.403
 1704HOH     H2 5318   2.349   2.625   0.302
 1705HOH      O 5319   3.232   2.311   3.848
 1705HOH     H1 5320   3.196   2.377   3.907
 1705HOH     H2 5321   3.270   2.362   3.776
 1706HOH      O 5322   2.019   2.379   3.281
 1706HOH     H1 5323   2.043   2.451   3.224
 1706HOH     H2 5324   1.995   2.308   3.222
 1707HOH      O 5325   2.901   1.227   2.736
 1707HOH     H1 5326   2.901   1.218   2.641
 1707HOH     H2 5327   2.944   1.312   2.752
 1708HOH      O 5328   1.653   2.734   0.117
 1708HOH     H1 5329   1.742   2.733   0.081
 1708HOH     H2 5330   1.600   2.689   0.051
 1709HOH      O 5331   3.970   2.837   0.628
 1709HOH     H1 5332   4.000   2.872   0.544
 1709HOH     H2 5333   4.021   2.757   0.640
 1710HOH      O 5334   2.713   0.646   3.365
 1710HOH     H1 5335   2.635   0.672   3.317
 1710HOH     H2 5336   2.756   0.729   3.388
 1711HOH      O 5337   0.504   2.877   3.378
 1711HOH     H1 5338   0.449   2.878   3.300
 1711HOH     H2 5339   0.471   2.803   3.430
 1712HOH      O 5340   0.765   0.798   0.908
 1712HOH     H1 5341   0.693   0.854   0.938
 1712HOH     H2 5342   0.844   0.850   0.921
 1713HOH      O 5343   3.701   0.758   2.535
 1713HOH     H1 5344   3.649   0.752   2.615
 1713HOH     H2 5345   3.686   0.847   2.504
 1714HOH      O 5346   0.575   0.171   3.890
 1714HOH     H1 5347   0.593   0.125   3.972
 1714HOH     H2 5348   0.481   0.188   3.892
 1715HOH      O 5349   3.098   1.386   2.150
 1715HOH     H1 5350   3.070   1.438   2.074
 1715HOH     H2 5351   3.036   1.313   2.153
 1716HOH      O 5352   1.063   1.999   3.370
 1716HOH     H1 5353   0.985   1.947   3.393
 1716HOH     H2 5354   1.084   2.046   3.451
 1717HOH      O 5355   0.354   2.232   1.468
 1717HOH     H1 5356   0.439   2.238   1.425
 1717HOH     H2 5357   0.350   2.142   1.500
 1718HOH      O 5358   3.863   0.524   0.514
 1718HOH     H1 5359   3.787   0.475   0.547
 1718HOH     H2 5360   3.828   0.573   0.440
 1719HOH      O 5361   0.557   3.020   1.069
 1719HOH     H1 5362   0.596   2.940   1.105
 1719HOH     H2 5363   0.463   3.003   1.068
 1720HOH      O 5364   0.290   1.923   1.597
 1720HOH     H1 5365   0.311   1.911   1.689
 1720HOH     H2 5366   0.208   1.973   1.597
 1721HOH      O 5367   2.339   1.790   2.105
 1721HOH     H1 5368   2.400   1.840   2.160
 1721HOH     H2 5369   2.253   1.808   2.141
 1722HOH      O 5370   1.273   0.498   3.301
 1722HOH     H1 5371   1.318   0.489   3.386
 1722HOH     H2 5372   1.246   0.409   3.279
 1723HOH      O 5373   2.270   2.094   1.607
 1723HOH     H1 5374   2.237   2.029   1.545
 1723HOH     H2 5375   2.364   2.101   1.586
 1724HOH      O 5376   2.233   1.242   0.152
 1724HOH     H1 5377   2.310   1.261   0.098
 1724HOH     H2 5378   2.226   1.317   0.211
 1725HOH      O 5379   1.521   0.570   3.796
 1725HOH     H1 5380   1.581   0.633   3.754
 1725HOH     H2 5381   1.576   0.494   3.814
 1726HOH      O 5382   1.333   2.110   0.395
 1726HOH     H1 5383   1.354   2.153   0.312
 1726HOH     H2 5384   1.291   2.028   0.368
 1727HOH      O 5385   2.538   3.013   0.049
 1727HOH     H1 5386   2.556   3.039   0.140
 1727HOH     H2 5387   2.468   2.948   0.057
 1728HOH      O 5388   0.460   1.727   1.062
 1728HOH     H1 5389   0.499   1.786   0.999
 1728HOH     H2 5390   0.522   1.727   1.136
 1729HOH      O 5391   1.486   1.103   0.755
 1729HOH     H1 5392   1.463   1.039   0.822
 1729HOH     H2 5393   1.582   1.110   0.760
 1730HOH      O 5394   1.242   0.880   0.467
 1730HOH     H1 5395   1.308   0.853   0.530
 1730HOH     H2 5396   1.287   0.943   0.410
 1731HOH      O 5397   2.239   1.452   2.606
 1731HOH     H1 5398   2.308   1.511   2.639
 1731HOH     H2 5399   2.177   1.445   2.678
 1732HOH      O 5400   3.119   1.301   3.448
 1732HOH     H1 5401   3.124   1.339   3.535
 1732HOH     H2 5402   3.028   1.317   3.420
 1733HOH      O 5403   0.983   2.528   1.261
 1733HOH     H1 5404   0.895   2.537   1.298
 1733HOH     H2 5405   0.973   2.466   1.189
 1734HOH      O 5406   1.079   0.024   2.657
 1734HOH     H1 5407   1.172   0.003   2.663
 1734HOH     H2 5408   1.073   0.086   2.584
 1735HOH      O 5409   0.813   1.832   1.528
 1735HOH     H1 5410   0.815   1.885   1.608
 1735HOH     H2 5411   0.866   1.882   1.465
 1736HOH      O 5412   3.624   1.594   1.650
 1736HOH     H1 5413   3.676   1.672   1.670
 1736HOH     H2 5414   3.687   1.530   1.617
 1737HOH      O 5415   3.661   2.503   1.821
 1737HOH     H1 5416   3.566   2.489   1.829
 1737HOH     H2 5417   3.680   2.572   1.885
 1738HOH      O 5418   0.295   2.906   0.537
 1738HOH     H1 5419   0.285   2.835   0.473
 1738HOH     H2 5420   0.385   2.936   0.524
 1739HOH      O 5421   3.766   0.070   1.037
 1739HOH     H1 5422   3.718   0.153   1.038
 1739HOH     H2 5423   3.848   0.089   1.084
 1740HOH      O 5424   3.968   3.305   0.567
 1740HOH     H1 5425   3.999   3.222   0.533
 1740HOH     H2 5426   4.037   3.335   0.627
 1741HOH      O 5427   2.250   4.007   3.155
 1741HOH     H1 5428   2.217   3.989   3.067
 1741HOH     H2 5429   2.182   3.971   3.213
 1742HOH      O 5430   1.394   3.057   0.947
 1742HOH     H1 5431   1.327   3.103   0.897
 1742HOH     H2 5432   1.465   3.120   0.956
 1743HOH      O 5433   0.714   1.686   3.761
 1743HOH     H1 5434   0.743   1.596   3.745
 1743HOH     H2 5435   0.723   1.696   3.856
 1744HOH      O 5436   1.101   0.354   1.518
 1744HOH     H1 5437   1.109   0.448   1.506
 1744HOH     H2 5438   1.009   0.335   1.502
 1745HOH      O 5439   3.740   3.336   3.211
 1745HOH     H1 5440   3.726   3.394   3.136
 1745HOH     H2 5441   3.653   3.303   3.232
 1746HOH      O 5442   0.217   3.555   1.877
 1746HOH     H1 5443   0.218   3.459   1.869
 1746HOH     H2 5444   0.310   3.579   1.876
 1747HOH      O 5445   1.999   3.018   3.194
 1747HOH     H1 5446   1.931   2.953   3.213
 1747HOH     H2 5447   1.986   3.085   3.261
 1748HOH      O 5448   0.184   1.164   3.711
 1748HOH     H1 5449   0.154   1.088   3.763
 1748HOH     H2 5450   0.255   1.129   3.658
 1749HOH      O 5451   2.658   1.523   1.563
 1749HOH     H1 5452   2.711   1.456   1.606
 1749HOH     H2 5453   2.591   1.473   1.515
 1750HOH      O 5454   2.491   1.364   1.374
 1750HOH     H1 5455   2.445   1.419   1.311
 1750HOH     H2 5456   2.547   1.308   1.321
 1751HOH      O 5457   3.652   3.945   2.448
 1751HOH     H1 5458   3.602   4.014   2.405
 1751HOH     H2 5459   3.742   3.959   2.420
 1752HOH      O 5460   2.023   2.844   0.893
 1752HOH     H1 5461   2.110   2.881   0.882
 1752HOH     H2 5462   1.980   2.859   0.809
 1753HOH      O 5463   1.933   1.255   1.719
 1753HOH     H1 5464   2.003   1.200   1.752
 1753HOH     H2 5465   1.895   1.205   1.647
 1754HOH      O 5466   2.832   1.193   3.872
 1754HOH     H1 5467   2.903   1.235   3.921
 1754HOH     H2 5468   2.871   1.112   3.839
 1755HOH      O 5469   0.484   1.785   3.641
 1755HOH     H1 5470   0.563   1.781   3.694
 1755HOH     H2 5471   0.439   1.703   3.658
 1756HOH      O 5472   2.208   1.298   3.549
 1756HOH     H1 5473   2.125   1.277   3.505
 1756HOH     H2 5474   2.210   1.393   3.550
 1757HOH      O 5475   2.842   1.583   3.872
 1757HOH     H1 5476   2.886   1.655   3.826
 1757HOH     H2 5477   2.780   1.548   3.808
 1758HOH      O 5478   3.175   2.107   2.263
 1758HOH     H1 5479   3.261   2.151   2.266
 1758HOH     H2 5480   3.112   2.179   2.266
 1759HOH      O 5481   2.429   3.825   1.890
 1759HOH     H1 5482   2.460   3.785   1.808
 1759HOH     H2 5483   2.493   3.797   1.955
 1760HOH      O 5484   3.244   1.694   2.754
 1760HOH     H1 5485   3.327   1.680   2.801
 1760HOH     H2 5486   3.266   1.756   2.684
 1761HOH      O 5487   1.562   1.386   2.616
 1761HOH     H1 5488   1.533   1.302   2.652
 1761HOH     H2 5489   1.573   1.370   2.523
 1762HOH      O 5490   0.183   2.646   1.611
 1762HOH     H1 5491   0.134   2.611   1.685
 1762HOH     H2 5492   0.259   2.689   1.650
 1763HOH      O 5493   1.006   0.897   3.310
 1763HOH     H1 5494   0.931   0.841   3.329
 1763HOH     H2 5495   1.041   0.863   3.228
 1764HOH      O 5496   4.024   3.088   0.344
 1764HOH     H1 5497   4.033   2.993   0.332
 1764HOH     H2 5498   3.931   3.101   0.364
 1765HOH      O 5499   2.411   0.182   3.427
 1765HOH     H1 5500   2.423   0.200   3.520
 1765HOH     H2 5501   2.419   0.087   3.419
 1766HOH      O 5502   1.588   3.258   2.178
 1766HOH     H1 5503   1.509   3.263   2.125
 1766HOH     H2 5504   1.575   3.324   2.246
 1767HOH      O 5505   3.589   0.979   3.909
 1767HOH     H1 5506   3.507   1.007   3.950
 1767HOH     H2 5507   3.581   0.884   3.903
 1768HOH      O 5508   1.729   1.484   0.183
 1768HOH     H1 5509   1.729   1.495   0.088
 1768HOH     H2 5510   1.651   1.531   0.212
 1769HOH      O 5511   2.732   2.940   1.351
 1769HOH     H1 5512   2.798   2.933   1.282
 1769HOH     H2 5513   2.723   2.850   1.384
 1770HOH      O 5514   0.304   2.335   1.098
 1770HOH     H1 5515   0.378   2.277   1.082
 1770HOH     H2 5516   0.235   2.278   1.131
 1771HOH      O 5517   2.536   0.733   2.705
 1771HOH     H1 5518   2.536   0.684   2.787
 1771HOH     H2 5519   2.573   0.673   2.640
 1772HOH      O 5520   3.004   0.553   0.519
 1772HOH     H1 5521   3.067   0.514   0.579
 1772HOH     H2 5522   2.970   0.479   0.469
 1773HOH      O 5523   4.014   3.039   0.820
 1773HOH     H1 5524   4.065   3.096   0.762
 1773HOH     H2 5525   3.988   2.965   0.765
 1774HOH      O 5526   1.528   3.124   1.905
 1774HOH     H1 5527   1.593   3.187   1.937
 1774HOH     H2 5528   1.575   3.041   1.900
 1775HOH      O 5529   1.559   1.180   3.389
 1775HOH     H1 5530   1.540   1.086   3.396
 1775HOH     H2 5531   1.558   1.211   3.480
 1776HOH      O 5532   2.838   3.958   0.467
 1776HOH     H1 5533   2.815   3.865   0.469
 1776HOH     H2 5534   2.921   3.961   0.420
 1777HOH      O 5535   3.025   3.189   1.414
 1777HOH     H1 5536   3.046   3.141   1.334
 1777HOH     H2 5537   3.062   3.135   1.484
 1778HOH      O 5538   2.463   2.304   2.840
 1778HOH     H1 5539   2.471   2.399   2.834
 1778HOH     H2 5540   2.451   2.287   2.933
 1779HOH      O 5541   3.778   2.962   3.023
 1779HOH     H1 5542   3.798   2.991   3.112
 1779HOH     H2 5543   3.777   2.866   3.029
 1780HOH      O 5544   3.621   3.809   3.072
 1780HOH     H1 5545   3.652   3.802   2.981
 1780HOH     H2 5546   3.528   3.827   3.064
 1781HOH      O 5547   1.597   1.972   0.516
 1781HOH     H1 5548   1.561   1.965   0.605
 1781HOH     H2 5549   1.631   1.885   0.498
 1782HOH      O 5550   3.888   3.841   0.425
 1782HOH     H1 5551   3.857   3.759   0.387
 1782HOH     H2 5552   3.973   3.820   0.463
 1783HOH      O 5553   3.728   0.071   0.779
 1783HOH     H1 5554   3.777   0.069   0.862
 1783HOH     H2 5555   3.756  -0.009   0.734
 1784HOH      O 5556   1.525   3.855   2.115
 1784HOH     H1 5557   1.451   3.897   2.158
 1784HOH     H2 5558   1.601   3.907   2.141
 1785HOH      O 5559   3.133   0.819   2.662
 1785HOH     H1 5560   3.127   0.728   2.632
 1785HOH     H2 5561   3.071   0.867   2.607
 1786HOH      O 5562   2.395   3.976   2.644
 1786HOH     H1 5563   2.386   4.012   2.732
 1786HOH     H2 5564   2.450   4.038   2.597
 1787HOH      O 5565   0.530   0.299   2.115
 1787HOH     H1 5566   0.479   0.291   2.196
 1787HOH     H2 5567   0.495   0.230   2.059
 1788HOH      O 5568   3.180   0.954   2.905
 1788HOH     H1 5569   3.165   0.946   2.811
 1788HOH     H2 5570   3.275   0.945   2.915
 1789HOH      O 5571   1.475   2.064   2.798
 1789HOH     H1 5572   1.392   2.015   2.802
 1789HOH     H2 5573   1.543   1.997   2.811
 1790HOH      O 5574   3.911   1.641   2.956
 1790HOH     H1 5575   3.877   1.678   2.874
 1790HOH     H2 5576   3.843   1.661   3.020
 1791HOH      O 5577   2.938   2.335   2.647
 1791HOH     H1 5578   2.926   2.243   2.623
 1791HOH     H2 5579   2.895   2.343   2.732
 1792HOH      O 5580   3.564   2.378   0.015
 1792HOH     H1 5581   3.562   2.412   0.104
 1792HOH     H2 5582   3.496   2.311   0.013
 1793HOH      O 5583   1.467   2.050   1.166
 1793HOH     H1 5584   1.384   2.007   1.143
 1793HOH     H2 5585   1.440   2.126   1.219
 1794HOH      O 5586   1.875   0.071   1.315
 1794HOH     H1 5587   1.967   0.043   1.314
 1794HOH     H2 5588   1.826  -0.008   1.335
 1795HOH      O 5589   3.828   1.705   0.280
 1795HOH     H1 5590   3.837   1.681   0.372
 1795HOH     H2 5591   3.877   1.787   0.273
 1796HOH      O 5592   1.755   3.164   1.473
 1796HOH     H1 5593   1.816   3.213   1.528
 1796HOH     H2 5594   1.675   3.159   1.525
 1797HOH      O 5595   3.843   2.471   2.585
 1797HOH     H1 5596   3.828   2.542   2.523
 1797HOH     H2 5597   3.874   2.514   2.665
 1798HOH      O 5598   2.477   3.273   3.635
 1798HOH     H1 5599   2.504   3.211   3.703
 1798HOH     H2 5600   2.403   3.230   3.592
 1799HOH      O 5601   1.106   2.971   3.398
 1799HOH     H1 5602   1.066   3.000   3.480
 1799HOH     H2 5603   1.061   2.889   3.378
 1800HOH      O 5604   1.848   3.077   1.235
 1800HOH     H1 5605   1.803   3.105   1.315
 1800HOH     H2 5606   1.928   3.035   1.266
 1801HOH      O 5607   0.627   1.403   1.759
 1801HOH     H1 5608   0.715   1.431   1.735
 1801HOH     H2 5609   0.624   1.310   1.734
 1802HOH      O 5610   0.682   0.723   1.176
 1802HOH     H1 5611   0.730   0.686   1.102
 1802HOH     H2 5612   0.593   0.690   1.165
 1803HOH      O 5613   2.108   3.916   0.723
 1803HOH     H1 5614   2.039   3.978   0.745
 1803HOH     H2 5615   2.068   3.830   0.737
 1804HOH      O 5616   1.550   2.736   1.171
 1804HOH     H1 5617   1.577   2.827   1.161
 1804HOH     H2 5618   1.586   2.710   1.256
 1805HOH      O 5619   3.439   1.257   1.567
 1805HOH     H1 5620   3.457   1.337   1.518
 1805HOH     H2 5621   3.390   1.202   1.505
 1806HOH      O 5622   1.774   1.770   4.004
 1806HOH     H1 5623   1.681   1.781   4.025
 1806HOH     H2 5624   1.797   1.847   3.953
 1807HOH      O 5625   1.558   0.398   2.965
 1807HOH     H1 5626   1.551   0.310   3.002
 1807HOH     H2 5627   1.530   0.456   3.036
 1808HOH      O 5628   2.090   3.502   1.171
 1808HOH     H1 5629   2.173   3.498   1.219
 1808HOH     H2 5630   2.096   3.430   1.108
 1809HOH      O 5631   2.158   3.448   0.672
 1809HOH     H1 5632   2.139   3.422   0.581
 1809HOH     H2 5633   2.226   3.386   0.700
 1810HOH      O 5634   2.001   2.790   0.384
 1810HOH     H1 5635   1.917   2.811   0.343
 1810HOH     H2 5636   2.015   2.697   0.364
 1811HOH      O 5637   0.958   2.767   3.813
 1811HOH     H1 5638   0.985   2.750   3.903
 1811HOH     H2 5639   0.953   2.681   3.772
 1812HOH      O 5640   2.191   3.707   3.648
 1812HOH     H1 5641   2.226   3.644   3.585
 1812HOH     H2 5642   2.257   3.711   3.717
 1813HOH      O 5643   3.643   2.058   0.883
 1813HOH     H1 5644   3.589   2.037   0.960
 1813HOH     H2 5645   3.705   2.123   0.916
 1814HOH      O 5646   1.175   0.161   1.298
 1814HOH     H1 5647   1.136   0.205   1.373
 1814HOH     H2 5648   1.269   0.158   1.319
 1815HOH      O 5649   3.264   2.664   3.887
 1815HOH     H1 5650   3.282   2.753   3.918
 1815HOH     H2 5651   3.335   2.643   3.827
 1816HOH      O 5652   3.636   2.475   3.541
 1816HOH     H1 5653   3.584   2.486   3.621
 1816HOH     H2 5654   3.695   2.551   3.540
 1817HOH      O 5655   2.539   2.567   2.036
 1817HOH     H1 5656   2.548   2.498   2.102
 1817HOH     H2 5657   2.533   2.519   1.953
 1818HOH      O 5658   1.493   2.702   2.654
 1818HOH     H1 5659   1.408   2.688   2.613
 1818HOH     H2 5660   1.545   2.626   2.629
 1819HOH      O 5661   3.040   1.306   0.539
 1819HOH     H1 5662   2.980   1.233   0.521
 1819HOH     H2 5663   3.079   1.326   0.454
 1820HOH      O 5664   1.174   0.403   0.981
 1820HOH     H1 5665   1.118   0.327   0.963
 1820HOH     H2 5666   1.180   0.407   1.076
 1821HOH      O 5667   2.370   3.532   0.441
 1821HOH     H1 5668   2.317   3.452   0.437
 1821HOH     H2 5669   2.306   3.603   0.440
 1822HOH      O 5670   0.702   1.463   2.902
 1822HOH     H1 5671   0.778   1.512   2.933
 1822HOH     H2 5672   0.652   1.526   2.850
 1823HOH      O 5673   2.979   0.253   0.336
 1823HOH     H1 5674   3.044   0.281   0.272
 1823HOH     H2 5675   3.025   0.191   0.393
 1824HOH      O 5676   2.808   1.258   2.486
 1824HOH     H1 5677   2.749   1.185   2.467
 1824HOH     H2 5678   2.784   1.325   2.422
 1825HOH      O 5679   3.870   0.262   2.469
 1825HOH     H1 5680   3.873   0.303   2.556
 1825HOH     H2 5681   3.777   0.250   2.452
 1826HOH      O 5682   0.987   2.657   1.821
 1826HOH     H1 5683   0.902   2.630   1.786
 1826HOH     H2 5684   1.029   2.575   1.848
 1827HOH      O 5685   1.454   0.941   2.380
 1827HOH     H1 5686   1.466   1.030   2.411
 1827HOH     H2 5687   1.521   0.929   2.312
 1828HOH      O 5688   2.310   3.462   2.000
 1828HOH     H1 5689   2.376   3.443   1.933
 1828HOH     H2 5690   2.354   3.443   2.083
 1829HOH      O 5691   3.380   3.808   1.612
 1829HOH     H1 5692   3.404   3.728   1.658
 1829HOH     H2 5693   3.332   3.860   1.677
 1830HOH      O 5694   1.080   1.572   3.795
 1830HOH     H1 5695   1.012   1.521   3.752
 1830HOH     H2 5696   1.129   1.612   3.723
 1831HOH      O 5697   0.770   2.216   0.562
 1831HOH     H1 5698   0.860   2.190   0.542
 1831HOH     H2 5699   0.771   2.311   0.556
 1832HOH      O 5700   1.038   2.204   3.582
 1832HOH     H1 5701   1.003   2.190   3.670
 1832HOH     H2 5702   1.096   2.280   3.591
 1833HOH      O 5703   1.784   2.551   3.726
 1833HOH     H1 5704   1.876   2.545   3.753
 1833HOH     H2 5705   1.783   2.518   3.636
 1834HOH      O 5706   3.299   1.603   3.901
 1834HOH     H1 5707   3.286   1.561   3.986
 1834HOH     H2 5708   3.340   1.536   3.847
 1835HOH      O 5709   3.156   3.880   3.961
 1835HOH     H1 5710   3.130   3.913   3.875
 1835HOH     H2 5711   3.229   3.935   3.988
 1836HOH      O 5712   3.538   1.753   3.639
 1836HOH     H1 5713   3.518   1.846   3.650
 1836HOH     H2 5714   3.588   1.748   3.558
 1837HOH      O 5715   2.311   0.542   2.236
 1837HOH     H1 5716   2.246   0.560   2.303
 1837HOH     H2 5717   2.312   0.446   2.230
 1838HOH      O 5718   1.663   0.456   0.283
 1838HOH     H1 5719   1.735   0.483   0.339
 1838HOH     H2 5720   1.584   0.490   0.326
 1839HOH      O 5721   2.102   0.650   0.095
 1839HOH     H1 5722   2.071   0.726   0.046
 1839HOH     H2 5723   2.029   0.589   0.093
 1840HOH      O 5724   3.478   2.091   0.269
 1840HOH     H1 5725   3.414   2.048   0.212
 1840HOH     H2 5726   3.445   2.076   0.358
 1841HOH      O 5727   2.865   2.822   0.168
 1841HOH     H1 5728   2.779   2.783   0.186
 1841HOH     H2 5729   2.862   2.845   0.076
 1842HOH      O 5730   1.168   3.587   2.677
 1842HOH     H1 5731   1.180   3.633   2.760
 1842HOH     H2 5732   1.245   3.530   2.670
 1843HOH      O 5733   3.649   0.610   1.609
 1843HOH     H1 5734   3.705   0.562   1.670
 1843HOH     H2 5735   3.566   0.621   1.655
 1844HOH      O 5736   2.473   1.059   0.529
 1844HOH     H1 5737   2.411   1.068   0.456
 1844HOH     H2 5738   2.527   0.983   0.505
 1845HOH      O 5739   1.754   3.989   2.169
 1845HOH     H1 5740   1.749   4.066   2.226
 1845HOH     H2 5741   1.807   3.926   2.217
 1846HOH      O 5742   3.775   1.689   1.001
 1846HOH     H1 5743   3.847   1.751   0.999
 1846HOH     H2 5744   3.719   1.713   0.927
 1847HOH      O 5745   2.119   0.344   0.237
 1847HOH     H1 5746   2.150   0.435   0.236
 1847HOH     H2 5747   2.197   0.293   0.258
 1848HOH      O 5748   0.599   2.415   3.823
 1848HOH     H1 5749   0.599   2.508   3.802
 1848HOH     H2 5750   0.509   2.387   3.809
 1849HOH      O 5751   3.184   1.402   3.674
 1849HOH     H1 5752   3.144   1.376   3.756
 1849HOH     H2 5753   3.278   1.390   3.688
 1850HOH      O 5754   1.525   2.744   1.893
 1850HOH     H1 5755   1.491   2.808   1.955
 1850HOH     H2 5756   1.521   2.660   1.939
 1851HOH      O 5757   3.673   0.276   2.003
 1851HOH     H1 5758   3.753   0.288   2.055
 1851HOH     H2 5759   3.674   0.184   1.978
 1852HOH      O 5760   2.479   2.271   3.108
 1852HOH     H1 5761   2.441   2.358   3.119
 1852HOH     H2 5762   2.539   2.262   3.182
 1853HOH      O 5763   3.031   2.602   0.294
 1853HOH     H1 5764   2.999   2.683   0.253
 1853HOH     H2 5765   3.060   2.628   0.381
 1854HOH      O 5766   1.713   3.279   3.095
 1854HOH     H1 5767   1.721   3.368   3.129
 1854HOH     H2 5768   1.764   3.225   3.154
 1855HOH      O 5769   0.910   3.800   0.468
 1855HOH     H1 5770   0.858   3.780   0.390
 1855HOH     H2 5771   0.888   3.891   0.489
 1856HOH      O 5772   1.957   1.137   3.571
 1856HOH     H1 5773   1.970   1.074   3.500
 1856HOH     H2 5774   2.030   1.120   3.631
 1857HOH      O 5775   3.141   3.682   2.421
 1857HOH     H1 5776   3.111   3.605   2.373
 1857HOH     H2 5777   3.116   3.665   2.511
 1858HOH      O 5778   3.702   0.299   0.657
 1858HOH     H1 5779   3.618   0.288   0.612
 1858HOH     H2 5780   3.718   0.214   0.699
 1859HOH      O 5781   0.649   3.500   0.401
 1859HOH     H1 5782   0.599   3.421   0.381
 1859HOH     H2 5783   0.660   3.499   0.496
 1860HOH      O 5784   1.816   2.041   0.216
 1860HOH     H1 5785   1.878   2.106   0.184
 1860HOH     H2 5786   1.864   1.993   0.284
 1861HOH      O 5787   2.314   2.205   3.694
 1861HOH     H1 5788   2.344   2.120   3.661
 1861HOH     H2 5789   2.225   2.214   3.659
 1862HOH      O 5790   3.186   0.122   1.668
 1862HOH     H1 5791   3.143   0.048   1.625
 1862HOH     H2 5792   3.158   0.115   1.760
 1863HOH      O 5793   2.913   2.912   2.015
 1863HOH     H1 5794   2.876   2.945   1.933
 1863HOH     H2 5795   2.886   2.820   2.018
 1864HOH      O 5796   3.784   2.722   3.516
 1864HOH     H1 5797   3.853   2.686   3.460
 1864HOH     H2 5798   3.731   2.775   3.457
 1865HOH      O 5799   1.358   1.682   0.896
 1865HOH     H1 5800   1.307   1.606   0.925
 1865HOH     H2 5801   1.309   1.758   0.928
 1866HOH      O 5802   3.956   1.307   2.122
 1866HOH     H1 5803   3.948   1.292   2.028
 1866HOH     H2 5804   3.908   1.235   2.162
 1867HOH      O 5805   1.564   0.683   1.296
 1867HOH     H1 5806   1.565   0.597   1.253
 1867HOH     H2 5807   1.523   0.742   1.233
 1868HOH      O 5808   0.155   2.820   3.482
 1868HOH     H1 5809   0.077   2.764   3.474
 1868HOH     H2 5810   0.194   2.819   3.394
 1869HOH      O 5811   1.515   2.796   3.291
 1869HOH     H1 5812   1.496   2.815   3.383
 1869HOH     H2 5813   1.447   2.843   3.242
 1870HOH      O 5814   1.092   3.996   3.199
 1870HOH     H1 5815   1.017   3.944   3.172
 1870HOH     H2 5816   1.059   4.086   3.201
 1871HOH      O 5817   3.198   2.670   0.561
 1871HOH     H1 5818   3.244   2.750   0.583
 1871HOH     H2 5819   3.105   2.691   0.575
 1872HOH      O 5820   3.444   2.763   0.099
 1872HOH     H1 5821   3.357   2.800   0.083
 1872HOH     H2 5822   3.430   2.692   0.161
 1873HOH      O 5823   1.883   0.575   0.489
 1873HOH     H1 5824   1.913   0.653   0.444
 1873HOH     H2 5825   1.933   0.503   0.450
 1874HOH      O 5826   0.412   3.689   0.631
 1874HOH     H1 5827   0.496   3.667   0.671
 1874HOH     H2 5828   0.347   3.651   0.690
 1875HOH      O 5829   1.447   3.176   1.201
 1875HOH     H1 5830   1.364   3.207   1.162
 1875HOH     H2 5831   1.464   3.238   1.271
 1876HOH      O 5832   2.289   1.161   0.753
 1876HOH     H1 5833   2.283   1.185   0.846
 1876HOH     H2 5834   2.382   1.170   0.732
 1877HOH      O 5835   3.512   0.595   3.388
 1877HOH     H1 5836   3.458   0.605   3.467
 1877HOH     H2 5837   3.448   0.596   3.317
 1878HOH      O 5838   1.682   3.700   0.049
 1878HOH     H1 5839   1.667   3.784   0.006
 1878HOH     H2 5840   1.649   3.635  -0.013
 1879HOH      O 5841   1.859   0.396   3.239
 1879HOH     H1 5842   1.874   0.303   3.223
 1879HOH     H2 5843   1.780   0.399   3.293
 1880HOH      O 5844   0.704   3.485   3.692
 1880HOH     H1 5845   0.612   3.472   3.715
 1880HOH     H2 5846   0.750   3.414   3.735
 1881HOH      O 5847   1.692   1.880   1.142
 1881HOH     H1 5848   1.649   1.803   1.179
 1881HOH     H2 5849   1.621   1.935   1.112
 1882HOH      O 5850   0.779   0.176   1.059
 1882HOH     H1 5851   0.744   0.245   1.115
 1882HOH     H2 5852   0.749   0.199   0.971
 1883HOH      O 5853   3.415   0.395   1.968
 1883HOH     H1 5854   3.449   0.310   1.940
 1883HOH     H2 5855   3.463   0.415   2.048
 1884HOH      O 5856   3.673   0.905   3.621
 1884HOH     H1 5857   3.700   0.814   3.612
 1884HOH     H2 5858   3.734   0.942   3.684
 1885HOH      O 5859   3.097   2.123   0.971
 1885HOH     H1 5860   3.132   2.142   1.058
 1885HOH     H2 5861   3.047   2.201   0.947
 1886HOH      O 5862   2.399   0.959   0.072
 1886HOH     H1 5863   2.451   0.880   0.057
 1886HOH     H2 5864   2.462   1.031   0.061
 1887HOH      O 5865   0.320   3.413   0.176
 1887HOH     H1 5866   0.362   3.457   0.102
 1887HOH     H2 5867   0.332   3.320   0.159
 1888HOH      O 5868   0.635   2.379   0.942
 1888HOH     H1 5869   0.605   2.301   0.895
 1888HOH     H2 5870   0.562   2.440   0.937
 1889HOH      O 5871   2.360   3.086   1.320
 1889HOH     H1 5872   2.452   3.080   1.346
 1889HOH     H2 5873   2.361   3.077   1.224
 1890HOH      O 5874   2.457   3.163   2.727
 1890HOH     H1 5875   2.544   3.201   2.713
 1890HOH     H2 5876   2.473   3.069   2.737
 1891HOH      O 5877   2.374   2.269   0.136
 1891HOH     H1 5878   2.439   2.259   0.205
 1891HOH     H2 5879   2.407   2.218   0.062
 1892HOH      O 5880   0.827   2.821   1.491
 1892HOH     H1 5881   0.918   2.827   1.462
 1892HOH     H2 5882   0.818   2.732   1.525
 1893HOH      O 5883   0.733   1.363   4.022
 1893HOH     H1 5884   0.701   1.329   4.105
 1893HOH     H2 5885   0.745   1.285   3.967
 1894HOH      O 5886   3.826   1.072   1.333
 1894HOH     H1 5887   3.887   1.056   1.405
 1894HOH     H2 5888   3.758   1.005   1.343
 1895HOH      O 5889   2.623   0.732   0.098
 1895HOH     H1 5890   2.542   0.683   0.087
 1895HOH     H2 5891   2.690   0.681   0.052
 1896HOH      O 5892   1.750   2.013   0.802
 1896HOH     H1 5893   1.656   1.995   0.809
 1896HOH     H2 5894   1.768   2.077   0.870
 1897HOH      O 5895   3.608   0.482   0.861
 1897HOH     H1 5896   3.533   0.450   0.911
 1897HOH     H2 5897   3.598   0.442   0.774
 1898HOH      O 5898   0.045   2.601   0.671
 1898HOH     H1 5899   0.038   2.547   0.749
 1898HOH     H2 5900   0.030   2.541   0.598
 1899HOH      O 5901   1.102   3.442   1.298
 1899HOH     H1 5902   1.178   3.472   1.348
 1899HOH     H2 5903   1.028   3.488   1.337
 1900HOH      O 5904   3.210   2.314   0.255
 1900HOH     H1 5905   3.299   2.323   0.287
 1900HOH     H2 5906   3.174   2.402   0.257
 1901HOH      O 5907   0.172   3.126   3.116
 1901HOH     H1 5908   0.085   3.166   3.116
 1901HOH     H2 5909   0.223   3.179   3.054
 1902HOH      O 5910   3.633   2.679   2.038
 1902HOH     H1 5911   3.677   2.747   1.987
 1902HOH     H2 5912   3.687   2.669   2.116
 1903HOH      O 5913   2.393   0.210   0.263
 1903HOH     H1 5914   2.449   0.132   0.270
 1903HOH     H2 5915   2.403   0.254   0.348
 1904HOH      O 5916   0.457   0.989   3.624
 1904HOH     H1 5917   0.500   1.043   3.690
 1904HOH     H2 5918   0.527   0.935   3.587
 1905HOH      O 5919   2.516   0.026   0.644
 1905HOH     H1 5920   2.498  -0.067   0.660
 1905HOH     H2 5921   2.470   0.046   0.562
 1906HOH      O 5922   2.254   0.434   1.361
 1906HOH     H1 5923   2.290   0.408   1.276
 1906HOH     H2 5924   2.217   0.354   1.397
 1907HOH      O 5925   1.130   2.014   2.175
 1907HOH     H1 5926   1.078   1.933   2.180
 1907HOH     H2 5927   1.069   2.082   2.205
 1908HOH      O 5928   1.896   0.861   2.323
 1908HOH     H1 5929   1.964   0.841   2.258
 1908HOH     H2 5930   1.940   0.916   2.388
 1909HOH      O 5931   1.366   0.244   3.675
 1909HOH     H1 5932   1.352   0.153   3.650
 1909HOH     H2 5933   1.278   0.277   3.694
 1910HOH      O 5934   1.623   0.409   3.374
 1910HOH     H1 5935   1.568   0.464   3.430
 1910HOH     H2 5936   1.587   0.321   3.383
 1911HOH      O 5937   2.881   2.666   3.187
 1911HOH     H1 5938   2.887   2.759   3.210
 1911HOH     H2 5939   2.800   2.636   3.229
 1912HOH      O 5940   0.581   1.069   2.949
 1912HOH     H1 5941   0.547   1.155   2.973
 1912HOH     H2 5942   0.583   1.070   2.854
 1913HOH      O 5943   3.456   0.443   1.262
 1913HOH     H1 5944   3.455   0.380   1.334
 1913HOH     H2 5945   3.364   0.470   1.253
 1914HOH      O 5946   1.511   1.888   3.963
 1914HOH     H1 5947   1.423   1.924   3.959
 1914HOH     H2 5948   1.550   1.927   4.042
 1915HOH      O 5949   0.240   2.043   1.291
 1915HOH     H1 5950   0.284   2.128   1.294
 1915HOH     H2 5951   0.238   2.014   1.382
 1916HOH      O 5952   1.753   1.638   3.584
 1916HOH     H1 5953   1.717   1.720   3.617
 1916HOH     H2 5954   1.677   1.588   3.556
 1917HOH      O 5955   0.476   1.223   0.438
 1917HOH     H1 5956   0.388   1.235   0.404
 1917HOH     H2 5957   0.490   1.298   0.495
 1918HOH      O 5958   0.881   1.919   1.821
 1918HOH     H1 5959   0.899   2.002   1.779
 1918HOH     H2 5960   0.789   1.926   1.848
 1919HOH      O 5961   2.060   3.047   0.153
 1919HOH     H1 5962   2.086   3.018   0.065
 1919HOH     H2 5963   1.984   3.104   0.138
 1920HOH      O 5964   0.451   3.395   3.747
 1920HOH     H1 5965   0.387   3.367   3.812
 1920HOH     H2 5966   0.408   3.378   3.663
 1921HOH      O 5967   1.982   1.188   1.299
 1921HOH     H1 5968   1.942   1.163   1.215
 1921HOH     H2 5969   2.000   1.281   1.289
 1922HOH      O 5970   1.505   0.876   0.046
 1922HOH     H1 5971   1.473   0.887  -0.044
 1922HOH     H2 5972   1.530   0.964   0.073
 1923HOH      O 5973   1.725   3.261   0.304
 1923HOH     H1 5974   1.772   3.203   0.244
 1923HOH     H2 5975   1.701   3.206   0.378
 1924HOH      O 5976   1.009   0.588   3.387
 1924HOH     H1 5977   0.961   0.543   3.317
 1924HOH     H2 5978   1.101   0.575   3.364
 1925HOH      O 5979   2.684   3.386   1.237
 1925HOH     H1 5980   2.711   3.478   1.232
 1925HOH     H2 5981   2.617   3.384   1.305
 1926HOH      O 5982   1.346   1.133   1.117
 1926HOH     H1 5983   1.273   1.117   1.177
 1926HOH     H2 5984   1.371   1.046   1.086
 1927HOH      O 5985   1.418   3.405   3.782
 1927HOH     H1 5986   1.434   3.461   3.858
 1927HOH     H2 5987   1.363   3.458   3.724
 1928HOH      O 5988   3.829   1.716   3.974
 1928HOH     H1 5989   3.765   1.659   3.930
 1928HOH     H2 5990   3.841   1.676   4.060
 1929HOH      O 5991   1.608   3.157   2.557
 1929HOH     H1 5992   1.649   3.240   2.533
 1929HOH     H2 5993   1.665   3.090   2.517
 1930HOH      O 5994   2.478   2.425   1.584
 1930HOH     H1 5995   2.403   2.470   1.547
 1930HOH     H2 5996   2.481   2.341   1.538
 1931HOH      O 5997   4.029   3.957   2.839
 1931HOH     H1 5998   3.979   3.959   2.758
 1931HOH     H2 5999   3.988   4.025   2.893
 1932HOH      O 6000   1.656   2.697   1.424
 1932HOH     H1 6001   1.666   2.684   1.518
 1932HOH     H2 6002   1.723   2.640   1.385
 1933HOH      O 6003   0.884   3.475   2.644
 1933HOH     H1 6004   0.804   3.425   2.656
 1933HOH     H2 6005   0.902   3.514   2.730
 1934HOH      O 6006   2.908   3.199   2.412
 1934HOH     H1 6007   2.965   3.181   2.487
 1934HOH     H2 6008   2.912   3.119   2.359
 1935HOH      O 6009   1.067   3.041   0.411
 1935HOH     H1 6010   1.016   3.059   0.489
 1935HOH     H2 6011   1.141   2.989   0.442
 1936HOH      O 6012   2.384   0.803   0.907
 1936HOH     H1 6013   2.336   0.723   0.886
 1936HOH     H2 6014   2.465   0.772   0.947
 1937HOH      O 6015   1.699   0.646   0.665
 1937HOH     H1 6016   1.643   0.571   0.685
 1937HOH     H2 6017   1.741   0.623   0.582
 1938HOH      O 6018   1.466   1.298   0.308
 1938HOH     H1 6019   1.398   1.323   0.247
 1938HOH     H2 6020   1.440   1.339   0.391
 1939HOH      O 6021   3.995   1.058   2.660
 1939HOH     H1 6022   3.984   0.963   2.655
 1939HOH     H2 6023   3.912   1.090   2.695
 1940HOH      O 6024   1.818   3.754   1.756
 1940HOH     H1 6025   1.763   3.824   1.721
 1940HOH     H2 6026   1.905   3.773   1.722
 1941HOH      O 6027   1.625   1.013   1.017
 1941HOH     H1 6028   1.706   1.049   1.052
 1941HOH     H2 6029   1.653   0.937   0.966
 1942HOH      O 6030   2.864   3.309   3.455
 1942HOH     H1 6031   2.792   3.371   3.458
 1942HOH     H2 6032   2.880   3.285   3.547
 1943HOH      O 6033   0.533   0.987   0.568
 1943HOH     H1 6034   0.615   1.013   0.611
 1943HOH     H2 6035   0.511   1.062   0.512
 1944HOH      O 6036   0.056   0.813   3.443
 1944HOH     H1 6037   0.142   0.772   3.431
 1944HOH     H2 6038   0.043   0.814   3.537
 1945HOH      O 6039   0.111   1.281   3.035
 1945HOH     H1 6040   0.104   1.366   3.079
 1945HOH     H2 6041   0.204   1.273   3.013
 1946HOH      O 6042   3.148   1.164   3.990
 1946HOH     H1 6043   3.115   1.248   3.957
 1946HOH     H2 6044   3.164   1.113   3.911
 1947HOH      O 6045   1.172   0.421   2.542
 1947HOH     H1 6046   1.233   0.489   2.513
 1947HOH     H2 6047   1.226   0.359   2.590
 1948HOH      O 6048   3.360   1.520   1.750
 1948HOH     H1 6049   3.437   1.508   1.694
 1948HOH     H2 6050   3.321   1.602   1.720
 1949HOH      O 6051   0.818   3.979   1.267
 1949HOH     H1 6052   0.904   4.005   1.301
 1949HOH     H2 6053   0.837   3.927   1.190
 1950HOH      O 6054   0.365   3.962   2.988
 1950HOH     H1 6055   0.453   3.927   2.994
 1950HOH     H2 6056   0.316   3.896   2.939
 1951HOH      O 6057   1.274   3.456   1.818
 1951HOH     H1 6058   1.358   3.461   1.773
 1951HOH     H2 6059   1.281   3.520   1.889
 1952HOH      O 6060   2.596   2.136   0.349
 1952HOH     H1 6061   2.641   2.062   0.392
 1952HOH     H2 6062   2.647   2.151   0.270
 1953HOH      O 6063   1.209   0.376   0.546
 1953HOH     H1 6064   1.219   0.469   0.568
 1953HOH     H2 6065   1.276   0.332   0.598
 1954HOH      O 6066   2.168   2.434   1.347
 1954HOH     H1 6067   2.158   2.490   1.425
 1954HOH     H2 6068   2.110   2.360   1.364
 1955HOH      O 6069   2.642   1.964   1.552
 1955HOH     H1 6070   2.702   1.965   1.626
 1955HOH     H2 6071   2.576   1.899   1.575
 1956HOH      O 6072   3.069   3.820   3.645
 1956HOH     H1 6073   3.028   3.881   3.584
 1956HOH     H2 6074   3.102   3.749   3.590
 1957HOH      O 6075   3.308   0.557   0.483
 1957HOH     H1 6076   3.291   0.638   0.531
 1957HOH     H2 6077   3.305   0.582   0.391
 1958HOH      O 6078   2.738   1.733   1.404
 1958HOH     H1 6079   2.656   1.768   1.370
 1958HOH     H2 6080   2.711   1.674   1.475
 1959HOH      O 6081   2.623   1.629   0.465
 1959HOH     H1 6082   2.597   1.643   0.556
 1959HOH     H2 6083   2.542   1.602   0.421
 1960HOH      O 6084   0.867   3.021   2.027
 1960HOH     H1 6085   0.894   3.016   1.935
 1960HOH     H2 6086   0.773   3.042   2.024
 1961HOH      O 6087   0.672   0.713   3.853
 1961HOH     H1 6088   0.598   0.653   3.859
 1961HOH     H2 6089   0.698   0.727   3.944
 1962HOH      O 6090   2.013   0.793   0.360
 1962HOH     H1 6091   1.934   0.840   0.336
 1962HOH     H2 6092   2.072   0.806   0.285
 1963HOH      O 6093   1.590   3.397   1.361
 1963HOH     H1 6094   1.569   3.359   1.447
 1963HOH     H2 6095   1.676   3.436   1.373
 1964HOH      O 6096   1.538   3.468   0.261
 1964HOH     H1 6097   1.604   3.427   0.317
 1964HOH     H2 6098   1.573   3.554   0.241
 1965HOH      O 6099   3.506   0.701   2.264
 1965HOH     H1 6100   3.492   0.688   2.357
 1965HOH     H2 6101   3.438   0.763   2.237
 1966HOH      O 6102   2.184   0.498   1.030
 1966HOH     H1 6103   2.112   0.502   1.093
 1966HOH     H2 6104   2.146   0.527   0.947
 1967HOH      O 6105   0.767   3.165   3.261
 1967HOH     H1 6106   0.837   3.140   3.201
 1967HOH     H2 6107   0.784   3.256   3.282
 1968HOH      O 6108   1.565   4.010   0.539
 1968HOH     H1 6109   1.544   4.005   0.632
 1968HOH     H2 6110   1.660   3.997   0.535
 1969HOH      O 6111   1.532   2.011   1.745
 1969HOH     H1 6112   1.625   1.990   1.738
 1969HOH     H2 6113   1.521   2.042   1.835
 1970HOH      O 6114   3.294   3.897   1.872
 1970HOH     H1 6115   3.200   3.907   1.855
 1970HOH     H2 6116   3.299   3.853   1.957
 1971HOH      O 6117   0.039   2.894   1.608
 1971HOH     H1 6118   0.074   2.810   1.577
 1971HOH     H2 6119   0.057   2.893   1.703
 1972HOH      O 6120   0.046   3.665   1.693
 1972HOH     H1 6121   0.119   3.655   1.753
 1972HOH     H2 6122   0.015   3.575   1.679
 1973HOH      O 6123   0.826   1.919   3.448
 1973HOH     H1 6124   0.763   1.983   3.478
 1973HOH     H2 6125   0.773   1.849   3.409
 1974HOH      O 6126   0.432   1.653   0.011
 1974HOH     H1 6127   0.526   1.654   0.029
 1974HOH     H2 6128   0.392   1.671   0.096
 1975HOH      O 6129   3.249   3.309   2.983
 1975HOH     H1 6130   3.240   3.396   3.022
 1975HOH     H2 6131   3.341   3.303   2.957
 1976HOH      O 6132   3.484   2.248   3.563
 1976HOH     H1 6133   3.569   2.279   3.595
 1976HOH     H2 6134   3.478   2.281   3.474
 1977HOH      O 6135   0.106   3.795   3.461
 1977HOH     H1 6136   0.010   3.788   3.458
 1977HOH     H2 6137   0.124   3.841   3.543
 1978HOH      O 6138   0.914   2.814   0.774
 1978HOH     H1 6139   0.898   2.895   0.822
 1978HOH     H2 6140   0.843   2.755   0.801
 1979HOH      O 6141   2.347   0.778   3.502
 1979HOH     H1 6142   2.299   0.704   3.540
 1979HOH     H2 6143   2.370   0.749   3.414
 1980HOH      O 6144   0.960   0.203   2.872
 1980HOH     H1 6145   0.897   0.260   2.828
 1980HOH     H2 6146   0.999   0.151   2.801
 1981HOH      O 6147   2.036   0.834   3.765
 1981HOH     H1 6148   2.102   0.891   3.804
 1981HOH     H2 6149   1.961   0.841   3.823
 1982HOH      O 6150   2.438   2.060   1.174
 1982HOH     H1 6151   2.347   2.064   1.145
 1982HOH     H2 6152   2.489   2.085   1.097
 1983HOH      O 6153   3.001   0.697   2.065
 1983HOH     H1 6154   2.942   0.741   2.125
 1983HOH     H2 6155   2.966   0.717   1.978
 1984HOH      O 6156   3.001   3.731   1.338
 1984HOH     H1 6157   3.015   3.753   1.246
 1984HOH     H2 6158   3.055   3.653   1.353
 1985HOH      O 6159   1.138   0.631   1.477
 1985HOH     H1 6160   1.150   0.721   1.448
 1985HOH     H2 6161   1.123   0.637   1.571
 1986HOH      O 6162   3.926   1.816   0.708
 1986HOH     H1 6163   3.901   1.890   0.653
 1986HOH     H2 6164   3.860   1.750   0.690
 1987HOH      O 6165   0.391   1.807   0.699
 1987HOH     H1 6166   0.448   1.772   0.630
 1987HOH     H2 6167   0.310   1.757   0.692
 1988HOH      O 6168   3.951   0.175   0.546
 1988HOH     H1 6169   4.018   0.142   0.606
 1988HOH     H2 6170   3.908   0.245   0.594
 1989HOH      O 6171   3.401   3.651   0.480
 1989HOH     H1 6172   3.382   3.619   0.392
 1989HOH     H2 6173   3.455   3.729   0.466
 1990HOH      O 6174   2.967   2.495   1.678
 1990HOH     H1 6175   3.047   2.508   1.728
 1990HOH     H2 6176   2.991   2.517   1.588
 1991HOH      O 6177   2.264   1.925   2.758
 1991HOH     H1 6178   2.311   1.955   2.836
 1991HOH     H2 6179   2.218   1.846   2.787
 1992HOH      O 6180   3.560   0.917   0.503
 1992HOH     H1 6181   3.655   0.924   0.511
 1992HOH     H2 6182   3.526   0.998   0.543
 1993HOH      O 6183   1.990   1.441   1.512
 1993HOH     H1 6184   2.058   1.493   1.557
 1993HOH     H2 6185   1.966   1.374   1.576
 1994HOH      O 6186   1.575   0.299   2.309
 1994HOH     H1 6187   1.623   0.337   2.383
 1994HOH     H2 6188   1.484   0.326   2.323
 1995HOH      O 6189   3.861   0.982   1.605
 1995HOH     H1 6190   3.798   1.038   1.650
 1995HOH     H2 6191   3.915   0.944   1.675
 1996HOH      O 6192   0.055   1.699   2.450
 1996HOH     H1 6193   0.148   1.697   2.425
 1996HOH     H2 6194   0.010   1.727   2.370
 1997HOH      O 6195   3.085   3.946   1.514
 1997HOH     H1 6196   3.004   3.945   1.566
 1997HOH     H2 6197   3.075   3.872   1.454
 1998HOH      O 6198   1.268   3.159   3.814
 1998HOH     H1 6199   1.317   3.236   3.843
 1998HOH     H2 6200   1.241   3.181   3.725
 1999HOH      O 6201   3.490   1.963   2.264
 1999HOH     H1 6202   3.470   2.042   2.315
 1999HOH     H2 6203   3.578   1.938   2.291
 2000HOH      O 6204   2.176   1.339   2.855
 2000HOH     H1 6205   2.190   1.398   2.929
 2000HOH     H2 6206   2.254   1.283   2.854
 2001HOH      O 6207   1.549   2.538   3.041
 2001HOH     H1 6208   1.515   2.626   3.025
 2001HOH     H2 6209   1.471   2.487   3.066
 2002HOH      O 6210   3.311   3.930   2.666
 2002HOH     H1 6211   3.244   3.862   2.674
 2002HOH     H2 6212   3.269   4.009   2.699
 2003HOH      O 6213   1.696   3.718   3.557
 2003HOH     H1 6214   1.744   3.760   3.628
 2003HOH     H2 6215   1.607   3.707   3.591
 2004HOH      O 6216   1.592   1.260   1.887
 2004HOH     H1 6217   1.679   1.300   1.888
 2004HOH     H2 6218   1.533   1.333   1.870
 2005HOH      O 6219   0.283   0.949   0.428
 2005HOH     H1 6220   0.255   1.001   0.504
 2005HOH     H2 6221   0.275   0.858   0.457
 2006HOH      O 6222   3.609   2.462   0.794
 2006HOH     H1 6223   3.560   2.515   0.857
 2006HOH     H2 6224   3.700   2.489   0.807
 2007HOH      O 6225   3.650   3.837   0.533
 2007HOH     H1 6226   3.742   3.855   0.518
 2007HOH     H2 6227   3.649   3.774   0.605
 2008HOH      O 6228   0.807   3.731   0.230
 2008HOH     H1 6229   0.730   3.786   0.217
 2008HOH     H2 6230   0.811   3.676   0.152
 2009HOH      O 6231   1.920   0.241   1.091
 2009HOH     H1 6232   1.885   0.169   1.143
 2009HOH     H2 6233   1.898   0.320   1.142
 2010HOH      O 6234   3.680   2.337   1.475
 2010HOH     H1 6235   3.658   2.390   1.399
 2010HOH     H2 6236   3.603   2.343   1.532
 2011HOH      O 6237   3.078   3.818   2.998
 2011HOH     H1 6238   3.078   3.842   3.091
 2011HOH     H2 6239   2.985   3.814   2.974
 2012HOH      O 6240   3.404   0.242   1.485
 2012HOH     H1 6241   3.339   0.210   1.546
 2012HOH     H2 6242   3.473   0.176   1.485
 2013HOH      O 6243   2.655   3.932   1.629
 2013HOH     H1 6244   2.582   3.954   1.571
 2013HOH     H2 6245   2.713   4.007   1.625
 2014HOH      O 6246   1.215   3.688   2.921
 2014HOH     H1 6247   1.228   3.618   2.986
 2014HOH     H2 6248   1.212   3.768   2.973
 2015HOH      O 6249   1.678   1.880   3.713
 2015HOH     H1 6250   1.762   1.902   3.753
 2015HOH     H2 6251   1.617   1.875   3.787
 2016HOH      O 6252   2.274   0.982   0.302
 2016HOH     H1 6253   2.338   0.968   0.232
 2016HOH     H2 6254   2.208   1.040   0.263
 2017HOH      O 6255   0.874   3.013   3.961
 2017HOH     H1 6256   0.936   2.957   3.915
 2017HOH     H2 6257   0.881   2.987   4.053
 2018HOH      O 6258   2.633   0.514   0.821
 2018HOH     H1 6259   2.624   0.555   0.907
 2018HOH     H2 6260   2.694   0.441   0.836
 2019HOH      O 6261   1.928   2.638   2.113
 2019HOH     H1 6262   1.977   2.705   2.065
 2019HOH     H2 6263   1.953   2.555   2.072
 2020HOH      O 6264   0.370   1.316   2.190
 2020HOH     H1 6265   0.312   1.262   2.137
 2020HOH     H2 6266   0.316   1.344   2.264
 2021HOH      O 6267   2.894   3.988  -0.029
 2021HOH     H1 6268   2.875   4.013   0.061
 2021HOH     H2 6269   2.989   3.974  -0.031
 2022HOH      O 6270   3.422   1.167   0.518
 2022HOH     H1 6271   3.433   1.233   0.586
 2022HOH     H2 6272   3.364   1.101   0.558
 2023HOH      O 6273   1.264   1.754   1.291
 2023HOH     H1 6274   1.186   1.703   1.315
 2023HOH     H2 6275   1.249   1.780   1.200
 2024HOH      O 6276   1.920   3.752   2.235
 2024HOH     H1 6277   1.992   3.762   2.174
 2024HOH     H2 6278   1.961   3.753   2.322
 2025HOH      O 6279   2.846   2.557   1.349
 2025HOH     H1 6280   2.766   2.610   1.355
 2025HOH     H2 6281   2.828   2.494   1.280
 2026HOH      O 6282   1.811   3.138   2.272
 2026HOH     H1 6283   1.879   3.204   2.264
 2026HOH     H2 6284   1.749   3.158   2.201
 2027HOH      O 6285   3.057   1.659   3.225
 2027HOH     H1 6286   3.118   1.606   3.277
 2027HOH     H2 6287   3.099   1.744   3.218
 2028HOH      O 6288   3.037   1.480   1.622
 2028HOH     H1 6289   3.022   1.396   1.665
 2028HOH     H2 6290   3.122   1.471   1.579
 2029HOH      O 6291   3.473   1.019   3.165
 2029HOH     H1 6292   3.494   1.106   3.199
 2029HOH     H2 6293   3.522   0.959   3.223
 2030HOH      O 6294   0.155   3.680   4.017
 2030HOH     H1 6295   0.146   3.714   3.928
 2030HOH     H2 6296   0.196   3.594   4.007
 2031HOH      O 6297   2.224   1.035   2.359
 2031HOH     H1 6298   2.164   1.021   2.433
 2031HOH     H2 6299   2.290   0.967   2.368
 2032HOH      O 6300   3.161   0.359   0.674
 2032HOH     H1 6301   3.148   0.277   0.626
 2032HOH     H2 6302   3.235   0.401   0.630
 2033HOH      O 6303   0.578   0.078   2.872
 2033HOH     H1 6304   0.488   0.062   2.901
 2033HOH     H2 6305   0.585   0.173   2.867
 2034HOH      O 6306   2.134   3.766   3.336
 2034HOH     H1 6307   2.064   3.727   3.388
 2034HOH     H2 6308   2.169   3.836   3.390
 2035HOH      O 6309  -0.014   0.122   1.175
 2035HOH     H1 6310  -0.012   0.216   1.192
 2035HOH     H2 6311   0.076   0.099   1.152
 2036HOH      O 6312   1.407   2.919   3.521
 2036HOH     H1 6313   1.340   2.890   3.583
 2036HOH     H2 6314   1.386   3.011   3.505
 2037HOH      O 6315   3.574   1.962   2.952
 2037HOH     H1 6316   3.565   1.985   2.860
 2037HOH     H2 6317   3.577   2.047   2.997
 2038HOH      O 6318   2.713   0.703   1.415
 2038HOH     H1 6319   2.772   0.698   1.489
 2038HOH     H2 6320   2.748   0.641   1.351
 2039HOH      O 6321   3.155   3.751   0.750
 2039HOH     H1 6322   3.152   3.702   0.832
 2039HOH     H2 6323   3.123   3.838   0.773
 2040HOH      O 6324   1.330   1.372   3.347
 2040HOH     H1 6325   1.397   1.321   3.301
 2040HOH     H2 6326   1.296   1.312   3.413
 2041HOH      O 6327   0.987   3.467   1.920
 2041HOH     H1 6328   1.000   3.432   1.831
 2041HOH     H2 6329   1.018   3.397   1.978
 2042HOH      O 6330   2.578   3.136   0.709
 2042HOH     H1 6331   2.669   3.125   0.681
 2042HOH     H2 6332   2.568   3.076   0.783
 2043HOH      O 6333   3.059   0.049   2.422
 2043HOH     H1 6334   2.967   0.049   2.448
 2043HOH     H2 6335   3.102   0.108   2.485
 2044HOH      O 6336   3.379   1.801   2.521
 2044HOH     H1 6337   3.436   1.726   2.536
 2044HOH     H2 6338   3.388   1.819   2.427
 2045HOH      O 6339   3.509   2.059   1.863
 2045HOH     H1 6340   3.500   2.041   1.957
 2045HOH     H2 6341   3.586   2.115   1.857
 2046HOH      O 6342   0.583   3.636   2.534
 2046HOH     H1 6343   0.671   3.645   2.498
 2046HOH     H2 6344   0.550   3.725   2.539
 2047HOH      O 6345   0.895   3.140   0.638
 2047HOH     H1 6346   0.880   3.116   0.730
 2047HOH     H2 6347   0.834   3.085   0.589
 2048HOH      O 6348   0.849   1.168   3.870
 2048HOH     H1 6349   0.772   1.129   3.829
 2048HOH     H2 6350   0.907   1.094   3.887
 2049HOH      O 6351   1.266   3.508   1.022
 2049HOH     H1 6352   1.217   3.584   1.055
 2049HOH     H2 6353   1.199   3.448   0.990
 2050HOH      O 6354   1.807   0.853   1.731
 2050HOH     H1 6355   1.834   0.761   1.728
 2050HOH     H2 6356   1.831   0.888   1.645
 2051HOH      O 6357   3.585   0.872   1.357
 2051HOH     H1 6358   3.540   0.825   1.428
 2051HOH     H2 6359   3.549   0.835   1.277
 2052HOH      O 6360   2.055   0.015   3.935
 2052HOH     H1 6361   2.058   0.073   3.859
 2052HOH     H2 6362   1.977   0.044   3.984
 2053HOH      O 6363   0.130   0.159   3.566
 2053HOH     H1 6364   0.104   0.167   3.474
 2053HOH     H2 6365   0.225   0.150   3.563
 2054HOH      O 6366   3.597   0.041   1.435
 2054HOH     H1 6367   3.675   0.095   1.419
 2054HOH     H2 6368   3.631  -0.045   1.459
 2055HOH      O 6369   1.445   0.405   4.054
 2055HOH     H1 6370   1.489   0.357   3.984
 2055HOH     H2 6371   1.406   0.480   4.010
 2056HOH      O 6372   2.657   0.009   2.212
 2056HOH     H1 6373   2.683   0.017   2.120
 2056HOH     H2 6374   2.702   0.081   2.256
 2057HOH      O 6375   1.123   3.749   1.072
 2057HOH     H1 6376   1.034   3.716   1.061
 2057HOH     H2 6377   1.117   3.807   1.148
 2058HOH      O 6378   0.849   3.697   2.489
 2058HOH     H1 6379   0.874   3.757   2.559
 2058HOH     H2 6380   0.883   3.612   2.517
 2059HOH      O 6381   1.048   3.307   2.497
 2059HOH     H1 6382   1.013   3.371   2.558
 2059HOH     H2 6383   0.974   3.283   2.441
 2060HOH      O 6384   1.947   2.352   2.770
 2060HOH     H1 6385   1.882   2.416   2.797
 2060HOH     H2 6386   1.984   2.387   2.689
 2061HOH      O 6387   2.526   0.352   3.724
 2061HOH     H1 6388   2.478   0.271   3.708
 2061HOH     H2 6389   2.586   0.330   3.795
 2062HOH      O 6390   1.192   3.730   2.449
 2062HOH     H1 6391   1.182   3.668   2.522
 2062HOH     H2 6392   1.268   3.783   2.473
 2063HOH      O 6393   3.192   2.654   3.517
 2063HOH     H1 6394   3.194   2.637   3.423
 2063HOH     H2 6395   3.242   2.735   3.528
 2064HOH      O 6396   2.741   0.462   3.574
 2064HOH     H1 6397   2.674   0.398   3.597
 2064HOH     H2 6398   2.709   0.503   3.494
 2065HOH      O 6399   1.966   0.690   2.647
 2065HOH     H1 6400   1.977   0.618   2.709
 2065HOH     H2 6401   1.872   0.705   2.644
 2066HOH      O 6402   0.151   4.009   0.293
 2066HOH     H1 6403   0.158   4.103   0.274
 2066HOH     H2 6404   0.215   3.994   0.363
 2067HOH      O 6405   3.909   1.937   2.536
 2067HOH     H1 6406   3.944   1.971   2.618
 2067HOH     H2 6407   3.958   1.856   2.521
 2068HOH      O 6408   3.944   3.788   1.057
 2068HOH     H1 6409   3.952   3.771   0.963
 2068HOH     H2 6410   3.905   3.875   1.062
 2069HOH      O 6411   1.460   3.738   1.770
 2069HOH     H1 6412   1.510   3.666   1.731
 2069HOH     H2 6413   1.441   3.709   1.859
 2070HOH      O 6414   1.640   0.625   0.057
 2070HOH     H1 6415   1.603   0.569   0.125
 2070HOH     H2 6416   1.583   0.703   0.056
 2071HOH      O 6417   0.738   1.307   1.436
 2071HOH     H1 6418   0.830   1.330   1.426
 2071HOH     H2 6419   0.698   1.384   1.477
 2072HOH      O 6420   1.190   0.922   1.224
 2072HOH     H1 6421   1.250   0.930   1.299
 2072HOH     H2 6422   1.114   0.877   1.259
 2073HOH      O 6423   3.314   2.364   2.919
 2073HOH     H1 6424   3.240   2.423   2.906
 2073HOH     H2 6425   3.391   2.416   2.895
 2074HOH      O 6426   0.472   0.419   2.966
 2074HOH     H1 6427   0.381   0.428   2.939
 2074HOH     H2 6428   0.492   0.500   3.012
 2075HOH      O 6429   1.296   0.115   3.945
 2075HOH     H1 6430   1.283   0.062   4.024
 2075HOH     H2 6431   1.338   0.195   3.976
 2076HOH      O 6432   3.131   0.101   0.488
 2076HOH     H1 6433   3.157   0.050   0.565
 2076HOH     H2 6434   3.170   0.055   0.414
 2077HOH      O 6435   2.350   2.489   3.056
 2077HOH     H1 6436   2.350   2.583   3.038
 2077HOH     H2 6437   2.260   2.461   3.036
 2078HOH      O 6438   1.201   2.624   1.645
 2078HOH     H1 6439   1.169   2.693   1.587
 2078HOH     H2 6440   1.144   2.631   1.722
 2079HOH      O 6441   3.753   2.758   1.117
 2079HOH     H1 6442   3.681   2.720   1.168
 2079HOH     H2 6443   3.830   2.748   1.173
 2080HOH      O 6444   2.719   2.635   0.981
 2080HOH     H1 6445   2.768   2.711   1.013
 2080HOH     H2 6446   2.682   2.663   0.898
 2081HOH      O 6447   2.852   0.861   3.606
 2081HOH     H1 6448   2.877   0.868   3.514
 2081HOH     H2 6449   2.764   0.900   3.610
 2082HOH      O 6450   0.110   3.264   1.833
 2082HOH     H1 6451   0.032   3.312   1.860
 2082HOH     H2 6452   0.086   3.225   1.748
 2083HOH      O 6453   0.343   3.868   3.359
 2083HOH     H1 6454   0.275   3.822   3.408
 2083HOH     H2 6455   0.385   3.800   3.306
 2084HOH      O 6456   0.061   2.428   0.920
 2084HOH     H1 6457   0.097   2.339   0.918
 2084HOH     H2 6458   0.030   2.440   1.010
 2085HOH      O 6459   1.949   1.098   2.931
 2085HOH     H1 6460   1.953   1.016   2.980
 2085HOH     H2 6461   2.027   1.098   2.877
 2086HOH      O 6462   0.088   0.487   0.605
 2086HOH     H1 6463   0.080   0.490   0.700
 2086HOH     H2 6464  -0.002   0.472   0.574
 2087HOH      O 6465   2.210   3.990   2.445
 2087HOH     H1 6466   2.240   4.018   2.532
 2087HOH     H2 6467   2.285   4.005   2.388
 2088HOH      O 6468   0.719   2.951   0.520
 2088HOH     H1 6469   0.639   2.968   0.470
 2088HOH     H2 6470   0.693   2.886   0.585
 2089HOH      O 6471   3.259   0.767   2.125
 2089HOH     H1 6472   3.170   0.733   2.123
 2089HOH     H2 6473   3.256   0.845   2.069
 2090HOH      O 6474   0.447   3.986   1.253
 2090HOH     H1 6475   0.417   3.902   1.287
 2090HOH     H2 6476   0.539   3.991   1.279
 2091HOH      O 6477   1.814   0.586   3.664
 2091HOH     H1 6478   1.879   0.550   3.724
 2091HOH     H2 6479   1.861   0.654   3.615
 2092HOH      O 6480   3.792   2.673   0.866
 2092HOH     H1 6481   3.786   2.720   0.948
 2092HOH     H2 6482   3.886   2.666   0.849
 2093HOH      O 6483   1.470   1.974   2.490
 2093HOH     H1 6484   1.389   2.021   2.471
 2093HOH     H2 6485   1.450   1.923   2.568
 2094HOH      O 6486   2.311   2.778   0.611
 2094HOH     H1 6487   2.327   2.754   0.519
 2094HOH     H2 6488   2.263   2.704   0.647
 2095HOH      O 6489   1.827   2.565   1.252
 2095HOH     H1 6490   1.787   2.520   1.178
 2095HOH     H2 6491   1.838   2.655   1.221
 2096HOH      O 6492   1.329   4.009   2.239
 2096HOH     H1 6493   1.302   4.097   2.266
 2096HOH     H2 6494   1.251   3.955   2.253
 2097HOH      O 6495   3.707   2.419   2.305
 2097HOH     H1 6496   3.735   2.510   2.301
 2097HOH     H2 6497   3.729   2.391   2.394
 2098HOH      O 6498   0.559   1.565   3.244
 2098HOH     H1 6499   0.544   1.476   3.277
 2098HOH     H2 6500   0.495   1.576   3.174
 2099HOH      O 6501   2.569   0.633   1.060
 2099HOH     H1 6502   2.585   0.696   1.130
 2099HOH     H2 6503   2.523   0.561   1.102
 2100HOH      O 6504   1.910   2.054   2.803
 2100HOH     H1 6505   1.930   2.143   2.775
 2100HOH     H2 6506   1.896   2.006   2.721
 2101HOH      O 6507   2.745   3.376   0.793
 2101HOH     H1 6508   2.762   3.464   0.827
 2101HOH     H2 6509   2.773   3.380   0.702
 2102HOH      O 6510   1.404   3.769   3.603
 2102HOH     H1 6511   1.371   3.773   3.513
 2102HOH     H2 6512   1.351   3.700   3.644
 2103HOH      O 6513   1.163   3.065   2.300
 2103HOH     H1 6514   1.246   3.030   2.332
 2103HOH     H2 6515   1.109   2.987   2.286
 2104HOH      O 6516   1.683   0.489   1.928
 2104HOH     H1 6517   1.749   0.526   1.869
 2104HOH     H2 6518   1.645   0.565   1.972
 2105HOH      O 6519   3.218   1.494   0.107
 2105HOH     H1 6520   3.182   1.568   0.156
 2105HOH     H2 6521   3.216   1.421   0.169
 2106HOH      O 6522   1.065   2.275   0.546
 2106HOH     H1 6523   1.109   2.192   0.564
 2106HOH     H2 6524   1.131   2.342   0.566
 2107HOH      O 6525   2.322   2.579   3.610
 2107HOH     H1 6526   2.345   2.662   3.568
 2107HOH     H2 6527   2.396   2.561   3.669
 2108HOH      O 6528   3.655   3.780   0.858
 2108HOH     H1 6529   3.740   3.823   0.847
 2108HOH     H2 6530   3.674   3.686   0.849
 2109HOH      O 6531   3.873   2.598   3.797
 2109HOH     H1 6532   3.882   2.503   3.793
 2109HOH     H2 6533   3.790   2.617   3.753
   4.04076   4.04076   4.04076   0.00000   0.00000   0.00000   0.00000   0.00000   0.00000
