Generated with MDTraj, t= 26075.0
 6533
    1MOL     C1    1   2.394   1.868   0.972
    1MOL     C2    2   2.384   1.986   0.897
    1MOL     C3    3   2.323   1.984   0.767
    1MOL     C4    4   2.298   1.855   0.712
    1MOL     C5    5   2.324   1.731   0.781
    1MOL     C6    6   2.367   1.740   0.918
    1MOL     C7    7   2.247   1.857   0.573
    1MOL     C8    8   2.101   1.896   0.562
    1MOL     N1    9   2.052   1.924   0.426
    1MOL     C9   10   2.074   1.799   0.341
    1MOL    C10   11   2.119   2.039   0.359
    1MOL    C11   12   1.899   1.934   0.425
    1MOL     H1   13   2.178   1.810   0.309
    1MOL     H2   14   2.010   1.793   0.252
    1MOL     H3   15   2.055   1.716   0.409
    1MOL     H4   16   2.222   2.010   0.336
    1MOL     H5   17   2.111   2.123   0.427
    1MOL     H6   18   2.069   2.051   0.263
    1MOL     H7   19   1.863   1.843   0.472
    1MOL     H8   20   1.868   1.937   0.320
    1MOL     H9   21   1.859   2.025   0.471
    1MOL    H10   22   2.422   1.887   1.076
    1MOL    H11   23   2.404   2.081   0.946
    1MOL    H12   24   2.308   2.074   0.709
    1MOL    H13   25   2.301   1.634   0.737
    1MOL    H14   26   2.386   1.647   0.971
    1MOL    H15   27   2.307   1.927   0.515
    1MOL    H16   28   2.265   1.759   0.528
    1MOL    H17   29   2.057   1.808   0.608
    1MOL    H18   30   2.084   1.993   0.608
    2OCB     C1   31   2.531   1.634   2.048
    2OCB     C2   32   2.265   1.695   2.011
    2OCB     C3   33   2.435   1.563   2.110
    2OCB     C4   34   2.490   1.743   1.965
    2OCB     C5   35   2.359   1.775   1.945
    2OCB     C6   36   2.298   1.585   2.088
    2OCB     O1   37   2.130   1.720   1.971
    2OCB     C7   38   2.191   1.499   2.163
    2OCB     C8   39   2.054   1.623   1.886
    2OCB     O2   40   1.984   1.527   1.969
    2OCB     C9   41   2.047   1.404   1.985
    2OCB    C10   42   2.152   1.384   2.070
    2OCB    C11   43   2.217   1.260   2.078
    2OCB    C12   44   2.009   1.295   1.904
    2OCB    C13   45   2.180   1.158   1.999
    2OCB    C14   46   2.074   1.175   1.908
    2OCB     O3   47   2.038   1.075   1.820
    2OCB    C15   48   2.253   1.020   2.002
    2OCB    C16   49   2.360   1.031   1.896
    2OCB    C17   50   2.335   0.996   1.764
    2OCB    C18   51   2.114   1.064   1.695
    2OCB     O4   52   2.206   0.960   1.723
    2OCB     O5   53   2.581   1.812   1.892
    2OCB    C19   54   2.685   1.610   2.057
    2OCB    C20   55   2.722   1.519   1.941
    2OCB     O6   56   2.766   1.705   1.790
    2OCB    C21   57   2.761   1.568   1.816
    2OCB    C22   58   2.443   1.001   1.672
    2OCB    C23   59   2.566   1.051   1.702
    2OCB    C24   60   2.788   1.480   1.717
    2OCB    C25   61   2.773   1.348   1.733
    2OCB     O7   62   2.651   1.081   1.600
    2OCB     O8   63   2.797   1.265   1.626
    2OCB    C26   64   2.674   1.218   1.573
    2OCB    C27   65   2.711   1.377   1.963
    2OCB    C28   66   2.744   1.288   1.857
    2OCB    C29   67   2.488   1.073   1.928
    2OCB    C30   68   2.734   1.132   1.876
    2OCB    C31   69   2.594   1.081   1.836
    2OCB    C32   70   2.634   1.756   1.771
    2OCB    C33   71   2.309   0.969   2.140
    2OCB    C34   72   2.214   0.957   2.254
    2OCB    C35   73   2.275   0.886   2.375
    2OCB     O9   74   2.332   0.951   2.460
    2OCB    C36   75   2.226   1.465   2.313
    2OCB    C37   76   2.250   1.590   2.399
    2OCB    C38   77   2.148   1.700   2.394
    2OCB    O10   78   2.034   1.671   2.429
    2OCB    C39   79   2.727   1.572   2.200
    2OCB    C40   80   2.883   1.563   2.197
    2OCB    C41   81   2.938   1.548   2.341
    2OCB    O11   82   2.945   1.435   2.391
    2OCB    C42   83   2.789   1.087   2.012
    2OCB    C43   84   2.919   1.156   2.051
    2OCB    C44   85   2.998   1.076   2.155
    2OCB    O12   86   2.948   1.063   2.269
    2OCB    C45   87   1.975   1.681   1.768
    2OCB    C46   88   1.848   1.782   1.527
    2OCB    C47   89   1.865   1.614   1.706
    2OCB    C48   90   2.021   1.795   1.705
    2OCB    C49   91   1.956   1.851   1.590
    2OCB    C50   92   1.807   1.659   1.586
    2OCB    C51   93   2.641   1.864   1.663
    2OCB    C52   94   2.629   2.033   1.444
    2OCB    C53   95   2.722   1.845   1.550
    2OCB    C54   96   2.547   1.972   1.656
    2OCB    C55   97   2.536   2.051   1.546
    2OCB    C56   98   2.722   1.933   1.442
    2OCB    C57   99   2.667   1.247   1.423
    2OCB    C58  100   2.658   1.302   1.154
    2OCB    C59  101   2.566   1.194   1.342
    2OCB    C60  102   2.747   1.345   1.367
    2OCB    C61  103   2.750   1.370   1.232
    2OCB    C62  104   2.561   1.220   1.206
    2OCB    C63  105   2.031   1.026   1.569
    2OCB    C64  106   1.871   0.981   1.339
    2OCB    C65  107   2.084   0.961   1.458
    2OCB    C66  108   1.897   1.072   1.561
    2OCB    C67  109   1.816   1.048   1.450
    2OCB    C68  110   2.007   0.946   1.340
    2OCB    O13  111   2.458   2.161   1.550
    2OCB    O14  112   2.829   1.463   1.173
    2OCB    O15  113   2.463   1.156   1.124
    2OCB    O16  114   1.998   1.965   1.530
    2OCB    O17  115   1.717   1.587   1.513
    2OCB    O18  116   2.062   0.889   1.224
    2OCB    O19  117   1.688   1.104   1.450
    2OCB    C69  118   2.883   1.581   1.231
    2OCB    C70  119   3.012   1.800   1.345
    2OCB    C71  120   2.812   1.700   1.249
    2OCB    C72  121   3.014   1.571   1.276
    2OCB    C73  122   3.082   1.680   1.334
    2OCB    C74  123   2.880   1.804   1.310
    2OCB    O20  124   2.812   1.919   1.336
    2OCB    C75  125   2.104   2.044   1.586
    2OCB    C76  126   2.288   2.211   1.706
    2OCB    C77  127   2.071   2.111   1.702
    2OCB    C78  128   2.233   2.056   1.529
    2OCB    C79  129   2.325   2.146   1.589
    2OCB    C80  130   2.164   2.194   1.766
    2OCB    C81  131   2.397   1.037   1.156
    2OCB    C82  132   2.280   0.789   1.208
    2OCB    C83  133   2.472   0.924   1.178
    2OCB    C84  134   2.255   1.029   1.169
    2OCB    C85  135   2.201   0.901   1.198
    2OCB    C86  136   2.417   0.794   1.199
    2OCB    C87  137   2.500   0.669   1.234
    2OCB    O21  138   2.442   0.571   1.268
    2OCB    C88  139   1.411   1.319   1.785
    2OCB    O22  140   1.379   1.418   1.842
    2OCB    C89  141   2.125   2.275   1.883
    2OCB    O23  142   2.016   2.254   1.932
    2OCB    O24  143   2.255   0.762   2.388
    2OCB    O25  144   3.093   1.010   2.114
    2OCB    O26  145   2.952   1.649   2.405
    2OCB    C90  146   3.223   1.658   1.386
    2OCB    O27  147   3.277   1.549   1.384
    2OCB    O28  148   1.385   1.215   1.839
    2OCB    O29  149   2.621   0.670   1.235
    2OCB    O30  150   3.277   1.750   1.445
    2OCB    O31  151   2.204   2.344   1.942
    2OCB    O32  152   2.180   1.817   2.378
    2OCB    C91  153   1.674   1.459   1.541
    2OCB    C92  154   1.563   1.212   1.610
    2OCB    C93  155   1.716   1.346   1.472
    2OCB    C94  156   1.574   1.452   1.640
    2OCB    C95  157   1.517   1.328   1.680
    2OCB    C96  158   1.657   1.224   1.512
    2OCB    C97  159   1.822   1.360   1.360
    2OCB    C98  160   2.270   1.987   1.403
    2OCB    C99  161   2.665   1.706   1.209
    2OCB      C  162   2.164   1.148   1.143
    2OCB     H1  163   2.458   1.471   2.163
    2OCB     H2  164   2.326   1.857   1.881
    2OCB     H3  165   2.100   1.559   2.171
    2OCB     H4  166   2.135   1.570   1.833
    2OCB     H5  167   2.295   1.245   2.153
    2OCB     H6  168   1.926   1.303   1.833
    2OCB     H7  169   2.185   0.941   1.969
    2OCB     H8  170   2.169   1.157   1.676
    2OCB     H9  171   2.734   1.704   2.031
    2OCB    H10  172   2.423   0.985   1.566
    2OCB    H11  173   2.819   1.520   1.621
    2OCB    H12  174   2.599   1.279   1.626
    2OCB    H13  175   2.673   1.334   2.055
    2OCB    H14  176   2.515   1.097   2.031
    2OCB    H15  177   2.800   1.093   1.799
    2OCB    H16  178   2.568   1.676   1.735
    2OCB    H17  179   2.358   0.872   2.131
    2OCB    H18  180   2.393   1.032   2.171
    2OCB    H19  181   2.174   1.054   2.280
    2OCB    H20  182   2.135   0.891   2.218
    2OCB    H21  183   2.309   1.394   2.320
    2OCB    H22  184   2.150   1.401   2.358
    2OCB    H23  185   2.268   1.564   2.503
    2OCB    H24  186   2.351   1.628   2.381
    2OCB    H25  187   2.697   1.647   2.273
    2OCB    H26  188   2.687   1.475   2.230
    2OCB    H27  189   2.934   1.480   2.146
    2OCB    H28  190   2.923   1.652   2.148
    2OCB    H29  191   2.717   1.095   2.094
    2OCB    H30  192   2.804   0.978   2.011
    2OCB    H31  193   2.986   1.182   1.969
    2OCB    H32  194   2.905   1.247   2.110
    2OCB    H33  195   1.796   1.823   1.440
    2OCB    H34  196   1.821   1.528   1.757
    2OCB    H35  197   2.113   1.833   1.747
    2OCB    H36  198   2.644   2.113   1.372
    2OCB    H37  199   2.783   1.756   1.541
    2OCB    H38  200   2.482   1.987   1.741
    2OCB    H39  201   2.645   1.327   1.049
    2OCB    H40  202   2.490   1.127   1.383
    2OCB    H41  203   2.806   1.410   1.431
    2OCB    H42  204   1.814   0.956   1.250
    2OCB    H43  205   2.187   0.930   1.450
    2OCB    H44  206   1.848   1.113   1.648
    2OCB    H45  207   3.062   1.889   1.382
    2OCB    H46  208   3.064   1.475   1.269
    2OCB    H47  209   2.361   2.282   1.745
    2OCB    H48  210   1.971   2.118   1.743
    2OCB    H49  211   2.229   0.693   1.214
    2OCB    H50  212   2.580   0.931   1.170
    2OCB    H51  213   1.501   1.123   1.620
    2OCB    H52  214   1.539   1.543   1.687
    2OCB    H53  215   1.865   1.460   1.365
    2OCB    H54  216   1.901   1.285   1.366
    2OCB    H55  217   1.779   1.346   1.261
    2OCB    H56  218   2.363   1.932   1.422
    2OCB    H57  219   2.198   1.921   1.355
    2OCB    H58  220   2.290   2.073   1.338
    2OCB    H59  221   2.599   1.699   1.295
    2OCB    H60  222   2.645   1.800   1.157
    2OCB    H61  223   2.635   1.628   1.138
    2OCB    H62  224   2.097   1.168   1.226
    2OCB    H63  225   2.225   1.235   1.115
    2OCB    H64  226   2.100   1.131   1.056
    3Na+    Na+  227   1.263   1.857   1.455
    4Na+    Na+  228   1.056   2.226   2.648
    5Na+    Na+  229   2.644   2.082   2.971
    6Na+    Na+  230   2.241   0.791   2.624
    7Na+    Na+  231   3.799   1.739   2.389
    8Na+    Na+  232   3.604   0.746   2.698
    9Na+    Na+  233   1.250   1.316   2.001
   10HOH      O  234   1.646   0.532   2.203
   10HOH     H1  235   1.552   0.548   2.206
   10HOH     H2  236   1.672   0.560   2.115
   11HOH      O  237   0.655   0.546   2.487
   11HOH     H1  238   0.684   0.520   2.575
   11HOH     H2  239   0.695   0.482   2.429
   12HOH      O  240   1.400   0.519   2.476
   12HOH     H1  241   1.487   0.545   2.506
   12HOH     H2  242   1.355   0.490   2.555
   13HOH      O  243   1.071   0.421   2.267
   13HOH     H1  244   1.133   0.347   2.267
   13HOH     H2  245   1.063   0.444   2.360
   14HOH      O  246   1.133   0.123   0.045
   14HOH     H1  247   1.184   0.154  -0.030
   14HOH     H2  248   1.147   0.189   0.113
   15HOH      O  249   1.163   0.620   2.743
   15HOH     H1  250   1.128   0.687   2.801
   15HOH     H2  251   1.257   0.638   2.739
   16HOH      O  252   0.146   2.208   2.971
   16HOH     H1  253   0.172   2.172   3.056
   16HOH     H2  254   0.101   2.290   2.992
   17HOH      O  255   2.231   1.052   3.548
   17HOH     H1  256   2.216   0.977   3.605
   17HOH     H2  257   2.145   1.072   3.511
   18HOH      O  258   0.718   0.968   3.054
   18HOH     H1  259   0.722   1.001   2.964
   18HOH     H2  260   0.676   0.883   3.047
   19HOH      O  261   2.616   0.327   1.583
   19HOH     H1  262   2.667   0.246   1.583
   19HOH     H2  263   2.637   0.368   1.499
   20HOH      O  264   0.610   0.583   1.846
   20HOH     H1  265   0.574   0.494   1.851
   20HOH     H2  266   0.598   0.609   1.755
   21HOH      O  267   1.475   0.505   3.883
   21HOH     H1  268   1.387   0.496   3.846
   21HOH     H2  269   1.503   0.415   3.900
   22HOH      O  270   0.478   1.163   0.049
   22HOH     H1  271   0.484   1.212   0.131
   22HOH     H2  272   0.507   1.075   0.072
   23HOH      O  273   2.934   1.781   0.834
   23HOH     H1  274   2.904   1.692   0.854
   23HOH     H2  275   3.024   1.784   0.866
   24HOH      O  276   0.416   1.446   3.330
   24HOH     H1  277   0.506   1.469   3.307
   24HOH     H2  278   0.363   1.517   3.293
   25HOH      O  279   1.573   3.019   0.588
   25HOH     H1  280   1.538   3.095   0.633
   25HOH     H2  281   1.578   3.045   0.496
   26HOH      O  282   1.016   0.963   1.977
   26HOH     H1  283   1.111   0.977   1.972
   26HOH     H2  284   1.004   0.921   2.063
   27HOH      O  285   3.874   0.730   2.469
   27HOH     H1  286   3.786   0.691   2.465
   27HOH     H2  287   3.862   0.818   2.433
   28HOH      O  288   1.695   0.220   0.550
   28HOH     H1  289   1.683   0.299   0.602
   28HOH     H2  290   1.608   0.201   0.515
   29HOH      O  291   1.795   2.882   3.122
   29HOH     H1  292   1.866   2.877   3.186
   29HOH     H2  293   1.775   2.791   3.102
   30HOH      O  294   2.448   0.900   0.572
   30HOH     H1  295   2.510   0.937   0.510
   30HOH     H2  296   2.394   0.841   0.520
   31HOH      O  297   0.602   1.934   2.132
   31HOH     H1  298   0.618   2.011   2.186
   31HOH     H2  299   0.547   1.966   2.060
   32HOH      O  300   1.100   3.384   1.691
   32HOH     H1  301   1.113   3.392   1.596
   32HOH     H2  302   1.102   3.474   1.723
   33HOH      O  303   1.886   3.788   0.462
   33HOH     H1  304   1.891   3.882   0.477
   33HOH     H2  305   1.904   3.749   0.548
   34HOH      O  306   0.276   1.105   2.053
   34HOH     H1  307   0.319   1.042   2.111
   34HOH     H2  308   0.201   1.138   2.103
   35HOH      O  309   1.410   3.620   2.058
   35HOH     H1  310   1.327   3.616   2.105
   35HOH     H2  311   1.409   3.706   2.015
   36HOH      O  312   1.638   1.703   3.507
   36HOH     H1  313   1.640   1.690   3.412
   36HOH     H2  314   1.688   1.629   3.542
   37HOH      O  315   1.705   1.984   3.490
   37HOH     H1  316   1.794   1.996   3.523
   37HOH     H2  317   1.687   1.891   3.503
   38HOH      O  318   3.052   2.563   3.116
   38HOH     H1  319   3.120   2.630   3.125
   38HOH     H2  320   2.970   2.610   3.126
   39HOH      O  321   3.954   1.458   3.521
   39HOH     H1  322   3.974   1.412   3.603
   39HOH     H2  323   3.920   1.390   3.463
   40HOH      O  324   3.985   1.573   0.523
   40HOH     H1  325   4.032   1.644   0.566
   40HOH     H2  326   3.967   1.606   0.435
   41HOH      O  327   1.992   3.591   2.074
   41HOH     H1  328   2.049   3.569   2.001
   41HOH     H2  329   1.970   3.684   2.061
   42HOH      O  330   3.355   0.214   1.560
   42HOH     H1  331   3.369   0.128   1.521
   42HOH     H2  332   3.399   0.209   1.645
   43HOH      O  333   2.047   0.168   0.733
   43HOH     H1  334   2.119   0.128   0.684
   43HOH     H2  335   2.073   0.261   0.740
   44HOH      O  336   1.037   3.310   3.124
   44HOH     H1  337   0.994   3.363   3.191
   44HOH     H2  338   0.995   3.224   3.131
   45HOH      O  339   1.190   2.472   0.826
   45HOH     H1  340   1.164   2.400   0.769
   45HOH     H2  341   1.208   2.545   0.766
   46HOH      O  342  -0.003   0.611   3.063
   46HOH     H1  343   0.005   0.521   3.034
   46HOH     H2  344   0.087   0.644   3.065
   47HOH      O  345   2.579   1.585   2.662
   47HOH     H1  346   2.526   1.658   2.629
   47HOH     H2  347   2.516   1.514   2.672
   48HOH      O  348   0.385   2.121   3.512
   48HOH     H1  349   0.411   2.150   3.425
   48HOH     H2  350   0.442   2.171   3.572
   49HOH      O  351   1.855   2.981   3.660
   49HOH     H1  352   1.929   2.971   3.720
   49HOH     H2  353   1.829   2.891   3.640
   50HOH      O  354   2.450   1.356   2.774
   50HOH     H1  355   2.388   1.307   2.720
   50HOH     H2  356   2.412   1.353   2.862
   51HOH      O  357   3.268   2.512   2.684
   51HOH     H1  358   3.312   2.443   2.735
   51HOH     H2  359   3.220   2.563   2.749
   52HOH      O  360   2.801   2.518   0.441
   52HOH     H1  361   2.828   2.427   0.448
   52HOH     H2  362   2.877   2.564   0.406
   53HOH      O  363   3.610   1.368   3.647
   53HOH     H1  364   3.560   1.291   3.673
   53HOH     H2  365   3.671   1.383   3.720
   54HOH      O  366   0.101   2.780   3.484
   54HOH     H1  367   0.104   2.806   3.576
   54HOH     H2  368   0.116   2.686   3.485
   55HOH      O  369   0.200   1.415   1.328
   55HOH     H1  370   0.125   1.428   1.270
   55HOH     H2  371   0.276   1.427   1.272
   56HOH      O  372   2.221   0.223   2.688
   56HOH     H1  373   2.245   0.223   2.596
   56HOH     H2  374   2.134   0.182   2.690
   57HOH      O  375   0.748   3.495   2.422
   57HOH     H1  376   0.689   3.431   2.381
   57HOH     H2  377   0.726   3.491   2.515
   58HOH      O  378   2.926   3.952   1.221
   58HOH     H1  379   2.968   3.984   1.301
   58HOH     H2  380   2.892   4.031   1.179
   59HOH      O  381   1.782   3.834   1.260
   59HOH     H1  382   1.790   3.885   1.340
   59HOH     H2  383   1.828   3.752   1.279
   60HOH      O  384   3.785   3.957   3.375
   60HOH     H1  385   3.782   4.053   3.382
   60HOH     H2  386   3.711   3.935   3.319
   61HOH      O  387   0.033   1.876   2.982
   61HOH     H1  388   0.022   1.786   3.011
   61HOH     H2  389  -0.054   1.901   2.949
   62HOH      O  390   3.844   1.953   1.602
   62HOH     H1  391   3.798   1.999   1.532
   62HOH     H2  392   3.802   1.867   1.605
   63HOH      O  393   3.331   1.934   1.971
   63HOH     H1  394   3.324   2.008   2.030
   63HOH     H2  395   3.332   1.973   1.883
   64HOH      O  396   3.406   1.787   0.067
   64HOH     H1  397   3.418   1.713   0.127
   64HOH     H2  398   3.311   1.800   0.064
   65HOH      O  399   0.838   1.358   1.184
   65HOH     H1  400   0.795   1.326   1.263
   65HOH     H2  401   0.906   1.293   1.165
   66HOH      O  402   3.769   0.752   1.336
   66HOH     H1  403   3.821   0.829   1.359
   66HOH     H2  404   3.693   0.787   1.288
   67HOH      O  405   3.887   1.669   0.861
   67HOH     H1  406   3.899   1.574   0.857
   67HOH     H2  407   3.957   1.700   0.919
   68HOH      O  408   3.213   1.567   0.641
   68HOH     H1  409   3.240   1.586   0.731
   68HOH     H2  410   3.166   1.645   0.613
   69HOH      O  411   0.005   2.780   0.771
   69HOH     H1  412   0.095   2.804   0.792
   69HOH     H2  413   0.006   2.684   0.765
   70HOH      O  414   2.763   0.806   3.215
   70HOH     H1  415   2.775   0.888   3.167
   70HOH     H2  416   2.739   0.742   3.148
   71HOH      O  417   2.172   3.888   0.451
   71HOH     H1  418   2.096   3.875   0.395
   71HOH     H2  419   2.237   3.827   0.418
   72HOH      O  420   1.200   3.895   0.062
   72HOH     H1  421   1.215   3.987   0.084
   72HOH     H2  422   1.112   3.893   0.025
   73HOH      O  423   3.145   3.668   0.586
   73HOH     H1  424   3.150   3.682   0.681
   73HOH     H2  425   3.055   3.639   0.571
   74HOH      O  426   0.518   2.897   3.928
   74HOH     H1  427   0.508   2.869   3.837
   74HOH     H2  428   0.608   2.873   3.951
   75HOH      O  429   2.577   3.722   0.653
   75HOH     H1  430   2.601   3.683   0.569
   75HOH     H2  431   2.660   3.736   0.698
   76HOH      O  432   0.940   1.731   0.521
   76HOH     H1  433   0.922   1.787   0.597
   76HOH     H2  434   0.935   1.790   0.446
   77HOH      O  435   2.326   1.502   1.167
   77HOH     H1  436   2.332   1.480   1.074
   77HOH     H2  437   2.382   1.436   1.210
   78HOH      O  438   2.609   0.988   2.446
   78HOH     H1  439   2.513   0.988   2.447
   78HOH     H2  440   2.633   1.078   2.468
   79HOH      O  441   2.442   0.774   3.332
   79HOH     H1  442   2.440   0.739   3.421
   79HOH     H2  443   2.439   0.869   3.343
   80HOH      O  444   1.125   0.821   4.068
   80HOH     H1  445   1.069   0.853   3.998
   80HOH     H2  446   1.207   0.797   4.025
   81HOH      O  447   3.132   0.492   0.421
   81HOH     H1  448   3.221   0.463   0.401
   81HOH     H2  449   3.095   0.421   0.474
   82HOH      O  450   0.709   1.608   3.550
   82HOH     H1  451   0.717   1.518   3.582
   82HOH     H2  452   0.742   1.662   3.622
   83HOH      O  453   2.188   0.667   1.935
   83HOH     H1  454   2.187   0.645   2.028
   83HOH     H2  455   2.101   0.701   1.916
   84HOH      O  456   0.035   2.934   0.030
   84HOH     H1  457  -0.041   2.882   0.005
   84HOH     H2  458   0.024   2.947   0.125
   85HOH      O  459   2.425   1.255   0.544
   85HOH     H1  460   2.365   1.185   0.518
   85HOH     H2  461   2.512   1.221   0.522
   86HOH      O  462   3.633   2.278   3.605
   86HOH     H1  463   3.713   2.227   3.618
   86HOH     H2  464   3.658   2.347   3.544
   87HOH      O  465   0.984   1.380   1.532
   87HOH     H1  466   0.931   1.356   1.608
   87HOH     H2  467   1.074   1.379   1.564
   88HOH      O  468   1.312   2.361   1.577
   88HOH     H1  469   1.219   2.378   1.570
   88HOH     H2  470   1.341   2.343   1.488
   89HOH      O  471   3.967   0.302   2.149
   89HOH     H1  472   3.899   0.317   2.215
   89HOH     H2  473   3.921   0.313   2.066
   90HOH      O  474   4.027   0.666   3.865
   90HOH     H1  475   3.950   0.692   3.815
   90HOH     H2  476   4.062   0.747   3.900
   91HOH      O  477   3.512   0.105   2.387
   91HOH     H1  478   3.453   0.165   2.341
   91HOH     H2  479   3.457   0.031   2.410
   92HOH      O  480   1.959   3.277   2.324
   92HOH     H1  481   2.014   3.298   2.399
   92HOH     H2  482   1.901   3.207   2.355
   93HOH      O  483   0.813   0.768   1.530
   93HOH     H1  484   0.866   0.757   1.609
   93HOH     H2  485   0.725   0.740   1.555
   94HOH      O  486   1.727   3.396   1.833
   94HOH     H1  487   1.768   3.407   1.747
   94HOH     H2  488   1.760   3.469   1.885
   95HOH      O  489   3.926   1.380   2.351
   95HOH     H1  490   3.904   1.337   2.268
   95HOH     H2  491   3.895   1.318   2.418
   96HOH      O  492   1.979   0.208   1.691
   96HOH     H1  493   2.028   0.284   1.719
   96HOH     H2  494   2.044   0.148   1.654
   97HOH      O  495   3.976   3.483   1.894
   97HOH     H1  496   3.952   3.553   1.834
   97HOH     H2  497   4.014   3.528   1.969
   98HOH      O  498   1.355   0.353   2.747
   98HOH     H1  499   1.439   0.311   2.767
   98HOH     H2  500   1.344   0.418   2.816
   99HOH      O  501   1.096   1.948   3.093
   99HOH     H1  502   1.146   1.905   3.024
   99HOH     H2  503   1.031   1.882   3.120
  100HOH      O  504   2.510   0.696   1.619
  100HOH     H1  505   2.424   0.671   1.583
  100HOH     H2  506   2.558   0.731   1.544
  101HOH      O  507   0.618   1.873   2.541
  101HOH     H1  508   0.675   1.867   2.464
  101HOH     H2  509   0.538   1.827   2.515
  102HOH      O  510   0.844   0.677   0.038
  102HOH     H1  511   0.760   0.675  -0.009
  102HOH     H2  512   0.827   0.733   0.114
  103HOH      O  513   1.696   3.411   2.504
  103HOH     H1  514   1.646   3.480   2.549
  103HOH     H2  515   1.715   3.448   2.418
  104HOH      O  516   2.684   3.093   3.760
  104HOH     H1  517   2.779   3.086   3.764
  104HOH     H2  518   2.666   3.187   3.757
  105HOH      O  519   3.225   3.462   1.730
  105HOH     H1  520   3.245   3.530   1.794
  105HOH     H2  521   3.257   3.381   1.770
  106HOH      O  522   0.250   1.150   1.346
  106HOH     H1  523   0.256   1.245   1.331
  106HOH     H2  524   0.181   1.140   1.411
  107HOH      O  525   3.455   0.578   0.130
  107HOH     H1  526   3.466   0.543   0.219
  107HOH     H2  527   3.367   0.551   0.105
  108HOH      O  528   0.538   2.210   2.515
  108HOH     H1  529   0.552   2.139   2.578
  108HOH     H2  530   0.446   2.233   2.524
  109HOH      O  531   0.865   0.188   0.108
  109HOH     H1  532   0.957   0.174   0.085
  109HOH     H2  533   0.819   0.187   0.024
  110HOH      O  534   1.620   0.819   1.685
  110HOH     H1  535   1.656   0.749   1.630
  110HOH     H2  536   1.691   0.884   1.690
  111HOH      O  537   2.738   1.369   2.796
  111HOH     H1  538   2.744   1.368   2.892
  111HOH     H2  539   2.645   1.377   2.778
  112HOH      O  540   2.772   0.575   0.437
  112HOH     H1  541   2.734   0.510   0.495
  112HOH     H2  542   2.760   0.658   0.483
  113HOH      O  543   2.627   2.220   3.922
  113HOH     H1  544   2.566   2.192   3.990
  113HOH     H2  545   2.644   2.312   3.941
  114HOH      O  546   2.509   3.667   1.685
  114HOH     H1  547   2.554   3.635   1.607
  114HOH     H2  548   2.481   3.756   1.661
  115HOH      O  549   2.856   2.743   3.955
  115HOH     H1  550   2.873   2.723   3.863
  115HOH     H2  551   2.868   2.838   3.961
  116HOH      O  552   2.460   2.224   3.700
  116HOH     H1  553   2.519   2.251   3.770
  116HOH     H2  554   2.519   2.196   3.630
  117HOH      O  555   1.827   0.937   2.908
  117HOH     H1  556   1.898   0.998   2.928
  117HOH     H2  557   1.806   0.954   2.816
  118HOH      O  558   3.405   2.963   0.975
  118HOH     H1  559   3.322   2.954   0.927
  118HOH     H2  560   3.379   3.003   1.058
  119HOH      O  561   0.401   2.741   0.082
  119HOH     H1  562   0.432   2.821   0.039
  119HOH     H2  563   0.412   2.673   0.016
  120HOH      O  564   0.382   3.912   0.763
  120HOH     H1  565   0.376   3.918   0.668
  120HOH     H2  566   0.475   3.922   0.782
  121HOH      O  567   3.616   0.107   1.677
  121HOH     H1  568   3.665   0.081   1.755
  121HOH     H2  569   3.627   0.202   1.672
  122HOH      O  570   1.084   0.351   1.514
  122HOH     H1  571   1.101   0.442   1.491
  122HOH     H2  572   1.018   0.356   1.583
  123HOH      O  573   1.380   1.146   0.918
  123HOH     H1  574   1.425   1.162   0.835
  123HOH     H2  575   1.388   1.228   0.967
  124HOH      O  576   1.588   3.061   3.118
  124HOH     H1  577   1.650   2.988   3.106
  124HOH     H2  578   1.513   3.037   3.063
  125HOH      O  579   1.050   1.261   1.872
  125HOH     H1  580   1.002   1.339   1.845
  125HOH     H2  581   0.984   1.204   1.912
  126HOH      O  582   1.180   1.913   3.723
  126HOH     H1  583   1.086   1.896   3.713
  126HOH     H2  584   1.198   1.985   3.663
  127HOH      O  585   3.646   3.014   1.526
  127HOH     H1  586   3.638   2.927   1.566
  127HOH     H2  587   3.664   2.996   1.433
  128HOH      O  588   2.045   2.709   0.293
  128HOH     H1  589   2.086   2.644   0.351
  128HOH     H2  590   2.108   2.720   0.222
  129HOH      O  591   2.015   1.137   2.913
  129HOH     H1  592   2.100   1.094   2.917
  129HOH     H2  593   2.021   1.197   2.838
  130HOH      O  594   3.477   0.435   3.711
  130HOH     H1  595   3.441   0.409   3.796
  130HOH     H2  596   3.422   0.392   3.647
  131HOH      O  597   1.288   1.352   1.465
  131HOH     H1  598   1.257   1.324   1.379
  131HOH     H2  599   1.281   1.274   1.520
  132HOH      O  600   0.815   2.092   2.984
  132HOH     H1  601   0.794   2.100   3.077
  132HOH     H2  602   0.787   2.003   2.961
  133HOH      O  603   1.342   0.742   2.098
  133HOH     H1  604   1.331   0.759   2.005
  133HOH     H2  605   1.331   0.647   2.106
  134HOH      O  606   3.683   3.771   2.897
  134HOH     H1  607   3.658   3.819   2.818
  134HOH     H2  608   3.769   3.734   2.875
  135HOH      O  609   0.946   2.359   0.552
  135HOH     H1  610   1.009   2.431   0.561
  135HOH     H2  611   0.926   2.357   0.458
  136HOH      O  612   2.310   1.189   2.562
  136HOH     H1  613   2.375   1.241   2.515
  136HOH     H2  614   2.327   1.099   2.536
  137HOH      O  615   1.861   0.304   3.938
  137HOH     H1  616   1.916   0.371   3.979
  137HOH     H2  617   1.794   0.284   4.004
  138HOH      O  618   0.726   1.819   2.997
  138HOH     H1  619   0.640   1.784   2.975
  138HOH     H2  620   0.783   1.788   2.927
  139HOH      O  621   2.335   1.449   3.429
  139HOH     H1  622   2.337   1.354   3.418
  139HOH     H2  623   2.279   1.481   3.358
  140HOH      O  624   0.224   3.134   1.308
  140HOH     H1  625   0.219   3.208   1.247
  140HOH     H2  626   0.138   3.132   1.351
  141HOH      O  627   3.486   0.479   0.369
  141HOH     H1  628   3.513   0.509   0.456
  141HOH     H2  629   3.553   0.416   0.344
  142HOH      O  630   3.392   1.066   3.359
  142HOH     H1  631   3.338   1.059   3.437
  142HOH     H2  632   3.463   1.125   3.385
  143HOH      O  633   1.404   2.118   0.966
  143HOH     H1  634   1.390   2.191   1.026
  143HOH     H2  635   1.317   2.080   0.955
  144HOH      O  636   3.075   2.603   0.401
  144HOH     H1  637   3.045   2.628   0.313
  144HOH     H2  638   3.170   2.617   0.398
  145HOH      O  639   0.873   2.890   1.143
  145HOH     H1  640   0.866   2.886   1.048
  145HOH     H2  641   0.959   2.852   1.162
  146HOH      O  642   1.332   1.389   3.641
  146HOH     H1  643   1.350   1.392   3.735
  146HOH     H2  644   1.354   1.477   3.610
  147HOH      O  645   2.400   3.472   0.552
  147HOH     H1  646   2.308   3.448   0.562
  147HOH     H2  647   2.418   3.527   0.628
  148HOH      O  648   3.721   1.154   0.292
  148HOH     H1  649   3.646   1.097   0.274
  148HOH     H2  650   3.738   1.142   0.386
  149HOH      O  651   2.681   2.173   3.545
  149HOH     H1  652   2.732   2.169   3.464
  149HOH     H2  653   2.704   2.258   3.583
  150HOH      O  654   0.748   0.683   2.077
  150HOH     H1  655   0.697   0.636   2.010
  150HOH     H2  656   0.823   0.625   2.094
  151HOH      O  657   2.017   3.931   1.554
  151HOH     H1  658   2.067   3.998   1.508
  151HOH     H2  659   1.929   3.937   1.518
  152HOH      O  660   2.788   1.334   0.114
  152HOH     H1  661   2.855   1.273   0.080
  152HOH     H2  662   2.719   1.332   0.048
  153HOH      O  663   1.478   0.068   2.909
  153HOH     H1  664   1.536   0.042   2.981
  153HOH     H2  665   1.534   0.119   2.851
  154HOH      O  666   1.687   1.614   2.055
  154HOH     H1  667   1.749   1.609   1.981
  154HOH     H2  668   1.740   1.594   2.132
  155HOH      O  669   0.304   0.212   1.620
  155HOH     H1  670   0.275   0.142   1.678
  155HOH     H2  671   0.384   0.245   1.661
  156HOH      O  672   0.668   2.572   3.114
  156HOH     H1  673   0.664   2.667   3.101
  156HOH     H2  674   0.582   2.540   3.087
  157HOH      O  675   2.772   3.260   3.154
  157HOH     H1  676   2.816   3.303   3.081
  157HOH     H2  677   2.843   3.237   3.214
  158HOH      O  678   3.896   3.586   2.313
  158HOH     H1  679   3.839   3.662   2.297
  158HOH     H2  680   3.845   3.530   2.371
  159HOH      O  681   0.857   0.797   1.268
  159HOH     H1  682   0.792   0.736   1.234
  159HOH     H2  683   0.845   0.795   1.363
  160HOH      O  684   0.258   2.584   1.343
  160HOH     H1  685   0.216   2.500   1.322
  160HOH     H2  686   0.226   2.604   1.431
  161HOH      O  687   3.900   3.606   2.842
  161HOH     H1  688   3.929   3.683   2.793
  161HOH     H2  689   3.964   3.538   2.821
  162HOH      O  690   1.877   2.756   1.312
  162HOH     H1  691   1.970   2.775   1.301
  162HOH     H2  692   1.871   2.714   1.398
  163HOH      O  693   3.335   0.396   0.661
  163HOH     H1  694   3.421   0.354   0.653
  163HOH     H2  695   3.273   0.328   0.634
  164HOH      O  696   3.318   3.700   2.398
  164HOH     H1  697   3.328   3.608   2.425
  164HOH     H2  698   3.245   3.732   2.451
  165HOH      O  699   2.993   3.606   3.269
  165HOH     H1  700   3.075   3.557   3.264
  165HOH     H2  701   2.947   3.568   3.344
  166HOH      O  702   3.800   3.517   3.098
  166HOH     H1  703   3.829   3.583   3.162
  166HOH     H2  704   3.839   3.545   3.015
  167HOH      O  705   0.795   2.518   2.830
  167HOH     H1  706   0.818   2.440   2.880
  167HOH     H2  707   0.792   2.488   2.739
  168HOH      O  708   3.911   3.509   0.479
  168HOH     H1  709   3.843   3.556   0.527
  168HOH     H2  710   3.992   3.532   0.524
  169HOH      O  711   1.834   2.684   2.633
  169HOH     H1  712   1.814   2.639   2.715
  169HOH     H2  713   1.786   2.767   2.638
  170HOH      O  714   2.740   4.012   0.336
  170HOH     H1  715   2.729   3.937   0.278
  170HOH     H2  716   2.782   4.078   0.281
  171HOH      O  717   2.120   2.860   1.013
  171HOH     H1  718   2.150   2.858   1.104
  171HOH     H2  719   2.124   2.953   0.989
  172HOH      O  720   0.379   1.172   3.250
  172HOH     H1  721   0.350   1.127   3.330
  172HOH     H2  722   0.373   1.265   3.272
  173HOH      O  723   2.200   0.677   2.819
  173HOH     H1  724   2.233   0.600   2.865
  173HOH     H2  725   2.147   0.723   2.884
  174HOH      O  726   1.612   2.283   0.837
  174HOH     H1  727   1.675   2.317   0.901
  174HOH     H2  728   1.548   2.235   0.890
  175HOH      O  729   3.263   3.122   0.147
  175HOH     H1  730   3.346   3.122   0.195
  175HOH     H2  731   3.228   3.210   0.159
  176HOH      O  732   1.982   1.644   3.721
  176HOH     H1  733   1.903   1.607   3.682
  176HOH     H2  734   1.963   1.646   3.815
  177HOH      O  735   0.024   0.883   4.017
  177HOH     H1  736   0.071   0.964   3.997
  177HOH     H2  737  -0.050   0.910   4.071
  178HOH      O  738   1.757   2.916   2.163
  178HOH     H1  739   1.791   2.880   2.245
  178HOH     H2  740   1.670   2.949   2.187
  179HOH      O  741   0.300   0.056   3.392
  179HOH     H1  742   0.306   0.109   3.472
  179HOH     H2  743   0.267  -0.029   3.422
  180HOH      O  744   2.877   1.073   0.244
  180HOH     H1  745   2.972   1.064   0.248
  180HOH     H2  746   2.861   1.166   0.261
  181HOH      O  747   0.200   3.764   3.967
  181HOH     H1  748   0.157   3.728   3.889
  181HOH     H2  749   0.213   3.857   3.947
  182HOH      O  750   1.048   2.589   1.604
  182HOH     H1  751   1.136   2.625   1.615
  182HOH     H2  752   1.015   2.581   1.694
  183HOH      O  753   1.320   4.025   1.037
  183HOH     H1  754   1.266   3.971   1.094
  183HOH     H2  755   1.408   3.987   1.044
  184HOH      O  756   1.201   3.214   1.108
  184HOH     H1  757   1.270   3.158   1.141
  184HOH     H2  758   1.247   3.289   1.069
  185HOH      O  759   0.390   2.730   3.423
  185HOH     H1  760   0.390   2.822   3.396
  185HOH     H2  761   0.354   2.732   3.512
  186HOH      O  762   1.598   0.059   3.903
  186HOH     H1  763   1.627   0.015   3.823
  186HOH     H2  764   1.586  -0.012   3.966
  187HOH      O  765   1.704   3.977   3.000
  187HOH     H1  766   1.696   3.914   3.072
  187HOH     H2  767   1.733   3.924   2.925
  188HOH      O  768   2.124   2.949   1.765
  188HOH     H1  769   2.199   2.974   1.818
  188HOH     H2  770   2.125   2.854   1.766
  189HOH      O  771   1.404   1.142   3.105
  189HOH     H1  772   1.488   1.181   3.080
  189HOH     H2  773   1.343   1.215   3.109
  190HOH      O  774   0.111   0.367   3.003
  190HOH     H1  775   0.071   0.280   3.012
  190HOH     H2  776   0.202   0.354   3.030
  191HOH      O  777   3.708   2.664   0.319
  191HOH     H1  778   3.666   2.635   0.238
  191HOH     H2  779   3.685   2.598   0.384
  192HOH      O  780   2.620   3.176   2.297
  192HOH     H1  781   2.663   3.258   2.275
  192HOH     H2  782   2.687   3.126   2.343
  193HOH      O  783   0.410   2.631   0.951
  193HOH     H1  784   0.349   2.558   0.955
  193HOH     H2  785   0.496   2.591   0.952
  194HOH      O  786   0.315   0.490   3.957
  194HOH     H1  787   0.321   0.576   3.999
  194HOH     H2  788   0.230   0.489   3.914
  195HOH      O  789   0.878   2.714   2.975
  195HOH     H1  790   0.834   2.630   2.958
  195HOH     H2  791   0.945   2.721   2.907
  196HOH      O  792   2.590   2.926   2.728
  196HOH     H1  793   2.600   2.889   2.640
  196HOH     H2  794   2.496   2.938   2.738
  197HOH      O  795   3.065   1.896   2.069
  197HOH     H1  796   3.141   1.892   2.011
  197HOH     H2  797   3.099   1.875   2.156
  198HOH      O  798   0.608   0.184   1.410
  198HOH     H1  799   0.641   0.272   1.431
  198HOH     H2  800   0.610   0.137   1.494
  199HOH      O  801   1.203   0.961   0.948
  199HOH     H1  802   1.270   1.025   0.926
  199HOH     H2  803   1.164   0.993   1.030
  200HOH      O  804   1.772   2.569   1.477
  200HOH     H1  805   1.805   2.483   1.450
  200HOH     H2  806   1.691   2.580   1.427
  201HOH      O  807   0.721   2.152   1.409
  201HOH     H1  808   0.707   2.200   1.328
  201HOH     H2  809   0.795   2.094   1.391
  202HOH      O  810   1.836   2.450   3.215
  202HOH     H1  811   1.916   2.436   3.265
  202HOH     H2  812   1.864   2.442   3.124
  203HOH      O  813   0.074   2.171   0.506
  203HOH     H1  814   0.018   2.248   0.495
  203HOH     H2  815   0.094   2.169   0.599
  204HOH      O  816   3.656   0.304   0.878
  204HOH     H1  817   3.739   0.259   0.891
  204HOH     H2  818   3.680   0.395   0.864
  205HOH      O  819   1.107   2.807   3.703
  205HOH     H1  820   1.141   2.890   3.670
  205HOH     H2  821   1.056   2.770   3.631
  206HOH      O  822   1.501   1.433   2.715
  206HOH     H1  823   1.476   1.448   2.806
  206HOH     H2  824   1.543   1.347   2.716
  207HOH      O  825   1.871   0.703   2.274
  207HOH     H1  826   1.840   0.792   2.288
  207HOH     H2  827   1.791   0.651   2.262
  208HOH      O  828   1.478   0.905   0.503
  208HOH     H1  829   1.537   0.973   0.535
  208HOH     H2  830   1.516   0.879   0.419
  209HOH      O  831   2.635   3.802   0.123
  209HOH     H1  832   2.554   3.829   0.079
  209HOH     H2  833   2.679   3.745   0.060
  210HOH      O  834   0.675   2.524   0.210
  210HOH     H1  835   0.740   2.563   0.152
  210HOH     H2  836   0.609   2.593   0.223
  211HOH      O  837   0.382   1.810   1.426
  211HOH     H1  838   0.331   1.783   1.502
  211HOH     H2  839   0.346   1.894   1.400
  212HOH      O  840   1.987   1.179   0.727
  212HOH     H1  841   2.074   1.138   0.726
  212HOH     H2  842   1.953   1.163   0.638
  213HOH      O  843   2.265   3.826   2.429
  213HOH     H1  844   2.234   3.753   2.377
  213HOH     H2  845   2.258   3.902   2.371
  214HOH      O  846   3.993   1.268   0.410
  214HOH     H1  847   3.979   1.245   0.502
  214HOH     H2  848   3.998   1.364   0.410
  215HOH      O  849   2.566   0.632   3.128
  215HOH     H1  850   2.531   0.670   3.209
  215HOH     H2  851   2.542   0.694   3.060
  216HOH      O  852   1.233   0.079   3.189
  216HOH     H1  853   1.285  -0.001   3.197
  216HOH     H2  854   1.165   0.057   3.125
  217HOH      O  855   1.132   3.157   3.790
  217HOH     H1  856   1.170   3.112   3.715
  217HOH     H2  857   1.196   3.224   3.813
  218HOH      O  858   2.969   3.740   1.060
  218HOH     H1  859   3.022   3.697   1.128
  218HOH     H2  860   2.929   3.815   1.105
  219HOH      O  861   2.938   2.527   1.840
  219HOH     H1  862   2.874   2.473   1.887
  219HOH     H2  863   2.893   2.610   1.825
  220HOH      O  864   2.188   1.235   3.893
  220HOH     H1  865   2.159   1.260   3.805
  220HOH     H2  866   2.181   1.315   3.945
  221HOH      O  867   1.881   1.236   2.313
  221HOH     H1  868   1.863   1.326   2.343
  221HOH     H2  869   1.964   1.242   2.267
  222HOH      O  870   2.939   0.678   0.846
  222HOH     H1  871   2.911   0.699   0.935
  222HOH     H2  872   3.009   0.613   0.858
  223HOH      O  873   0.971   1.560   1.311
  223HOH     H1  874   0.949   1.490   1.249
  223HOH     H2  875   0.999   1.513   1.390
  224HOH      O  876   3.427   1.358   1.804
  224HOH     H1  877   3.433   1.420   1.731
  224HOH     H2  878   3.333   1.344   1.817
  225HOH      O  879   2.238   2.027   2.531
  225HOH     H1  880   2.277   2.100   2.482
  225HOH     H2  881   2.212   1.964   2.464
  226HOH      O  882   3.780   2.471   3.459
  226HOH     H1  883   3.863   2.427   3.441
  226HOH     H2  884   3.802   2.564   3.461
  227HOH      O  885   3.200   1.582   0.910
  227HOH     H1  886   3.184   1.671   0.942
  227HOH     H2  887   3.244   1.538   0.983
  228HOH      O  888   3.173   2.318   0.242
  228HOH     H1  889   3.186   2.390   0.305
  228HOH     H2  890   3.219   2.244   0.281
  229HOH      O  891   0.665   0.237   3.507
  229HOH     H1  892   0.666   0.330   3.532
  229HOH     H2  893   0.666   0.190   3.590
  230HOH      O  894   0.066   1.679   3.456
  230HOH     H1  895   0.123   1.664   3.532
  230HOH     H2  896   0.002   1.608   3.460
  231HOH      O  897   3.583   2.605   0.066
  231HOH     H1  898   3.538   2.655  -0.002
  231HOH     H2  899   3.549   2.516   0.057
  232HOH      O  900   2.859   1.739   2.781
  232HOH     H1  901   2.915   1.744   2.704
  232HOH     H2  902   2.774   1.710   2.746
  233HOH      O  903   0.773   0.998   1.888
  233HOH     H1  904   0.863   1.006   1.919
  233HOH     H2  905   0.722   1.053   1.947
  234HOH      O  906   1.433   2.251   1.331
  234HOH     H1  907   1.500   2.183   1.342
  234HOH     H2  908   1.469   2.309   1.264
  235HOH      O  909   2.241   0.100   0.544
  235HOH     H1  910   2.226   0.014   0.505
  235HOH     H2  911   2.333   0.098   0.571
  236HOH      O  912   3.744   1.847   0.696
  236HOH     H1  913   3.797   1.816   0.623
  236HOH     H2  914   3.766   1.788   0.768
  237HOH      O  915   3.912   3.191   0.914
  237HOH     H1  916   3.950   3.222   0.831
  237HOH     H2  917   3.951   3.105   0.926
  238HOH      O  918   3.671   1.457   1.502
  238HOH     H1  919   3.576   1.461   1.487
  238HOH     H2  920   3.679   1.447   1.597
  239HOH      O  921   3.074   0.052   0.224
  239HOH     H1  922   3.077  -0.031   0.272
  239HOH     H2  923   3.063   0.119   0.292
  240HOH      O  924   2.518   0.568   0.284
  240HOH     H1  925   2.469   0.502   0.235
  240HOH     H2  926   2.579   0.517   0.338
  241HOH      O  927   3.776   2.249   2.787
  241HOH     H1  928   3.694   2.292   2.762
  241HOH     H2  929   3.753   2.193   2.860
  242HOH      O  930   1.256   0.272   3.377
  242HOH     H1  931   1.189   0.321   3.329
  242HOH     H2  932   1.250   0.183   3.341
  243HOH      O  933   0.462   1.383   0.218
  243HOH     H1  934   0.469   1.411   0.309
  243HOH     H2  935   0.527   1.435   0.171
  244HOH      O  936   3.136   3.724   3.061
  244HOH     H1  937   3.214   3.756   3.106
  244HOH     H2  938   3.089   3.672   3.126
  245HOH      O  939   1.643   1.027   3.651
  245HOH     H1  940   1.671   0.996   3.565
  245HOH     H2  941   1.701   0.982   3.713
  246HOH      O  942   3.560   3.614   2.039
  246HOH     H1  943   3.605   3.529   2.033
  246HOH     H2  944   3.487   3.607   1.978
  247HOH      O  945   2.253   3.830   2.812
  247HOH     H1  946   2.254   3.737   2.835
  247HOH     H2  947   2.340   3.846   2.773
  248HOH      O  948   3.191   3.014   2.544
  248HOH     H1  949   3.098   3.000   2.527
  248HOH     H2  950   3.236   2.945   2.495
  249HOH      O  951   1.123   3.687   0.267
  249HOH     H1  952   1.102   3.779   0.254
  249HOH     H2  953   1.073   3.662   0.345
  250HOH      O  954   0.413   0.704   0.056
  250HOH     H1  955   0.386   0.743   0.140
  250HOH     H2  956   0.389   0.770  -0.009
  251HOH      O  957   3.738   4.000   2.703
  251HOH     H1  958   3.685   3.970   2.628
  251HOH     H2  959   3.779   4.080   2.673
  252HOH      O  960   0.294   0.177   2.176
  252HOH     H1  961   0.220   0.122   2.152
  252HOH     H2  962   0.255   0.253   2.218
  253HOH      O  963   1.088   2.874   3.121
  253HOH     H1  964   1.014   2.841   3.069
  253HOH     H2  965   1.048   2.935   3.183
  254HOH      O  966   1.463   2.313   0.401
  254HOH     H1  967   1.498   2.375   0.338
  254HOH     H2  968   1.537   2.257   0.424
  255HOH      O  969   0.067   2.612   2.077
  255HOH     H1  970  -0.022   2.585   2.052
  255HOH     H2  971   0.125   2.563   2.019
  256HOH      O  972   1.032   3.345   1.403
  256HOH     H1  973   0.964   3.284   1.375
  256HOH     H2  974   1.111   3.292   1.410
  257HOH      O  975   3.820   0.146   3.927
  257HOH     H1  976   3.779   0.213   3.981
  257HOH     H2  977   3.751   0.083   3.909
  258HOH      O  978   3.766   3.380   4.034
  258HOH     H1  979   3.819   3.306   4.003
  258HOH     H2  980   3.819   3.457   4.013
  259HOH      O  981   1.341   1.827   1.089
  259HOH     H1  982   1.408   1.758   1.086
  259HOH     H2  983   1.373   1.889   1.155
  260HOH      O  984   0.039   1.459   3.213
  260HOH     H1  985   0.060   1.388   3.152
  260HOH     H2  986   0.108   1.456   3.279
  261HOH      O  987   1.468   2.850   3.513
  261HOH     H1  988   1.409   2.890   3.449
  261HOH     H2  989   1.547   2.829   3.462
  262HOH      O  990   1.494   1.443   3.266
  262HOH     H1  991   1.589   1.448   3.280
  262HOH     H2  992   1.467   1.367   3.319
  263HOH      O  993   3.943   3.116   0.515
  263HOH     H1  994   3.991   3.183   0.563
  263HOH     H2  995   3.933   3.153   0.427
  264HOH      O  996   0.264   3.697   2.295
  264HOH     H1  997   0.310   3.617   2.269
  264HOH     H2  998   0.322   3.768   2.267
  265HOH      O  999   3.657   2.760   0.717
  265HOH     H1 1000   3.653   2.724   0.628
  265HOH     H2 1001   3.741   2.806   0.720
  266HOH      O 1002   0.454   3.657   3.348
  266HOH     H1 1003   0.453   3.728   3.412
  266HOH     H2 1004   0.411   3.693   3.271
  267HOH      O 1005   3.743   1.015   1.094
  267HOH     H1 1006   3.664   0.973   1.127
  267HOH     H2 1007   3.754   0.979   1.006
  268HOH      O 1008   0.065   0.493   2.754
  268HOH     H1 1009   0.089   0.442   2.831
  268HOH     H2 1010   0.066   0.584   2.784
  269HOH      O 1011   0.207   3.304   0.458
  269HOH     H1 1012   0.175   3.309   0.368
  269HOH     H2 1013   0.255   3.221   0.463
  270HOH      O 1014   0.162   0.953   2.425
  270HOH     H1 1015   0.185   1.015   2.355
  270HOH     H2 1016   0.188   0.997   2.506
  271HOH      O 1017   0.396   0.933   1.440
  271HOH     H1 1018   0.393   0.871   1.368
  271HOH     H2 1019   0.352   1.011   1.407
  272HOH      O 1020   1.460   1.128   2.673
  272HOH     H1 1021   1.495   1.078   2.599
  272HOH     H2 1022   1.365   1.127   2.659
  273HOH      O 1023   1.951   1.830   3.364
  273HOH     H1 1024   1.971   1.787   3.281
  273HOH     H2 1025   1.927   1.919   3.340
  274HOH      O 1026   3.326   3.027   3.510
  274HOH     H1 1027   3.396   3.000   3.450
  274HOH     H2 1028   3.255   2.965   3.495
  275HOH      O 1029   3.469   0.330   1.260
  275HOH     H1 1030   3.564   0.325   1.256
  275HOH     H2 1031   3.451   0.415   1.301
  276HOH      O 1032   3.790   0.887   0.483
  276HOH     H1 1033   3.832   0.825   0.543
  276HOH     H2 1034   3.714   0.840   0.449
  277HOH      O 1035   2.587   3.431   3.307
  277HOH     H1 1036   2.659   3.387   3.261
  277HOH     H2 1037   2.616   3.522   3.314
  278HOH      O 1038   0.804   1.795   2.718
  278HOH     H1 1039   0.768   1.811   2.631
  278HOH     H2 1040   0.807   1.700   2.725
  279HOH      O 1041   1.461   1.794   2.644
  279HOH     H1 1042   1.526   1.830   2.705
  279HOH     H2 1043   1.491   1.705   2.627
  280HOH      O 1044   1.289   2.306   1.908
  280HOH     H1 1045   1.282   2.363   1.985
  280HOH     H2 1046   1.292   2.367   1.834
  281HOH      O 1047   3.113   2.292   0.858
  281HOH     H1 1048   3.125   2.372   0.807
  281HOH     H2 1049   3.030   2.306   0.904
  282HOH      O 1050   3.387   3.173   3.908
  282HOH     H1 1051   3.313   3.117   3.927
  282HOH     H2 1052   3.417   3.204   3.993
  283HOH      O 1053   4.042   3.755   1.038
  283HOH     H1 1054   3.991   3.835   1.024
  283HOH     H2 1055   3.977   3.687   1.054
  284HOH      O 1056   2.207   3.544   3.888
  284HOH     H1 1057   2.252   3.618   3.846
  284HOH     H2 1058   2.163   3.584   3.963
  285HOH      O 1059   1.014   0.289   1.876
  285HOH     H1 1060   1.060   0.223   1.824
  285HOH     H2 1061   1.059   0.371   1.855
  286HOH      O 1062   1.931   3.053   2.822
  286HOH     H1 1063   1.888   3.134   2.795
  286HOH     H2 1064   1.987   3.030   2.747
  287HOH      O 1065   3.013   3.872   2.314
  287HOH     H1 1066   3.005   3.843   2.223
  287HOH     H2 1067   2.929   3.914   2.333
  288HOH      O 1068   1.288   1.078   2.081
  288HOH     H1 1069   1.325   1.026   2.010
  288HOH     H2 1070   1.312   1.031   2.161
  289HOH      O 1071   1.496   0.848   0.844
  289HOH     H1 1072   1.426   0.906   0.873
  289HOH     H2 1073   1.540   0.821   0.925
  290HOH      O 1074   2.493   4.050   2.310
  290HOH     H1 1075   2.493   3.958   2.284
  290HOH     H2 1076   2.401   4.075   2.314
  291HOH      O 1077   3.997   1.239   1.836
  291HOH     H1 1078   4.082   1.273   1.808
  291HOH     H2 1079   4.017   1.153   1.873
  292HOH      O 1080   2.147   3.169   2.149
  292HOH     H1 1081   2.088   3.157   2.075
  292HOH     H2 1082   2.090   3.195   2.222
  293HOH      O 1083   0.624   2.213   1.167
  293HOH     H1 1084   0.578   2.143   1.121
  293HOH     H2 1085   0.556   2.278   1.186
  294HOH      O 1086   2.357   2.236   0.380
  294HOH     H1 1087   2.434   2.280   0.345
  294HOH     H2 1088   2.287   2.258   0.318
  295HOH      O 1089   2.406   0.492   2.577
  295HOH     H1 1090   2.501   0.502   2.588
  295HOH     H2 1091   2.393   0.397   2.573
  296HOH      O 1092   3.095   2.344   2.519
  296HOH     H1 1093   3.135   2.301   2.444
  296HOH     H2 1094   3.166   2.396   2.557
  297HOH      O 1095   1.729   3.931   1.805
  297HOH     H1 1096   1.709   4.012   1.760
  297HOH     H2 1097   1.814   3.904   1.770
  298HOH      O 1098   0.566   3.176   1.105
  298HOH     H1 1099   0.495   3.229   1.141
  298HOH     H2 1100   0.584   3.110   1.173
  299HOH      O 1101   2.659   3.722   0.388
  299HOH     H1 1102   2.730   3.783   0.405
  299HOH     H2 1103   2.657   3.715   0.292
  300HOH      O 1104   0.067   0.912   0.833
  300HOH     H1 1105   0.147   0.929   0.784
  300HOH     H2 1106   0.073   0.967   0.911
  301HOH      O 1107   2.473   0.831   2.677
  301HOH     H1 1108   2.535   0.886   2.724
  301HOH     H2 1109   2.496   0.841   2.585
  302HOH      O 1110   0.056   0.041   0.054
  302HOH     H1 1111   0.120   0.109   0.035
  302HOH     H2 1112   0.068   0.023   0.147
  303HOH      O 1113   1.402   2.670   0.602
  303HOH     H1 1114   1.435   2.699   0.688
  303HOH     H2 1115   1.467   2.702   0.540
  304HOH      O 1116   3.603   2.962   1.241
  304HOH     H1 1117   3.660   2.909   1.185
  304HOH     H2 1118   3.605   3.049   1.200
  305HOH      O 1119   3.358   3.852   3.141
  305HOH     H1 1120   3.360   3.849   3.237
  305HOH     H2 1121   3.450   3.843   3.116
  306HOH      O 1122   0.618   1.481   1.452
  306HOH     H1 1123   0.581   1.465   1.539
  306HOH     H2 1124   0.653   1.396   1.425
  307HOH      O 1125   3.416   2.233   3.410
  307HOH     H1 1126   3.465   2.229   3.491
  307HOH     H2 1127   3.481   2.252   3.343
  308HOH      O 1128   1.441   3.297   4.036
  308HOH     H1 1129   1.397   3.233   4.094
  308HOH     H2 1130   1.503   3.244   3.986
  309HOH      O 1131   2.119   3.115   0.926
  309HOH     H1 1132   2.109   3.202   0.965
  309HOH     H2 1133   2.192   3.125   0.864
  310HOH      O 1134   3.231   2.628   1.172
  310HOH     H1 1135   3.306   2.569   1.175
  310HOH     H2 1136   3.260   2.705   1.222
  311HOH      O 1137   1.208   3.701   2.285
  311HOH     H1 1138   1.215   3.727   2.376
  311HOH     H2 1139   1.121   3.663   2.277
  312HOH      O 1140   1.057   2.645   2.131
  312HOH     H1 1141   1.113   2.568   2.127
  312HOH     H2 1142   0.969   2.611   2.142
  313HOH      O 1143   2.278   0.977   3.852
  313HOH     H1 1144   2.202   0.939   3.808
  313HOH     H2 1145   2.250   1.066   3.874
  314HOH      O 1146   2.974   2.695   1.614
  314HOH     H1 1147   2.958   2.606   1.645
  314HOH     H2 1148   2.961   2.691   1.520
  315HOH      O 1149   0.977   0.274   0.483
  315HOH     H1 1150   1.021   0.265   0.399
  315HOH     H2 1151   0.930   0.357   0.477
  316HOH      O 1152   1.945   0.111   3.674
  316HOH     H1 1153   2.007   0.043   3.701
  316HOH     H2 1154   1.996   0.192   3.677
  317HOH      O 1155   0.055   2.496   0.268
  317HOH     H1 1156   0.094   2.576   0.232
  317HOH     H2 1157  -0.007   2.466   0.201
  318HOH      O 1158   1.689   0.364   0.095
  318HOH     H1 1159   1.688   0.352   0.190
  318HOH     H2 1160   1.602   0.334   0.067
  319HOH      O 1161   1.996   0.566   1.216
  319HOH     H1 1162   2.009   0.496   1.151
  319HOH     H2 1163   1.956   0.637   1.166
  320HOH      O 1164   2.770   0.907   0.068
  320HOH     H1 1165   2.837   0.843   0.044
  320HOH     H2 1166   2.810   0.961   0.136
  321HOH      O 1167   3.342   2.119   1.196
  321HOH     H1 1168   3.314   2.029   1.211
  321HOH     H2 1169   3.428   2.125   1.237
  322HOH      O 1170   0.674   2.384   1.808
  322HOH     H1 1171   0.673   2.386   1.712
  322HOH     H2 1172   0.647   2.472   1.834
  323HOH      O 1173   0.768   1.337   3.696
  323HOH     H1 1174   0.757   1.276   3.623
  323HOH     H2 1175   0.772   1.282   3.774
  324HOH      O 1176   2.116   3.714   0.655
  324HOH     H1 1177   2.087   3.793   0.702
  324HOH     H2 1178   2.167   3.748   0.582
  325HOH      O 1179   1.172   1.274   2.663
  325HOH     H1 1180   1.081   1.244   2.662
  325HOH     H2 1181   1.183   1.312   2.750
  326HOH      O 1182   3.094   0.319   3.874
  326HOH     H1 1183   3.073   0.226   3.880
  326HOH     H2 1184   3.023   0.356   3.822
  327HOH      O 1185   3.032   0.178   1.313
  327HOH     H1 1186   3.121   0.148   1.298
  327HOH     H2 1187   3.023   0.256   1.258
  328HOH      O 1188   3.300   0.684   0.586
  328HOH     H1 1189   3.253   0.711   0.665
  328HOH     H2 1190   3.264   0.599   0.563
  329HOH      O 1191   1.834   3.494   1.620
  329HOH     H1 1192   1.784   3.561   1.574
  329HOH     H2 1193   1.925   3.513   1.599
  330HOH      O 1194   1.354   0.649   1.769
  330HOH     H1 1195   1.350   0.659   1.674
  330HOH     H2 1196   1.446   0.664   1.791
  331HOH      O 1197   0.541   1.471   0.520
  331HOH     H1 1198   0.516   1.563   0.532
  331HOH     H2 1199   0.604   1.454   0.590
  332HOH      O 1200   1.858   0.136   3.164
  332HOH     H1 1201   1.811   0.139   3.247
  332HOH     H2 1202   1.866   0.043   3.143
  333HOH      O 1203   0.434   4.015   2.600
  333HOH     H1 1204   0.513   4.037   2.550
  333HOH     H2 1205   0.362   4.051   2.549
  334HOH      O 1206   3.022   2.080   1.628
  334HOH     H1 1207   2.969   2.084   1.707
  334HOH     H2 1208   3.082   2.007   1.643
  335HOH      O 1209   2.728   1.021   0.618
  335HOH     H1 1210   2.685   1.025   0.703
  335HOH     H2 1211   2.746   0.928   0.604
  336HOH      O 1212   1.220   3.783   2.546
  336HOH     H1 1213   1.141   3.836   2.558
  336HOH     H2 1214   1.288   3.830   2.592
  337HOH      O 1215   0.847   0.362   1.320
  337HOH     H1 1216   0.826   0.339   1.229
  337HOH     H2 1217   0.943   0.368   1.322
  338HOH      O 1218   1.305   1.470   0.507
  338HOH     H1 1219   1.377   1.451   0.448
  338HOH     H2 1220   1.239   1.512   0.452
  339HOH      O 1221   0.474   2.440   1.204
  339HOH     H1 1222   0.426   2.499   1.263
  339HOH     H2 1223   0.565   2.449   1.231
  340HOH      O 1224   1.004   3.598   2.093
  340HOH     H1 1225   0.988   3.692   2.081
  340HOH     H2 1226   1.067   3.576   2.023
  341HOH      O 1227   0.228   2.351   3.650
  341HOH     H1 1228   0.208   2.364   3.743
  341HOH     H2 1229   0.322   2.329   3.649
  342HOH      O 1230   3.305   2.782   2.344
  342HOH     H1 1231   3.351   2.861   2.316
  342HOH     H2 1232   3.359   2.745   2.413
  343HOH      O 1233   3.919   0.247   0.152
  343HOH     H1 1234   3.943   0.210   0.067
  343HOH     H2 1235   3.902   0.170   0.207
  344HOH      O 1236   0.228   2.040   1.361
  344HOH     H1 1237   0.174   2.093   1.420
  344HOH     H2 1238   0.176   2.032   1.282
  345HOH      O 1239   3.713   3.943   3.800
  345HOH     H1 1240   3.772   3.946   3.875
  345HOH     H2 1241   3.763   3.902   3.731
  346HOH      O 1242   3.799   0.685   2.862
  346HOH     H1 1243   3.820   0.600   2.822
  346HOH     H2 1244   3.789   0.666   2.955
  347HOH      O 1245   2.167   2.524   2.288
  347HOH     H1 1246   2.166   2.615   2.259
  347HOH     H2 1247   2.149   2.473   2.209
  348HOH      O 1248   0.150   1.199   2.283
  348HOH     H1 1249   0.197   1.262   2.337
  348HOH     H2 1250   0.070   1.245   2.258
  349HOH      O 1251   1.294   2.975   0.469
  349HOH     H1 1252   1.242   2.952   0.546
  349HOH     H2 1253   1.384   2.981   0.503
  350HOH      O 1254   2.100   2.704   3.148
  350HOH     H1 1255   2.125   2.616   3.176
  350HOH     H2 1256   2.053   2.691   3.066
  351HOH      O 1257   3.051   0.232   2.832
  351HOH     H1 1258   3.133   0.238   2.880
  351HOH     H2 1259   2.989   0.195   2.895
  352HOH      O 1260   3.896   0.703   1.095
  352HOH     H1 1261   3.855   0.766   1.036
  352HOH     H2 1262   3.830   0.688   1.163
  353HOH      O 1263   0.310   0.427   3.513
  353HOH     H1 1264   0.343   0.407   3.600
  353HOH     H2 1265   0.219   0.397   3.514
  354HOH      O 1266   0.819   1.964   0.598
  354HOH     H1 1267   0.887   2.029   0.615
  354HOH     H2 1268   0.769   1.960   0.679
  355HOH      O 1269   1.789   2.655   0.255
  355HOH     H1 1270   1.808   2.561   0.266
  355HOH     H2 1271   1.867   2.699   0.287
  356HOH      O 1272   2.867   3.827   0.700
  356HOH     H1 1273   2.918   3.799   0.624
  356HOH     H2 1274   2.932   3.843   0.769
  357HOH      O 1275   0.888   3.537   0.791
  357HOH     H1 1276   0.896   3.584   0.874
  357HOH     H2 1277   0.804   3.567   0.755
  358HOH      O 1278   1.107   3.837   3.029
  358HOH     H1 1279   1.149   3.769   2.976
  358HOH     H2 1280   1.179   3.877   3.078
  359HOH      O 1281   0.668   0.008   2.374
  359HOH     H1 1282   0.735  -0.059   2.383
  359HOH     H2 1283   0.717   0.091   2.375
  360HOH      O 1284   1.493   3.453   3.806
  360HOH     H1 1285   1.557   3.519   3.779
  360HOH     H2 1286   1.502   3.449   3.902
  361HOH      O 1287   1.942   1.517   2.636
  361HOH     H1 1288   1.981   1.583   2.578
  361HOH     H2 1289   1.847   1.531   2.628
  362HOH      O 1290   3.094   2.919   3.436
  362HOH     H1 1291   3.040   2.841   3.427
  362HOH     H2 1292   3.032   2.990   3.453
  363HOH      O 1293   0.654   0.236   0.520
  363HOH     H1 1294   0.565   0.203   0.533
  363HOH     H2 1295   0.684   0.192   0.440
  364HOH      O 1296   2.075   3.583   3.221
  364HOH     H1 1297   2.085   3.584   3.126
  364HOH     H2 1298   1.994   3.533   3.236
  365HOH      O 1299   2.523   3.187   0.102
  365HOH     H1 1300   2.617   3.202   0.088
  365HOH     H2 1301   2.486   3.275   0.108
  366HOH      O 1302   3.225   0.432   1.463
  366HOH     H1 1303   3.281   0.358   1.485
  366HOH     H2 1304   3.147   0.392   1.424
  367HOH      O 1305   2.754   0.680   1.952
  367HOH     H1 1306   2.765   0.587   1.932
  367HOH     H2 1307   2.660   0.691   1.965
  368HOH      O 1308   2.239   1.068   0.683
  368HOH     H1 1309   2.187   0.994   0.652
  368HOH     H2 1310   2.330   1.038   0.676
  369HOH      O 1311   0.062   3.529   0.238
  369HOH     H1 1312   0.016   3.519   0.321
  369HOH     H2 1313   0.005   3.586   0.186
  370HOH      O 1314   0.794   0.874   2.683
  370HOH     H1 1315   0.846   0.829   2.617
  370HOH     H2 1316   0.825   0.837   2.766
  371HOH      O 1317   3.498   1.886   0.551
  371HOH     H1 1318   3.459   1.951   0.608
  371HOH     H2 1319   3.590   1.883   0.577
  372HOH      O 1320   3.982   0.710   0.287
  372HOH     H1 1321   3.900   0.714   0.237
  372HOH     H2 1322   3.994   0.799   0.319
  373HOH      O 1323   4.054   1.385   1.118
  373HOH     H1 1324   4.041   1.292   1.098
  373HOH     H2 1325   3.965   1.421   1.120
  374HOH      O 1326   3.557   2.878   3.054
  374HOH     H1 1327   3.543   2.892   2.960
  374HOH     H2 1328   3.620   2.807   3.059
  375HOH      O 1329   0.677   0.747   3.362
  375HOH     H1 1330   0.646   0.691   3.291
  375HOH     H2 1331   0.772   0.734   3.364
  376HOH      O 1332   2.368   3.320   2.252
  376HOH     H1 1333   2.282   3.287   2.225
  376HOH     H2 1334   2.424   3.243   2.255
  377HOH      O 1335   1.356   3.864   3.192
  377HOH     H1 1336   1.419   3.837   3.125
  377HOH     H2 1337   1.332   3.782   3.235
  378HOH      O 1338   3.021   2.592   2.106
  378HOH     H1 1339   2.967   2.565   2.032
  378HOH     H2 1340   2.959   2.625   2.171
  379HOH      O 1341   2.979   1.043   2.549
  379HOH     H1 1342   2.955   1.131   2.579
  379HOH     H2 1343   2.956   1.042   2.456
  380HOH      O 1344   3.469   2.113   1.764
  380HOH     H1 1345   3.552   2.145   1.729
  380HOH     H2 1346   3.429   2.190   1.805
  381HOH      O 1347   1.953   0.102   2.649
  381HOH     H1 1348   1.937   0.099   2.555
  381HOH     H2 1349   1.917   0.186   2.676
  382HOH      O 1350   0.252   0.256   0.052
  382HOH     H1 1351   0.339   0.246   0.091
  382HOH     H2 1352   0.253   0.344   0.014
  383HOH      O 1353   1.046   2.256   2.908
  383HOH     H1 1354   1.000   2.178   2.939
  383HOH     H2 1355   1.089   2.291   2.986
  384HOH      O 1356   3.917   1.950   2.407
  384HOH     H1 1357   4.007   1.945   2.439
  384HOH     H2 1358   3.883   2.032   2.443
  385HOH      O 1359   2.166   2.299   1.318
  385HOH     H1 1360   2.233   2.367   1.324
  385HOH     H2 1361   2.179   2.259   1.232
  386HOH      O 1362   2.684   0.403   1.337
  386HOH     H1 1363   2.615   0.467   1.319
  386HOH     H2 1364   2.765   0.449   1.314
  387HOH      O 1365   3.102   2.065   3.793
  387HOH     H1 1366   3.023   2.101   3.835
  387HOH     H2 1367   3.119   1.983   3.839
  388HOH      O 1368   0.781   3.272   1.315
  388HOH     H1 1369   0.770   3.177   1.323
  388HOH     H2 1370   0.731   3.308   1.388
  389HOH      O 1371   0.208   0.054   2.461
  389HOH     H1 1372   0.249   0.106   2.392
  389HOH     H2 1373   0.175  -0.023   2.417
  390HOH      O 1374   0.981   3.681   3.548
  390HOH     H1 1375   0.987   3.714   3.459
  390HOH     H2 1376   0.991   3.758   3.603
  391HOH      O 1377   3.727   1.692   2.168
  391HOH     H1 1378   3.716   1.628   2.098
  391HOH     H2 1379   3.682   1.770   2.136
  392HOH      O 1380   2.232   2.493   1.030
  392HOH     H1 1381   2.294   2.422   1.012
  392HOH     H2 1382   2.277   2.548   1.094
  393HOH      O 1383   3.408   3.997   2.088
  393HOH     H1 1384   3.323   3.975   2.051
  393HOH     H2 1385   3.400   4.090   2.112
  394HOH      O 1386   1.705   0.321   3.701
  394HOH     H1 1387   1.764   0.310   3.776
  394HOH     H2 1388   1.620   0.294   3.733
  395HOH      O 1389   2.215   3.080   0.517
  395HOH     H1 1390   2.165   3.157   0.492
  395HOH     H2 1391   2.301   3.094   0.478
  396HOH      O 1392   1.284   3.500   1.064
  396HOH     H1 1393   1.263   3.527   0.975
  396HOH     H2 1394   1.252   3.571   1.119
  397HOH      O 1395   0.861   3.195   3.672
  397HOH     H1 1396   0.816   3.246   3.739
  397HOH     H2 1397   0.949   3.182   3.707
  398HOH      O 1398   2.513   3.465   0.019
  398HOH     H1 1399   2.432   3.495   0.059
  398HOH     H2 1400   2.568   3.543   0.013
  399HOH      O 1401   1.362   3.097   2.449
  399HOH     H1 1402   1.299   3.161   2.415
  399HOH     H2 1403   1.328   3.073   2.535
  400HOH      O 1404   2.032   0.243   3.001
  400HOH     H1 1405   1.981   0.206   3.073
  400HOH     H2 1406   2.032   0.174   2.934
  401HOH      O 1407   0.879   1.467   3.988
  401HOH     H1 1408   0.969   1.465   3.954
  401HOH     H2 1409   0.824   1.477   3.910
  402HOH      O 1410   0.224   1.776   1.653
  402HOH     H1 1411   0.192   1.866   1.660
  402HOH     H2 1412   0.183   1.730   1.726
  403HOH      O 1413   0.725   1.892   3.971
  403HOH     H1 1414   0.685   1.805   3.966
  403HOH     H2 1415   0.772   1.893   4.054
  404HOH      O 1416   0.373   3.012   0.902
  404HOH     H1 1417   0.393   2.974   0.988
  404HOH     H2 1418   0.448   3.068   0.883
  405HOH      O 1419   2.289   2.640   0.432
  405HOH     H1 1420   2.372   2.594   0.446
  405HOH     H2 1421   2.313   2.733   0.435
  406HOH      O 1422   1.992   2.594   2.945
  406HOH     H1 1423   2.040   2.531   2.891
  406HOH     H2 1424   1.902   2.590   2.912
  407HOH      O 1425   1.688   1.687   0.795
  407HOH     H1 1426   1.779   1.669   0.771
  407HOH     H2 1427   1.640   1.679   0.712
  408HOH      O 1428   3.364   2.421   1.972
  408HOH     H1 1429   3.433   2.481   1.945
  408HOH     H2 1430   3.334   2.455   2.056
  409HOH      O 1431   1.586   3.351   3.192
  409HOH     H1 1432   1.504   3.354   3.242
  409HOH     H2 1433   1.596   3.259   3.168
  410HOH      O 1434   0.485   0.817   1.967
  410HOH     H1 1435   0.483   0.729   1.931
  410HOH     H2 1436   0.572   0.850   1.947
  411HOH      O 1437   3.377   0.255   2.150
  411HOH     H1 1438   3.341   0.308   2.220
  411HOH     H2 1439   3.319   0.270   2.075
  412HOH      O 1440   0.967   0.454   3.619
  412HOH     H1 1441   1.059   0.449   3.592
  412HOH     H2 1442   0.957   0.541   3.657
  413HOH      O 1443   1.039   2.147   0.103
  413HOH     H1 1444   1.074   2.195   0.177
  413HOH     H2 1445   0.976   2.206   0.062
  414HOH      O 1446   1.078   2.702   2.803
  414HOH     H1 1447   1.171   2.709   2.824
  414HOH     H2 1448   1.075   2.647   2.724
  415HOH      O 1449   0.766   0.610   0.842
  415HOH     H1 1450   0.843   0.664   0.823
  415HOH     H2 1451   0.780   0.530   0.792
  416HOH      O 1452   0.049   3.283   1.128
  416HOH     H1 1453  -0.022   3.256   1.070
  416HOH     H2 1454   0.007   3.337   1.194
  417HOH      O 1455   0.381   2.501   3.008
  417HOH     H1 1456   0.383   2.514   2.914
  417HOH     H2 1457   0.288   2.508   3.031
  418HOH      O 1458   0.961   0.226   2.794
  418HOH     H1 1459   1.047   0.184   2.803
  418HOH     H2 1460   0.911   0.165   2.740
  419HOH      O 1461   3.167   2.451   1.751
  419HOH     H1 1462   3.080   2.469   1.786
  419HOH     H2 1463   3.225   2.452   1.827
  420HOH      O 1464   3.063   2.344   4.027
  420HOH     H1 1465   3.100   2.348   4.115
  420HOH     H2 1466   3.136   2.370   3.969
  421HOH      O 1467   1.728   2.050   2.711
  421HOH     H1 1468   1.721   1.970   2.764
  421HOH     H2 1469   1.820   2.053   2.685
  422HOH      O 1470   0.370   1.031   3.016
  422HOH     H1 1471   0.442   1.052   2.956
  422HOH     H2 1472   0.408   1.039   3.103
  423HOH      O 1473   3.300   1.466   3.057
  423HOH     H1 1474   3.233   1.454   3.124
  423HOH     H2 1475   3.258   1.439   2.976
  424HOH      O 1476   3.300   0.942   1.662
  424HOH     H1 1477   3.269   0.998   1.732
  424HOH     H2 1478   3.228   0.881   1.646
  425HOH      O 1479   3.544   3.518   2.669
  425HOH     H1 1480   3.503   3.556   2.592
  425HOH     H2 1481   3.506   3.567   2.743
  426HOH      O 1482   0.917   3.713   1.002
  426HOH     H1 1483   0.976   3.754   1.065
  426HOH     H2 1484   0.898   3.627   1.039
  427HOH      O 1485   0.259   1.795   2.705
  427HOH     H1 1486   0.302   1.872   2.745
  427HOH     H2 1487   0.247   1.734   2.778
  428HOH      O 1488   1.840   0.373   2.717
  428HOH     H1 1489   1.855   0.439   2.784
  428HOH     H2 1490   1.841   0.421   2.635
  429HOH      O 1491   1.168   1.275   2.231
  429HOH     H1 1492   1.235   1.289   2.298
  429HOH     H2 1493   1.093   1.241   2.278
  430HOH      O 1494   2.650   1.509   0.279
  430HOH     H1 1495   2.711   1.456   0.230
  430HOH     H2 1496   2.668   1.489   0.371
  431HOH      O 1497   0.389   3.175   3.003
  431HOH     H1 1498   0.378   3.243   3.069
  431HOH     H2 1499   0.480   3.146   3.014
  432HOH      O 1500   2.980   0.511   2.137
  432HOH     H1 1501   3.002   0.598   2.104
  432HOH     H2 1502   3.037   0.452   2.088
  433HOH      O 1503   0.997   1.920   0.279
  433HOH     H1 1504   0.957   2.007   0.282
  433HOH     H2 1505   1.000   1.898   0.186
  434HOH      O 1506   3.893   2.330   1.081
  434HOH     H1 1507   3.876   2.318   0.987
  434HOH     H2 1508   3.808   2.352   1.118
  435HOH      O 1509   0.737   1.090   2.523
  435HOH     H1 1510   0.758   1.002   2.555
  435HOH     H2 1511   0.658   1.078   2.470
  436HOH      O 1512   1.824   3.785   0.753
  436HOH     H1 1513   1.808   3.878   0.766
  436HOH     H2 1514   1.854   3.753   0.838
  437HOH      O 1515   1.613   1.765   0.030
  437HOH     H1 1516   1.686   1.825   0.043
  437HOH     H2 1517   1.534   1.819   0.041
  438HOH      O 1518   1.453   2.684   0.956
  438HOH     H1 1519   1.513   2.733   0.900
  438HOH     H2 1520   1.489   2.595   0.959
  439HOH      O 1521   0.203   3.767   0.188
  439HOH     H1 1522   0.221   3.677   0.216
  439HOH     H2 1523   0.184   3.759   0.094
  440HOH      O 1524   2.943   1.462   2.658
  440HOH     H1 1525   2.931   1.446   2.564
  440HOH     H2 1526   2.863   1.428   2.698
  441HOH      O 1527   0.450   2.033   1.087
  441HOH     H1 1528   0.422   1.946   1.117
  441HOH     H2 1529   0.374   2.089   1.101
  442HOH      O 1530   1.392   4.005   3.450
  442HOH     H1 1531   1.388   3.936   3.515
  442HOH     H2 1532   1.396   3.959   3.366
  443HOH      O 1533   3.681   0.480   3.016
  443HOH     H1 1534   3.671   0.397   2.969
  443HOH     H2 1535   3.636   0.466   3.100
  444HOH      O 1536   2.633   0.303   0.370
  444HOH     H1 1537   2.715   0.255   0.357
  444HOH     H2 1538   2.609   0.286   0.461
  445HOH      O 1539   0.742   2.240   2.781
  445HOH     H1 1540   0.671   2.181   2.753
  445HOH     H2 1541   0.774   2.202   2.863
  446HOH      O 1542   1.084   0.611   0.244
  446HOH     H1 1543   1.000   0.628   0.287
  446HOH     H2 1544   1.101   0.690   0.193
  447HOH      O 1545   0.147   2.636   2.837
  447HOH     H1 1546   0.120   2.607   2.750
  447HOH     H2 1547   0.153   2.731   2.830
  448HOH      O 1548   3.453   1.161   2.752
  448HOH     H1 1549   3.365   1.173   2.716
  448HOH     H2 1550   3.439   1.147   2.846
  449HOH      O 1551   2.706   0.783   1.452
  449HOH     H1 1552   2.795   0.816   1.439
  449HOH     H2 1553   2.684   0.740   1.369
  450HOH      O 1554   1.244   3.035   0.890
  450HOH     H1 1555   1.339   3.040   0.885
  450HOH     H2 1556   1.218   3.114   0.938
  451HOH      O 1557   3.249   3.410   2.794
  451HOH     H1 1558   3.184   3.397   2.863
  451HOH     H2 1559   3.304   3.481   2.825
  452HOH      O 1560   2.214   2.622   2.580
  452HOH     H1 1561   2.156   2.698   2.576
  452HOH     H2 1562   2.223   2.593   2.490
  453HOH      O 1563   2.310   2.935   2.092
  453HOH     H1 1564   2.302   3.028   2.113
  453HOH     H2 1565   2.220   2.904   2.085
  454HOH      O 1566   2.510   2.832   0.528
  454HOH     H1 1567   2.501   2.927   0.529
  454HOH     H2 1568   2.600   2.816   0.498
  455HOH      O 1569   2.831   0.724   1.097
  455HOH     H1 1570   2.747   0.700   1.137
  455HOH     H2 1571   2.885   0.754   1.170
  456HOH      O 1572   3.072   1.823   3.942
  456HOH     H1 1573   3.092   1.742   3.895
  456HOH     H2 1574   3.051   1.794   4.031
  457HOH      O 1575   0.312   2.397   1.657
  457HOH     H1 1576   0.335   2.344   1.581
  457HOH     H2 1577   0.393   2.443   1.679
  458HOH      O 1578   3.910   0.401   1.889
  458HOH     H1 1579   3.896   0.376   1.797
  458HOH     H2 1580   3.845   0.470   1.905
  459HOH      O 1581   3.212   3.556   3.624
  459HOH     H1 1582   3.146   3.618   3.655
  459HOH     H2 1583   3.273   3.548   3.698
  460HOH      O 1584   1.573   0.482   3.329
  460HOH     H1 1585   1.544   0.494   3.419
  460HOH     H2 1586   1.664   0.454   3.336
  461HOH      O 1587   2.419   0.430   3.679
  461HOH     H1 1588   2.431   0.361   3.613
  461HOH     H2 1589   2.384   0.504   3.630
  462HOH      O 1590   1.140   2.045   0.901
  462HOH     H1 1591   1.089   1.965   0.892
  462HOH     H2 1592   1.090   2.111   0.852
  463HOH      O 1593   2.310   0.341   1.333
  463HOH     H1 1594   2.237   0.396   1.362
  463HOH     H2 1595   2.382   0.403   1.319
  464HOH      O 1596   1.130   1.795   1.272
  464HOH     H1 1597   1.181   1.792   1.191
  464HOH     H2 1598   1.071   1.719   1.265
  465HOH      O 1599   0.357   1.816   0.064
  465HOH     H1 1600   0.413   1.791  -0.010
  465HOH     H2 1601   0.404   1.888   0.106
  466HOH      O 1602   0.680   1.848   0.225
  466HOH     H1 1603   0.740   1.885   0.290
  466HOH     H2 1604   0.648   1.923   0.176
  467HOH      O 1605   3.048   2.672   2.840
  467HOH     H1 1606   3.019   2.617   2.912
  467HOH     H2 1607   2.986   2.653   2.769
  468HOH      O 1608   3.149   4.075   3.176
  468HOH     H1 1609   3.086   4.040   3.114
  468HOH     H2 1610   3.204   3.999   3.199
  469HOH      O 1611   0.642   0.060   1.937
  469HOH     H1 1612   0.735   0.057   1.960
  469HOH     H2 1613   0.631  -0.013   1.876
  470HOH      O 1614   1.982   1.915   2.236
  470HOH     H1 1615   1.902   1.885   2.280
  470HOH     H2 1616   2.053   1.886   2.293
  471HOH      O 1617   2.313   0.735   0.813
  471HOH     H1 1618   2.336   0.782   0.893
  471HOH     H2 1619   2.293   0.804   0.749
  472HOH      O 1620   1.627   4.030   0.914
  472HOH     H1 1621   1.571   4.104   0.891
  472HOH     H2 1622   1.586   3.954   0.872
  473HOH      O 1623   1.376   0.510   2.967
  473HOH     H1 1624   1.386   0.578   3.034
  473HOH     H2 1625   1.436   0.441   2.995
  474HOH      O 1626   1.162   0.419   1.110
  474HOH     H1 1627   1.230   0.430   1.043
  474HOH     H2 1628   1.144   0.507   1.141
  475HOH      O 1629   1.646   3.627   2.868
  475HOH     H1 1630   1.623   3.637   2.775
  475HOH     H2 1631   1.741   3.638   2.870
  476HOH      O 1632   0.463   3.377   3.468
  476HOH     H1 1633   0.549   3.358   3.506
  476HOH     H2 1634   0.472   3.465   3.433
  477HOH      O 1635   1.910   2.286   0.416
  477HOH     H1 1636   1.953   2.352   0.469
  477HOH     H2 1637   1.834   2.260   0.467
  478HOH      O 1638   3.834   0.962   2.934
  478HOH     H1 1639   3.817   0.873   2.903
  478HOH     H2 1640   3.798   1.018   2.865
  479HOH      O 1641   1.685   1.238   2.779
  479HOH     H1 1642   1.615   1.189   2.736
  479HOH     H2 1643   1.766   1.206   2.738
  480HOH      O 1644   3.644   0.206   2.958
  480HOH     H1 1645   3.601   0.138   2.907
  480HOH     H2 1646   3.725   0.166   2.988
  481HOH      O 1647   2.313   3.797   1.850
  481HOH     H1 1648   2.384   3.736   1.829
  481HOH     H2 1649   2.348   3.851   1.920
  482HOH      O 1650   2.873   2.790   3.314
  482HOH     H1 1651   2.868   2.796   3.218
  482HOH     H2 1652   2.831   2.870   3.345
  483HOH      O 1653   3.834   1.236   1.394
  483HOH     H1 1654   3.790   1.292   1.458
  483HOH     H2 1655   3.802   1.267   1.309
  484HOH      O 1656   1.942   3.820   3.214
  484HOH     H1 1657   1.878   3.795   3.281
  484HOH     H2 1658   1.993   3.740   3.199
  485HOH      O 1659   3.988   0.431   1.010
  485HOH     H1 1660   4.015   0.513   1.050
  485HOH     H2 1661   3.912   0.454   0.957
  486HOH      O 1662   2.425   1.558   3.951
  486HOH     H1 1663   2.478   1.633   3.976
  486HOH     H2 1664   2.390   1.580   3.865
  487HOH      O 1665   0.413   3.956   2.250
  487HOH     H1 1666   0.390   4.024   2.187
  487HOH     H2 1667   0.487   3.992   2.298
  488HOH      O 1668   3.940   3.219   2.583
  488HOH     H1 1669   3.893   3.188   2.660
  488HOH     H2 1670   4.023   3.171   2.584
  489HOH      O 1671   2.458   2.307   2.010
  489HOH     H1 1672   2.372   2.327   1.971
  489HOH     H2 1673   2.453   2.213   2.029
  490HOH      O 1674   0.915   1.962   3.746
  490HOH     H1 1675   0.904   2.050   3.710
  490HOH     H2 1676   0.858   1.960   3.822
  491HOH      O 1677   2.842   3.083   1.018
  491HOH     H1 1678   2.920   3.113   1.066
  491HOH     H2 1679   2.783   3.158   1.019
  492HOH      O 1680   2.586   2.738   0.901
  492HOH     H1 1681   2.640   2.806   0.860
  492HOH     H2 1682   2.526   2.711   0.832
  493HOH      O 1683   1.268   1.882   2.882
  493HOH     H1 1684   1.244   1.795   2.850
  493HOH     H2 1685   1.362   1.875   2.901
  494HOH      O 1686   3.649   2.519   3.173
  494HOH     H1 1687   3.575   2.514   3.233
  494HOH     H2 1688   3.707   2.449   3.200
  495HOH      O 1689   2.161   2.531   3.823
  495HOH     H1 1690   2.112   2.581   3.889
  495HOH     H2 1691   2.252   2.555   3.838
  496HOH      O 1692   2.703   2.493   3.224
  496HOH     H1 1693   2.673   2.539   3.145
  496HOH     H2 1694   2.723   2.405   3.194
  497HOH      O 1695   3.032   2.771   1.037
  497HOH     H1 1696   2.955   2.716   1.055
  497HOH     H2 1697   3.106   2.721   1.072
  498HOH      O 1698   0.528   1.553   2.474
  498HOH     H1 1699   0.471   1.623   2.440
  498HOH     H2 1700   0.493   1.536   2.562
  499HOH      O 1701   2.483   3.516   2.989
  499HOH     H1 1702   2.407   3.530   2.933
  499HOH     H2 1703   2.449   3.469   3.065
  500HOH      O 1704   1.096   0.182   2.528
  500HOH     H1 1705   1.126   0.115   2.590
  500HOH     H2 1706   1.091   0.262   2.581
  501HOH      O 1707   3.515   3.466   0.778
  501HOH     H1 1708   3.606   3.439   0.768
  501HOH     H2 1709   3.475   3.397   0.831
  502HOH      O 1710   1.704   3.505   2.228
  502HOH     H1 1711   1.687   3.551   2.146
  502HOH     H2 1712   1.780   3.450   2.209
  503HOH      O 1713   1.084   1.593   0.357
  503HOH     H1 1714   1.014   1.615   0.418
  503HOH     H2 1715   1.049   1.618   0.271
  504HOH      O 1716   3.518   1.153   1.560
  504HOH     H1 1717   3.601   1.141   1.607
  504HOH     H2 1718   3.451   1.132   1.625
  505HOH      O 1719   1.041   0.004   0.853
  505HOH     H1 1720   1.088   0.077   0.813
  505HOH     H2 1721   1.099  -0.027   0.923
  506HOH      O 1722   2.725   3.409   2.552
  506HOH     H1 1723   2.665   3.431   2.622
  506HOH     H2 1724   2.811   3.406   2.594
  507HOH      O 1725   1.866   3.711   0.202
  507HOH     H1 1726   1.852   3.759   0.284
  507HOH     H2 1727   1.816   3.630   0.213
  508HOH      O 1728   2.450   2.320   1.022
  508HOH     H1 1729   2.511   2.335   1.095
  508HOH     H2 1730   2.506   2.297   0.948
  509HOH      O 1731   0.332   0.100   3.676
  509HOH     H1 1732   0.368   0.174   3.727
  509HOH     H2 1733   0.238   0.107   3.688
  510HOH      O 1734   0.535   2.690   2.843
  510HOH     H1 1735   0.523   2.663   2.752
  510HOH     H2 1736   0.630   2.689   2.856
  511HOH      O 1737   2.739   1.352   3.090
  511HOH     H1 1738   2.705   1.417   3.152
  511HOH     H2 1739   2.834   1.356   3.102
  512HOH      O 1740   2.537   3.202   2.577
  512HOH     H1 1741   2.540   3.254   2.497
  512HOH     H2 1742   2.624   3.212   2.615
  513HOH      O 1743   3.863   1.243   2.126
  513HOH     H1 1744   3.859   1.304   2.053
  513HOH     H2 1745   3.838   1.159   2.088
  514HOH      O 1746   0.594   3.220   0.140
  514HOH     H1 1747   0.516   3.193   0.091
  514HOH     H2 1748   0.644   3.273   0.078
  515HOH      O 1749   2.131   1.452   3.234
  515HOH     H1 1750   2.082   1.436   3.314
  515HOH     H2 1751   2.112   1.544   3.213
  516HOH      O 1752   1.969   2.094   3.244
  516HOH     H1 1753   2.014   2.160   3.297
  516HOH     H2 1754   1.978   2.126   3.154
  517HOH      O 1755   0.762   0.378   1.025
  517HOH     H1 1756   0.819   0.422   0.962
  517HOH     H2 1757   0.734   0.298   0.981
  518HOH      O 1758   3.343   2.143   0.368
  518HOH     H1 1759   3.438   2.145   0.354
  518HOH     H2 1760   3.333   2.127   0.462
  519HOH      O 1761   0.332   1.230   0.971
  519HOH     H1 1762   0.379   1.168   1.026
  519HOH     H2 1763   0.240   1.215   0.990
  520HOH      O 1764   3.045   0.278   0.626
  520HOH     H1 1765   3.003   0.194   0.606
  520HOH     H2 1766   3.036   0.287   0.721
  521HOH      O 1767   0.240   2.185   1.784
  521HOH     H1 1768   0.168   2.158   1.727
  521HOH     H2 1769   0.260   2.274   1.757
  522HOH      O 1770   3.794   2.521   2.919
  522HOH     H1 1771   3.847   2.441   2.910
  522HOH     H2 1772   3.774   2.525   3.013
  523HOH      O 1773   1.941   3.733   3.696
  523HOH     H1 1774   2.027   3.716   3.659
  523HOH     H2 1775   1.959   3.753   3.788
  524HOH      O 1776   3.840   2.120   4.022
  524HOH     H1 1777   3.904   2.123   4.093
  524HOH     H2 1778   3.828   2.026   4.004
  525HOH      O 1779   2.907   3.203   1.825
  525HOH     H1 1780   2.834   3.221   1.884
  525HOH     H2 1781   2.978   3.175   1.883
  526HOH      O 1782   0.651   0.892   0.919
  526HOH     H1 1783   0.698   0.808   0.916
  526HOH     H2 1784   0.613   0.895   1.007
  527HOH      O 1785   3.404   3.539   3.829
  527HOH     H1 1786   3.474   3.486   3.791
  527HOH     H2 1787   3.449   3.611   3.873
  528HOH      O 1788   2.751   3.161   2.740
  528HOH     H1 1789   2.815   3.129   2.803
  528HOH     H2 1790   2.690   3.088   2.728
  529HOH      O 1791   1.556   1.664   2.314
  529HOH     H1 1792   1.513   1.747   2.331
  529HOH     H2 1793   1.510   1.629   2.238
  530HOH      O 1794   0.665   3.877   1.783
  530HOH     H1 1795   0.574   3.849   1.784
  530HOH     H2 1796   0.713   3.799   1.754
  531HOH      O 1797   1.912   3.461   1.076
  531HOH     H1 1798   1.994   3.411   1.075
  531HOH     H2 1799   1.865   3.428   1.153
  532HOH      O 1800   0.737   1.153   3.494
  532HOH     H1 1801   0.683   1.084   3.532
  532HOH     H2 1802   0.707   1.160   3.404
  533HOH      O 1803   0.605   3.159   0.548
  533HOH     H1 1804   0.667   3.167   0.475
  533HOH     H2 1805   0.641   3.090   0.603
  534HOH      O 1806   2.300   1.058   0.328
  534HOH     H1 1807   2.348   1.135   0.299
  534HOH     H2 1808   2.305   0.997   0.255
  535HOH      O 1809   0.191   3.935   1.272
  535HOH     H1 1810   0.136   3.994   1.323
  535HOH     H2 1811   0.159   3.944   1.182
  536HOH      O 1812   3.225   1.187   0.336
  536HOH     H1 1813   3.200   1.096   0.352
  536HOH     H2 1814   3.223   1.228   0.422
  537HOH      O 1815   0.591   2.500   1.569
  537HOH     H1 1816   0.610   2.493   1.476
  537HOH     H2 1817   0.605   2.592   1.590
  538HOH      O 1818   3.523   3.154   3.685
  538HOH     H1 1819   3.485   3.175   3.770
  538HOH     H2 1820   3.450   3.115   3.636
  539HOH      O 1821   1.508   3.122   0.919
  539HOH     H1 1822   1.600   3.095   0.918
  539HOH     H2 1823   1.502   3.191   0.854
  540HOH      O 1824   3.648   0.411   3.288
  540HOH     H1 1825   3.565   0.415   3.334
  540HOH     H2 1826   3.714   0.423   3.356
  541HOH      O 1827   0.421   0.491   0.337
  541HOH     H1 1828   0.336   0.525   0.363
  541HOH     H2 1829   0.477   0.568   0.328
  542HOH      O 1830   2.907   2.160   3.920
  542HOH     H1 1831   2.969   2.217   3.967
  542HOH     H2 1832   2.824   2.174   3.965
  543HOH      O 1833   1.689   1.860   1.173
  543HOH     H1 1834   1.683   1.875   1.079
  543HOH     H2 1835   1.765   1.911   1.201
  544HOH      O 1836   3.468   3.375   0.438
  544HOH     H1 1837   3.428   3.312   0.499
  544HOH     H2 1838   3.529   3.424   0.492
  545HOH      O 1839   3.803   0.336   0.577
  545HOH     H1 1840   3.714   0.330   0.544
  545HOH     H2 1841   3.854   0.367   0.502
  546HOH      O 1842   0.582   0.762   2.986
  546HOH     H1 1843   0.631   0.690   3.025
  546HOH     H2 1844   0.541   0.725   2.909
  547HOH      O 1845   3.950   1.721   3.173
  547HOH     H1 1846   3.911   1.725   3.260
  547HOH     H2 1847   4.016   1.651   3.180
  548HOH      O 1848   2.969   0.862   1.326
  548HOH     H1 1849   3.049   0.891   1.281
  548HOH     H2 1850   2.959   0.923   1.398
  549HOH      O 1851   2.755   2.353   1.974
  549HOH     H1 1852   2.743   2.424   2.037
  549HOH     H2 1853   2.678   2.298   1.984
  550HOH      O 1854   0.392   3.056   2.772
  550HOH     H1 1855   0.468   3.114   2.773
  550HOH     H2 1856   0.365   3.049   2.864
  551HOH      O 1857   3.614   1.521   0.808
  551HOH     H1 1858   3.701   1.560   0.811
  551HOH     H2 1859   3.604   1.489   0.718
  552HOH      O 1860   2.567   3.579   1.450
  552HOH     H1 1861   2.567   3.486   1.428
  552HOH     H2 1862   2.632   3.618   1.391
  553HOH      O 1863   3.795   0.327   2.367
  553HOH     H1 1864   3.849   0.399   2.400
  553HOH     H2 1865   3.705   0.359   2.371
  554HOH      O 1866   1.489   2.625   2.411
  554HOH     H1 1867   1.442   2.641   2.330
  554HOH     H2 1868   1.465   2.698   2.468
  555HOH      O 1869   0.101   1.542   2.621
  555HOH     H1 1870   0.057   1.596   2.555
  555HOH     H2 1871   0.064   1.569   2.704
  556HOH      O 1872   0.869   0.736   2.459
  556HOH     H1 1873   0.813   0.667   2.494
  556HOH     H2 1874   0.846   0.742   2.367
  557HOH      O 1875   1.452   3.467   2.986
  557HOH     H1 1876   1.516   3.518   2.937
  557HOH     H2 1877   1.505   3.404   3.036
  558HOH      O 1878   0.047   0.125   3.688
  558HOH     H1 1879  -0.009   0.115   3.611
  558HOH     H2 1880  -0.007   0.170   3.753
  559HOH      O 1881   3.226   1.214   1.138
  559HOH     H1 1882   3.309   1.262   1.134
  559HOH     H2 1883   3.182   1.249   1.216
  560HOH      O 1884   1.043   3.449   0.134
  560HOH     H1 1885   1.083   3.515   0.190
  560HOH     H2 1886   1.031   3.493   0.050
  561HOH      O 1887   2.843   4.063   3.449
  561HOH     H1 1888   2.796   3.998   3.397
  561HOH     H2 1889   2.924   4.020   3.475
  562HOH      O 1890   3.887   1.988   0.956
  562HOH     H1 1891   3.826   1.966   0.886
  562HOH     H2 1892   3.846   1.954   1.036
  563HOH      O 1893   0.406   3.479   0.013
  563HOH     H1 1894   0.352   3.420   0.066
  563HOH     H2 1895   0.408   3.437  -0.073
  564HOH      O 1896   2.537   1.341   2.465
  564HOH     H1 1897   2.596   1.323   2.391
  564HOH     H2 1898   2.585   1.404   2.519
  565HOH      O 1899   2.146   1.716   3.488
  565HOH     H1 1900   2.091   1.674   3.554
  565HOH     H2 1901   2.090   1.782   3.448
  566HOH      O 1902   1.853   2.366   3.966
  566HOH     H1 1903   1.912   2.307   3.918
  566HOH     H2 1904   1.818   2.313   4.037
  567HOH      O 1905   2.952   0.536   1.401
  567HOH     H1 1906   2.903   0.551   1.481
  567HOH     H2 1907   3.009   0.612   1.392
  568HOH      O 1908   2.464   0.699   1.886
  568HOH     H1 1909   2.374   0.732   1.888
  568HOH     H2 1910   2.486   0.693   1.793
  569HOH      O 1911   2.839   0.844   1.739
  569HOH     H1 1912   2.798   0.773   1.788
  569HOH     H2 1913   2.767   0.881   1.687
  570HOH      O 1914   2.555   3.572   1.123
  570HOH     H1 1915   2.581   3.637   1.188
  570HOH     H2 1916   2.621   3.581   1.053
  571HOH      O 1917   1.889   0.008   0.567
  571HOH     H1 1918   1.954   0.059   0.616
  571HOH     H2 1919   1.809   0.060   0.573
  572HOH      O 1920   2.668   3.652   3.130
  572HOH     H1 1921   2.752   3.665   3.086
  572HOH     H2 1922   2.611   3.615   3.064
  573HOH      O 1923   1.143   2.563   0.550
  573HOH     H1 1924   1.228   2.598   0.521
  573HOH     H2 1925   1.086   2.640   0.556
  574HOH      O 1926   3.618   1.207   3.424
  574HOH     H1 1927   3.604   1.268   3.496
  574HOH     H2 1928   3.706   1.227   3.393
  575HOH      O 1929  -0.012   3.160   2.177
  575HOH     H1 1930   0.075   3.199   2.163
  575HOH     H2 1931   0.003   3.066   2.169
  576HOH      O 1932   3.662   3.393   3.755
  576HOH     H1 1933   3.658   3.298   3.751
  576HOH     H2 1934   3.706   3.412   3.838
  577HOH      O 1935   1.951   1.647   1.121
  577HOH     H1 1936   1.982   1.655   1.031
  577HOH     H2 1937   1.925   1.736   1.146
  578HOH      O 1938   3.682   2.983   2.066
  578HOH     H1 1939   3.727   3.029   2.137
  578HOH     H2 1940   3.670   2.894   2.099
  579HOH      O 1941   0.331   3.896   0.448
  579HOH     H1 1942   0.286   3.812   0.453
  579HOH     H2 1943   0.424   3.873   0.440
  580HOH      O 1944   3.146   3.054   3.953
  580HOH     H1 1945   3.055   3.031   3.972
  580HOH     H2 1946   3.192   3.043   4.036
  581HOH      O 1947   0.513   2.283   2.072
  581HOH     H1 1948   0.592   2.302   2.123
  581HOH     H2 1949   0.545   2.271   1.982
  582HOH      O 1950   3.476   2.576   3.373
  582HOH     H1 1951   3.564   2.576   3.413
  582HOH     H2 1952   3.417   2.554   3.445
  583HOH      O 1953   2.007   1.688   3.150
  583HOH     H1 1954   1.913   1.681   3.128
  583HOH     H2 1955   2.043   1.741   3.079
  584HOH      O 1956   1.171   0.362   0.204
  584HOH     H1 1957   1.259   0.360   0.241
  584HOH     H2 1958   1.129   0.437   0.246
  585HOH      O 1959   1.661   0.331   0.932
  585HOH     H1 1960   1.576   0.295   0.905
  585HOH     H2 1961   1.684   0.281   1.011
  586HOH      O 1962   2.366   3.466   2.536
  586HOH     H1 1963   2.377   3.418   2.454
  586HOH     H2 1964   2.427   3.539   2.529
  587HOH      O 1965   2.742   1.939   3.836
  587HOH     H1 1966   2.715   2.025   3.804
  587HOH     H2 1967   2.836   1.949   3.853
  588HOH      O 1968   1.830   3.466   3.271
  588HOH     H1 1969   1.807   3.549   3.314
  588HOH     H2 1970   1.747   3.434   3.235
  589HOH      O 1971   0.882   2.625   3.686
  589HOH     H1 1972   0.923   2.629   3.773
  589HOH     H2 1973   0.864   2.532   3.672
  590HOH      O 1974   2.704   2.393   1.172
  590HOH     H1 1975   2.763   2.326   1.207
  590HOH     H2 1976   2.672   2.439   1.249
  591HOH      O 1977   3.321   1.291   1.397
  591HOH     H1 1978   3.322   1.387   1.399
  591HOH     H2 1979   3.394   1.266   1.454
  592HOH      O 1980   0.237   2.210   1.089
  592HOH     H1 1981   0.168   2.145   1.078
  592HOH     H2 1982   0.198   2.279   1.143
  593HOH      O 1983   1.936   1.440   3.469
  593HOH     H1 1984   1.871   1.413   3.534
  593HOH     H2 1985   1.884   1.459   3.391
  594HOH      O 1986   2.602   0.867   0.319
  594HOH     H1 1987   2.697   0.869   0.329
  594HOH     H2 1988   2.587   0.812   0.242
  595HOH      O 1989   0.039   2.703   2.342
  595HOH     H1 1990  -0.036   2.753   2.372
  595HOH     H2 1991   0.016   2.676   2.253
  596HOH      O 1992   0.573   1.092   0.754
  596HOH     H1 1993   0.633   1.164   0.773
  596HOH     H2 1994   0.601   1.021   0.813
  597HOH      O 1995   1.506   3.001   1.871
  597HOH     H1 1996   1.494   3.045   1.955
  597HOH     H2 1997   1.457   2.919   1.879
  598HOH      O 1998   2.597   3.784   2.151
  598HOH     H1 1999   2.577   3.867   2.107
  598HOH     H2 2000   2.513   3.738   2.153
  599HOH      O 2001   3.568   3.651   3.314
  599HOH     H1 2002   3.503   3.584   3.296
  599HOH     H2 2003   3.630   3.609   3.374
  600HOH      O 2004   1.002   0.467   2.912
  600HOH     H1 2005   1.004   0.374   2.889
  600HOH     H2 2006   1.082   0.503   2.875
  601HOH      O 2007   3.432   0.968   0.961
  601HOH     H1 2008   3.346   1.000   0.932
  601HOH     H2 2009   3.492   0.998   0.894
  602HOH      O 2010   0.196   3.743   2.013
  602HOH     H1 2011   0.179   3.674   2.078
  602HOH     H2 2012   0.133   3.726   1.943
  603HOH      O 2013   3.022   1.669   2.974
  603HOH     H1 2014   3.013   1.574   2.989
  603HOH     H2 2015   2.950   1.690   2.915
  604HOH      O 2016   3.967   0.700   3.307
  604HOH     H1 2017   3.989   0.662   3.221
  604HOH     H2 2018   3.877   0.732   3.296
  605HOH      O 2019   1.619   3.710   3.125
  605HOH     H1 2020   1.628   3.679   3.035
  605HOH     H2 2021   1.565   3.644   3.168
  606HOH      O 2022   2.407   2.642   2.885
  606HOH     H1 2023   2.364   2.726   2.866
  606HOH     H2 2024   2.500   2.664   2.890
  607HOH      O 2025   0.359   3.071   0.462
  607HOH     H1 2026   0.378   2.995   0.407
  607HOH     H2 2027   0.445   3.104   0.488
  608HOH      O 2028   0.920   3.267   1.102
  608HOH     H1 2029   1.007   3.296   1.130
  608HOH     H2 2030   0.870   3.262   1.183
  609HOH      O 2031   1.930   0.078   2.365
  609HOH     H1 2032   1.879   0.158   2.355
  609HOH     H2 2033   1.911   0.027   2.286
  610HOH      O 2034   0.703   1.667   0.854
  610HOH     H1 2035   0.784   1.620   0.834
  610HOH     H2 2036   0.673   1.629   0.936
  611HOH      O 2037   0.298   3.682   3.623
  611HOH     H1 2038   0.227   3.737   3.658
  611HOH     H2 2039   0.254   3.621   3.564
  612HOH      O 2040   0.471   3.749   2.613
  612HOH     H1 2041   0.494   3.735   2.705
  612HOH     H2 2042   0.465   3.844   2.605
  613HOH      O 2043   2.042   0.567   3.994
  613HOH     H1 2044   1.952   0.599   3.994
  613HOH     H2 2045   2.042   0.496   4.058
  614HOH      O 2046   0.429   0.347   3.748
  614HOH     H1 2047   0.504   0.407   3.743
  614HOH     H2 2048   0.379   0.378   3.823
  615HOH      O 2049   0.571   1.113   2.814
  615HOH     H1 2050   0.532   1.164   2.743
  615HOH     H2 2051   0.616   1.041   2.769
  616HOH      O 2052   0.457   1.676   0.728
  616HOH     H1 2053   0.548   1.665   0.755
  616HOH     H2 2054   0.416   1.593   0.749
  617HOH      O 2055   3.833   2.843   2.372
  617HOH     H1 2056   3.811   2.822   2.463
  617HOH     H2 2057   3.809   2.935   2.363
  618HOH      O 2058   0.236   0.605   1.779
  618HOH     H1 2059   0.319   0.575   1.741
  618HOH     H2 2060   0.212   0.537   1.842
  619HOH      O 2061   1.462   2.516   3.367
  619HOH     H1 2062   1.424   2.433   3.339
  619HOH     H2 2063   1.405   2.582   3.328
  620HOH      O 2064   3.674   1.439   2.958
  620HOH     H1 2065   3.632   1.384   3.023
  620HOH     H2 2066   3.679   1.525   2.999
  621HOH      O 2067   0.115   2.166   3.898
  621HOH     H1 2068   0.170   2.185   3.974
  621HOH     H2 2069   0.040   2.225   3.908
  622HOH      O 2070   1.693   2.762   0.019
  622HOH     H1 2071   1.644   2.698  -0.033
  622HOH     H2 2072   1.716   2.716   0.099
  623HOH      O 2073   3.306   2.290   1.487
  623HOH     H1 2074   3.320   2.231   1.562
  623HOH     H2 2075   3.211   2.286   1.472
  624HOH      O 2076   0.818   3.743   3.009
  624HOH     H1 2077   0.899   3.791   3.023
  624HOH     H2 2078   0.794   3.710   3.096
  625HOH      O 2079   2.416   0.426   0.065
  625HOH     H1 2080   2.469   0.384  -0.002
  625HOH     H2 2081   2.396   0.513   0.029
  626HOH      O 2082   1.749   0.112   3.421
  626HOH     H1 2083   1.682   0.053   3.456
  626HOH     H2 2084   1.794   0.146   3.498
  627HOH      O 2085   2.396   1.782   3.290
  627HOH     H1 2086   2.325   1.758   3.349
  627HOH     H2 2087   2.444   1.850   3.336
  628HOH      O 2088   3.080   1.698   2.631
  628HOH     H1 2089   3.029   1.693   2.550
  628HOH     H2 2090   3.079   1.609   2.666
  629HOH      O 2091   2.704   1.935   0.751
  629HOH     H1 2092   2.641   1.874   0.789
  629HOH     H2 2093   2.789   1.897   0.774
  630HOH      O 2094   0.566   3.748   2.889
  630HOH     H1 2095   0.539   3.840   2.884
  630HOH     H2 2096   0.631   3.746   2.959
  631HOH      O 2097   0.926   2.306   1.983
  631HOH     H1 2098   0.885   2.323   1.898
  631HOH     H2 2099   0.973   2.224   1.971
  632HOH      O 2100   0.374   1.468   2.057
  632HOH     H1 2101   0.428   1.394   2.083
  632HOH     H2 2102   0.432   1.522   2.003
  633HOH      O 2103   2.218   2.998   1.479
  633HOH     H1 2104   2.192   3.004   1.571
  633HOH     H2 2105   2.144   3.033   1.431
  634HOH      O 2106   1.707   0.352   3.013
  634HOH     H1 2107   1.696   0.260   3.036
  634HOH     H2 2108   1.661   0.400   3.081
  635HOH      O 2109   1.279   1.629   3.295
  635HOH     H1 2110   1.348   1.585   3.245
  635HOH     H2 2111   1.323   1.703   3.336
  636HOH      O 2112   1.270   2.840   2.429
  636HOH     H1 2113   1.190   2.879   2.466
  636HOH     H2 2114   1.332   2.913   2.425
  637HOH      O 2115   0.121   0.469   1.981
  637HOH     H1 2116   0.028   0.446   1.992
  637HOH     H2 2117   0.164   0.428   2.056
  638HOH      O 2118   1.719   1.753   3.776
  638HOH     H1 2119   1.654   1.779   3.712
  638HOH     H2 2120   1.674   1.758   3.860
  639HOH      O 2121   0.641   3.384   3.086
  639HOH     H1 2122   0.718   3.387   3.143
  639HOH     H2 2123   0.654   3.305   3.033
  640HOH      O 2124   3.473   2.665   3.692
  640HOH     H1 2125   3.412   2.730   3.726
  640HOH     H2 2126   3.417   2.596   3.656
  641HOH      O 2127   2.447   2.204   3.060
  641HOH     H1 2128   2.424   2.248   3.141
  641HOH     H2 2129   2.432   2.270   2.992
  642HOH      O 2130   2.791   3.103   1.447
  642HOH     H1 2131   2.725   3.046   1.487
  642HOH     H2 2132   2.741   3.176   1.412
  643HOH      O 2133   0.750   2.927   3.060
  643HOH     H1 2134   0.805   2.974   3.122
  643HOH     H2 2135   0.804   2.853   3.030
  644HOH      O 2136   3.387   1.543   2.733
  644HOH     H1 2137   3.333   1.471   2.764
  644HOH     H2 2138   3.399   1.599   2.810
  645HOH      O 2139   1.455   2.809   2.797
  645HOH     H1 2140   1.477   2.799   2.890
  645HOH     H2 2141   1.538   2.833   2.756
  646HOH      O 2142   0.344   1.997   2.920
  646HOH     H1 2143   0.350   1.961   3.008
  646HOH     H2 2144   0.278   2.066   2.926
  647HOH      O 2145   0.220   0.647   0.385
  647HOH     H1 2146   0.264   0.729   0.362
  647HOH     H2 2147   0.143   0.644   0.327
  648HOH      O 2148   2.842   2.442   0.762
  648HOH     H1 2149   2.781   2.369   0.767
  648HOH     H2 2150   2.830   2.489   0.844
  649HOH      O 2151   3.541   3.359   1.296
  649HOH     H1 2152   3.496   3.357   1.380
  649HOH     H2 2153   3.619   3.304   1.308
  650HOH      O 2154   2.796   0.468   3.080
  650HOH     H1 2155   2.815   0.407   3.009
  650HOH     H2 2156   2.700   0.474   3.081
  651HOH      O 2157   1.586   2.633   3.112
  651HOH     H1 2158   1.511   2.573   3.109
  651HOH     H2 2159   1.612   2.634   3.204
  652HOH      O 2160   4.046   3.051   3.184
  652HOH     H1 2161   3.972   3.112   3.188
  652HOH     H2 2162   4.093   3.077   3.105
  653HOH      O 2163   2.881   3.586   3.506
  653HOH     H1 2164   2.941   3.561   3.576
  653HOH     H2 2165   2.808   3.628   3.550
  654HOH      O 2166   0.564   0.878   3.561
  654HOH     H1 2167   0.615   0.826   3.499
  654HOH     H2 2168   0.498   0.921   3.507
  655HOH      O 2169   0.919   3.827   2.621
  655HOH     H1 2170   0.900   3.906   2.672
  655HOH     H2 2171   0.847   3.822   2.558
  656HOH      O 2172   3.913   2.880   3.853
  656HOH     H1 2173   3.828   2.914   3.825
  656HOH     H2 2174   3.902   2.784   3.852
  657HOH      O 2175   3.092   3.884   0.387
  657HOH     H1 2176   3.031   3.813   0.409
  657HOH     H2 2177   3.137   3.903   0.470
  658HOH      O 2178   1.200   3.617   0.797
  658HOH     H1 2179   1.202   3.696   0.743
  658HOH     H2 2180   1.108   3.592   0.800
  659HOH      O 2181   3.754   3.436   2.489
  659HOH     H1 2182   3.804   3.359   2.516
  659HOH     H2 2183   3.696   3.454   2.563
  660HOH      O 2184   3.796   3.278   1.274
  660HOH     H1 2185   3.823   3.219   1.345
  660HOH     H2 2186   3.839   3.361   1.294
  661HOH      O 2187   1.763   2.011   0.008
  661HOH     H1 2188   1.773   2.077   0.076
  661HOH     H2 2189   1.834   2.029  -0.054
  662HOH      O 2190   2.033   2.245   2.978
  662HOH     H1 2191   2.055   2.257   2.885
  662HOH     H2 2192   2.109   2.278   3.026
  663HOH      O 2193   0.909   0.721   3.748
  663HOH     H1 2194   0.994   0.702   3.787
  663HOH     H2 2195   0.867   0.781   3.810
  664HOH      O 2196   3.850   2.937   0.699
  664HOH     H1 2197   3.886   2.994   0.630
  664HOH     H2 2198   3.918   2.871   0.714
  665HOH      O 2199   3.273   0.293   0.273
  665HOH     H1 2200   3.301   0.238   0.200
  665HOH     H2 2201   3.349   0.295   0.332
  666HOH      O 2202   3.505   3.324   2.346
  666HOH     H1 2203   3.580   3.314   2.404
  666HOH     H2 2204   3.538   3.305   2.259
  667HOH      O 2205   0.626   3.991   3.021
  667HOH     H1 2206   0.538   4.004   2.986
  667HOH     H2 2207   0.615   3.997   3.116
  668HOH      O 2208   0.219   1.481   3.904
  668HOH     H1 2209   0.208   1.472   3.999
  668HOH     H2 2210   0.262   1.400   3.877
  669HOH      O 2211   2.458   1.148   3.682
  669HOH     H1 2212   2.414   1.081   3.734
  669HOH     H2 2213   2.390   1.182   3.624
  670HOH      O 2214   3.021   3.618   4.002
  670HOH     H1 2215   3.086   3.548   3.993
  670HOH     H2 2216   3.062   3.681   4.061
  671HOH      O 2217   2.163   2.037   3.563
  671HOH     H1 2218   2.237   2.024   3.623
  671HOH     H2 2219   2.087   2.006   3.611
  672HOH      O 2220   2.772   0.162   0.131
  672HOH     H1 2221   2.827   0.239   0.116
  672HOH     H2 2222   2.819   0.090   0.089
  673HOH      O 2223   2.564   1.064   3.345
  673HOH     H1 2224   2.607   1.034   3.425
  673HOH     H2 2225   2.630   1.051   3.276
  674HOH      O 2226   3.219   3.202   3.347
  674HOH     H1 2227   3.254   3.132   3.401
  674HOH     H2 2228   3.255   3.186   3.260
  675HOH      O 2229   1.828   3.992   0.110
  675HOH     H1 2230   1.896   4.039   0.061
  675HOH     H2 2231   1.866   3.905   0.126
  676HOH      O 2232   1.667   2.088   1.715
  676HOH     H1 2233   1.659   1.998   1.748
  676HOH     H2 2234   1.577   2.121   1.714
  677HOH      O 2235   1.560   3.627   2.605
  677HOH     H1 2236   1.472   3.608   2.637
  677HOH     H2 2237   1.547   3.662   2.517
  678HOH      O 2238   2.862   2.026   0.211
  678HOH     H1 2239   2.836   2.018   0.302
  678HOH     H2 2240   2.829   1.946   0.170
  679HOH      O 2241   1.889   1.167   0.467
  679HOH     H1 2242   1.794   1.159   0.471
  679HOH     H2 2243   1.920   1.082   0.436
  680HOH      O 2244   2.848   3.342   0.266
  680HOH     H1 2245   2.789   3.368   0.337
  680HOH     H2 2246   2.935   3.351   0.303
  681HOH      O 2247   0.528   2.997   2.097
  681HOH     H1 2248   0.623   2.997   2.108
  681HOH     H2 2249   0.510   3.072   2.040
  682HOH      O 2250   0.346   0.915   3.942
  682HOH     H1 2251   0.387   0.938   3.859
  682HOH     H2 2252   0.299   0.995   3.968
  683HOH      O 2253   0.846   1.027   1.043
  683HOH     H1 2254   0.770   1.002   0.990
  683HOH     H2 2255   0.838   0.974   1.122
  684HOH      O 2256   3.531   3.106   0.260
  684HOH     H1 2257   3.549   3.142   0.347
  684HOH     H2 2258   3.559   3.014   0.266
  685HOH      O 2259   0.489   0.267   2.788
  685HOH     H1 2260   0.524   0.353   2.813
  685HOH     H2 2261   0.420   0.286   2.724
  686HOH      O 2262   2.456   2.972   1.877
  686HOH     H1 2263   2.406   2.948   1.955
  686HOH     H2 2264   2.422   3.057   1.852
  687HOH      O 2265   2.581   1.886   2.866
  687HOH     H1 2266   2.497   1.886   2.820
  687HOH     H2 2267   2.589   1.798   2.902
  688HOH      O 2268   2.637   1.882   2.462
  688HOH     H1 2269   2.720   1.853   2.424
  688HOH     H2 2270   2.579   1.894   2.388
  689HOH      O 2271   3.619   2.179   0.436
  689HOH     H1 2272   3.652   2.096   0.402
  689HOH     H2 2273   3.626   2.171   0.531
  690HOH      O 2274   0.620   0.149   0.877
  690HOH     H1 2275   0.597   0.062   0.910
  690HOH     H2 2276   0.626   0.137   0.782
  691HOH      O 2277   1.629   3.569   0.478
  691HOH     H1 2278   1.541   3.548   0.511
  691HOH     H2 2279   1.620   3.655   0.438
  692HOH      O 2280   0.220   1.092   0.301
  692HOH     H1 2281   0.130   1.065   0.317
  692HOH     H2 2282   0.232   1.169   0.356
  693HOH      O 2283   3.853   0.036   3.044
  693HOH     H1 2284   3.946   0.058   3.039
  693HOH     H2 2285   3.845  -0.047   2.996
  694HOH      O 2286   0.980   1.127   2.390
  694HOH     H1 2287   1.021   1.052   2.432
  694HOH     H2 2288   0.896   1.137   2.435
  695HOH      O 2289   0.307   2.729   0.511
  695HOH     H1 2290   0.231   2.672   0.494
  695HOH     H2 2291   0.305   2.744   0.605
  696HOH      O 2292   3.997   3.206   0.178
  696HOH     H1 2293   3.998   3.179   0.086
  696HOH     H2 2294   3.919   3.262   0.185
  697HOH      O 2295   1.535   1.896   2.926
  697HOH     H1 2296   1.615   1.844   2.915
  697HOH     H2 2297   1.551   1.947   3.005
  698HOH      O 2298   2.606   1.344   3.977
  698HOH     H1 2299   2.533   1.400   4.002
  698HOH     H2 2300   2.612   1.354   3.882
  699HOH      O 2301   2.116   0.642   2.205
  699HOH     H1 2302   2.164   0.700   2.264
  699HOH     H2 2303   2.026   0.643   2.239
  700HOH      O 2304   2.405   0.490   2.070
  700HOH     H1 2305   2.319   0.461   2.040
  700HOH     H2 2306   2.435   0.550   2.002
  701HOH      O 2307   1.037   0.459   2.550
  701HOH     H1 2308   1.068   0.529   2.607
  701HOH     H2 2309   0.943   0.453   2.570
  702HOH      O 2310   0.962   3.435   0.534
  702HOH     H1 2311   0.880   3.453   0.487
  702HOH     H2 2312   0.941   3.453   0.626
  703HOH      O 2313   3.782   3.100   2.278
  703HOH     H1 2314   3.862   3.149   2.262
  703HOH     H2 2315   3.749   3.134   2.361
  704HOH      O 2316   0.165   1.271   3.069
  704HOH     H1 2317   0.219   1.207   3.115
  704HOH     H2 2318   0.179   1.253   2.976
  705HOH      O 2319   0.314   0.656   1.330
  705HOH     H1 2320   0.338   0.589   1.266
  705HOH     H2 2321   0.231   0.624   1.367
  706HOH      O 2322   2.870   2.316   1.645
  706HOH     H1 2323   2.938   2.249   1.642
  706HOH     H2 2324   2.856   2.333   1.738
  707HOH      O 2325   0.240   1.788   0.566
  707HOH     H1 2326   0.275   1.723   0.504
  707HOH     H2 2327   0.292   1.776   0.645
  708HOH      O 2328   0.928   2.007   1.309
  708HOH     H1 2329   0.977   1.927   1.290
  708HOH     H2 2330   0.988   2.078   1.285
  709HOH      O 2331   1.412   1.598   0.853
  709HOH     H1 2332   1.499   1.637   0.857
  709HOH     H2 2333   1.361   1.658   0.800
  710HOH      O 2334   2.075   0.972   2.606
  710HOH     H1 2335   2.113   1.021   2.679
  710HOH     H2 2336   1.990   1.014   2.591
  711HOH      O 2337   1.031   2.321   1.501
  711HOH     H1 2338   1.002   2.332   1.410
  711HOH     H2 2339   1.019   2.408   1.540
  712HOH      O 2340   3.612   0.886  -0.009
  712HOH     H1 2341   3.651   0.828   0.057
  712HOH     H2 2342   3.684   0.939  -0.040
  713HOH      O 2343   2.244   2.686   0.070
  713HOH     H1 2344   2.325   2.734   0.050
  713HOH     H2 2345   2.274   2.608   0.118
  714HOH      O 2346   3.750   3.809   1.575
  714HOH     H1 2347   3.754   3.899   1.542
  714HOH     H2 2348   3.707   3.760   1.505
  715HOH      O 2349   3.164   1.366   2.810
  715HOH     H1 2350   3.113   1.295   2.850
  715HOH     H2 2351   3.108   1.398   2.739
  716HOH      O 2352   3.177   0.506   0.855
  716HOH     H1 2353   3.232   0.459   0.792
  716HOH     H2 2354   3.239   0.541   0.920
  717HOH      O 2355   1.889   3.548   0.640
  717HOH     H1 2356   1.916   3.638   0.659
  717HOH     H2 2357   1.818   3.558   0.577
  718HOH      O 2358   2.167   2.084   2.134
  718HOH     H1 2359   2.139   2.130   2.055
  718HOH     H2 2360   2.094   2.025   2.154
  719HOH      O 2361   2.414   2.660   1.938
  719HOH     H1 2362   2.388   2.748   1.965
  719HOH     H2 2363   2.412   2.609   2.020
  720HOH      O 2364   2.843   0.812   2.323
  720HOH     H1 2365   2.749   0.831   2.327
  720HOH     H2 2366   2.885   0.898   2.328
  721HOH      O 2367   0.408   2.565   3.909
  721HOH     H1 2368   0.327   2.518   3.885
  721HOH     H2 2369   0.469   2.495   3.932
  722HOH      O 2370   1.945   2.966   0.343
  722HOH     H1 2371   1.983   2.885   0.309
  722HOH     H2 2372   1.950   2.957   0.438
  723HOH      O 2373   2.865   2.145   2.263
  723HOH     H1 2374   2.772   2.163   2.271
  723HOH     H2 2375   2.870   2.053   2.239
  724HOH      O 2376   3.890   2.318   3.126
  724HOH     H1 2377   3.809   2.271   3.147
  724HOH     H2 2378   3.947   2.302   3.200
  725HOH      O 2379   1.836   2.520   2.204
  725HOH     H1 2380   1.839   2.427   2.182
  725HOH     H2 2381   1.887   2.563   2.135
  726HOH      O 2382   1.172   0.206   0.718
  726HOH     H1 2383   1.119   0.191   0.640
  726HOH     H2 2384   1.181   0.302   0.722
  727HOH      O 2385   0.195   1.343   1.748
  727HOH     H1 2386   0.262   1.307   1.806
  727HOH     H2 2387   0.244   1.393   1.683
  728HOH      O 2388   1.920   3.731   1.008
  728HOH     H1 2389   1.926   3.638   1.031
  728HOH     H2 2390   1.869   3.770   1.079
  729HOH      O 2391   2.673   2.998   3.187
  729HOH     H1 2392   2.661   3.085   3.151
  729HOH     H2 2393   2.603   2.988   3.251
  730HOH      O 2394   3.586   1.899   2.077
  730HOH     H1 2395   3.649   1.922   2.008
  730HOH     H2 2396   3.501   1.914   2.036
  731HOH      O 2397   2.118   3.355   3.671
  731HOH     H1 2398   2.029   3.330   3.645
  731HOH     H2 2399   2.105   3.421   3.739
  732HOH      O 2400   0.721   2.836   3.687
  732HOH     H1 2401   0.769   2.852   3.768
  732HOH     H2 2402   0.731   2.742   3.672
  733HOH      O 2403   0.216   3.494   0.801
  733HOH     H1 2404   0.274   3.559   0.841
  733HOH     H2 2405   0.237   3.413   0.846
  734HOH      O 2406   2.332   1.396   0.891
  734HOH     H1 2407   2.344   1.306   0.862
  734HOH     H2 2408   2.296   1.441   0.815
  735HOH      O 2409   3.025   0.538   3.215
  735HOH     H1 2410   2.952   0.520   3.156
  735HOH     H2 2411   3.037   0.456   3.264
  736HOH      O 2412   3.169   1.525   3.318
  736HOH     H1 2413   3.108   1.471   3.368
  736HOH     H2 2414   3.250   1.524   3.370
  737HOH      O 2415   1.395   0.778   2.745
  737HOH     H1 2416   1.484   0.744   2.756
  737HOH     H2 2417   1.375   0.818   2.829
  738HOH      O 2418   1.480   3.175   1.168
  738HOH     H1 2419   1.489   3.270   1.165
  738HOH     H2 2420   1.506   3.146   1.080
  739HOH      O 2421   3.935   3.599   4.000
  739HOH     H1 2422   3.997   3.578   3.930
  739HOH     H2 2423   3.881   3.670   3.963
  740HOH      O 2424   3.854   2.148   3.729
  740HOH     H1 2425   3.863   2.128   3.822
  740HOH     H2 2426   3.942   2.138   3.694
  741HOH      O 2427   3.080   2.022   2.475
  741HOH     H1 2428   3.004   2.035   2.532
  741HOH     H2 2429   3.091   2.106   2.431
  742HOH      O 2430   3.755   0.536   1.478
  742HOH     H1 2431   3.758   0.592   1.556
  742HOH     H2 2432   3.743   0.598   1.405
  743HOH      O 2433   1.764   3.329   0.373
  743HOH     H1 2434   1.761   3.336   0.277
  743HOH     H2 2435   1.712   3.403   0.404
  744HOH      O 2436   1.407   3.392   3.404
  744HOH     H1 2437   1.441   3.326   3.464
  744HOH     H2 2438   1.342   3.439   3.454
  745HOH      O 2439   1.802   1.870   1.967
  745HOH     H1 2440   1.854   1.867   2.047
  745HOH     H2 2441   1.863   1.845   1.897
  746HOH      O 2442   1.469   3.976   0.202
  746HOH     H1 2443   1.548   3.994   0.151
  746HOH     H2 2444   1.438   3.891   0.170
  747HOH      O 2445   3.215   3.533   1.031
  747HOH     H1 2446   3.211   3.567   1.121
  747HOH     H2 2447   3.283   3.585   0.989
  748HOH      O 2448   1.863   2.541   1.139
  748HOH     H1 2449   1.878   2.609   1.204
  748HOH     H2 2450   1.913   2.569   1.063
  749HOH      O 2451   2.774   3.836   3.760
  749HOH     H1 2452   2.726   3.843   3.677
  749HOH     H2 2453   2.742   3.910   3.812
  750HOH      O 2454   1.614   3.861  -0.017
  750HOH     H1 2455   1.547   3.799   0.013
  750HOH     H2 2456   1.690   3.842   0.038
  751HOH      O 2457   3.074   1.591   1.773
  751HOH     H1 2458   3.153   1.615   1.821
  751HOH     H2 2459   3.008   1.655   1.801
  752HOH      O 2460   0.659   1.563   0.190
  752HOH     H1 2461   0.746   1.535   0.215
  752HOH     H2 2462   0.650   1.650   0.227
  753HOH      O 2463   3.109   2.395   1.266
  753HOH     H1 2464   3.179   2.343   1.225
  753HOH     H2 2465   3.119   2.482   1.228
  754HOH      O 2466   0.994   3.799   0.499
  754HOH     H1 2467   0.930   3.777   0.567
  754HOH     H2 2468   0.966   3.884   0.466
  755HOH      O 2469   2.603   3.868   0.953
  755HOH     H1 2470   2.527   3.898   0.903
  755HOH     H2 2471   2.618   3.936   1.019
  756HOH      O 2472   3.002   1.453   3.973
  756HOH     H1 2473   3.034   1.364   3.958
  756HOH     H2 2474   3.022   1.469   4.066
  757HOH      O 2475   3.288   0.669   1.346
  757HOH     H1 2476   3.371   0.686   1.391
  757HOH     H2 2477   3.265   0.580   1.372
  758HOH      O 2478   3.435   1.496   3.451
  758HOH     H1 2479   3.403   1.435   3.517
  758HOH     H2 2480   3.494   1.554   3.499
  759HOH      O 2481   1.280   1.015   1.471
  759HOH     H1 2482   1.360   0.985   1.428
  759HOH     H2 2483   1.211   0.961   1.433
  760HOH      O 2484   2.344   1.194   3.347
  760HOH     H1 2485   2.296   1.137   3.408
  760HOH     H2 2486   2.434   1.164   3.353
  761HOH      O 2487   2.713   1.469   3.482
  761HOH     H1 2488   2.682   1.473   3.392
  761HOH     H2 2489   2.699   1.558   3.516
  762HOH      O 2490   1.455   1.273   3.962
  762HOH     H1 2491   1.436   1.367   3.955
  762HOH     H2 2492   1.540   1.269   4.006
  763HOH      O 2493   0.379   0.873   0.297
  763HOH     H1 2494   0.320   0.947   0.311
  763HOH     H2 2495   0.466   0.909   0.313
  764HOH      O 2496   1.491   3.823   0.781
  764HOH     H1 2497   1.538   3.777   0.712
  764HOH     H2 2498   1.398   3.810   0.759
  765HOH      O 2499   1.628   1.770   3.218
  765HOH     H1 2500   1.648   1.859   3.191
  765HOH     H2 2501   1.534   1.772   3.239
  766HOH      O 2502   3.765   1.981   3.255
  766HOH     H1 2503   3.833   1.989   3.322
  766HOH     H2 2504   3.712   1.907   3.284
  767HOH      O 2505   3.366   1.525   0.155
  767HOH     H1 2506   3.289   1.476   0.184
  767HOH     H2 2507   3.421   1.532   0.233
  768HOH      O 2508   1.933   0.511   2.962
  768HOH     H1 2509   1.990   0.434   2.953
  768HOH     H2 2510   1.845   0.474   2.973
  769HOH      O 2511   1.630   3.717   1.529
  769HOH     H1 2512   1.572   3.675   1.594
  769HOH     H2 2513   1.583   3.707   1.446
  770HOH      O 2514   0.865   2.316   4.036
  770HOH     H1 2515   0.928   2.373   3.991
  770HOH     H2 2516   0.801   2.377   4.074
  771HOH      O 2517   3.008   3.723   2.793
  771HOH     H1 2518   2.974   3.799   2.746
  771HOH     H2 2519   3.037   3.758   2.877
  772HOH      O 2520   3.153   3.248   1.433
  772HOH     H1 2521   3.111   3.167   1.405
  772HOH     H2 2522   3.092   3.287   1.495
  773HOH      O 2523   0.127   2.207   2.689
  773HOH     H1 2524   0.182   2.191   2.766
  773HOH     H2 2525   0.038   2.213   2.724
  774HOH      O 2526   2.598   3.357   3.798
  774HOH     H1 2527   2.538   3.398   3.860
  774HOH     H2 2528   2.556   3.368   3.713
  775HOH      O 2529   2.070   4.046   1.208
  775HOH     H1 2530   2.007   4.056   1.137
  775HOH     H2 2531   2.058   3.956   1.238
  776HOH      O 2532   0.178   1.947   3.363
  776HOH     H1 2533   0.242   1.971   3.430
  776HOH     H2 2534   0.105   1.911   3.413
  777HOH      O 2535   2.863   2.069   2.631
  777HOH     H1 2536   2.782   2.028   2.600
  777HOH     H2 2537   2.843   2.162   2.635
  778HOH      O 2538   2.175   0.252   2.117
  778HOH     H1 2539   2.126   0.317   2.166
  778HOH     H2 2540   2.111   0.214   2.057
  779HOH      O 2541   0.864   3.458   3.273
  779HOH     H1 2542   0.826   3.544   3.257
  779HOH     H2 2543   0.832   3.432   3.359
  780HOH      O 2544   1.245   3.922   1.270
  780HOH     H1 2545   1.228   4.012   1.300
  780HOH     H2 2546   1.331   3.901   1.307
  781HOH      O 2547   2.712   3.682   2.825
  781HOH     H1 2548   2.677   3.595   2.843
  781HOH     H2 2549   2.807   3.670   2.827
  782HOH      O 2550   1.691   0.896   3.147
  782HOH     H1 2551   1.734   0.890   3.061
  782HOH     H2 2552   1.636   0.974   3.142
  783HOH      O 2553   2.590   2.548   3.701
  783HOH     H1 2554   2.642   2.468   3.698
  783HOH     H2 2555   2.609   2.592   3.618
  784HOH      O 2556   0.492   0.643   2.746
  784HOH     H1 2557   0.560   0.649   2.678
  784HOH     H2 2558   0.411   0.632   2.698
  785HOH      O 2559   0.427   2.488   3.297
  785HOH     H1 2560   0.404   2.577   3.323
  785HOH     H2 2561   0.430   2.490   3.201
  786HOH      O 2562   0.727   2.525   1.271
  786HOH     H1 2563   0.761   2.453   1.218
  786HOH     H2 2564   0.805   2.563   1.312
  787HOH      O 2565   1.448   0.177   1.450
  787HOH     H1 2566   1.455   0.262   1.493
  787HOH     H2 2567   1.511   0.181   1.378
  788HOH      O 2568   0.492   1.833   1.730
  788HOH     H1 2569   0.427   1.801   1.667
  788HOH     H2 2570   0.560   1.872   1.676
  789HOH      O 2571   1.280   2.198   3.084
  789HOH     H1 2572   1.244   2.111   3.067
  789HOH     H2 2573   1.370   2.193   3.051
  790HOH      O 2574   3.978   0.023   0.950
  790HOH     H1 2575   3.986   0.058   0.861
  790HOH     H2 2576   4.053   0.058   0.997
  791HOH      O 2577   1.645   1.231   3.067
  791HOH     H1 2578   1.681   1.218   2.979
  791HOH     H2 2579   1.721   1.242   3.123
  792HOH      O 2580   2.724   3.635   0.933
  792HOH     H1 2581   2.816   3.649   0.956
  792HOH     H2 2582   2.690   3.724   0.921
  793HOH      O 2583   1.889   3.153   3.160
  793HOH     H1 2584   1.889   3.086   3.092
  793HOH     H2 2585   1.825   3.123   3.224
  794HOH      O 2586   0.979   0.776   0.816
  794HOH     H1 2587   1.018   0.821   0.891
  794HOH     H2 2588   1.003   0.831   0.741
  795HOH      O 2589   0.511   3.287   1.690
  795HOH     H1 2590   0.522   3.340   1.611
  795HOH     H2 2591   0.462   3.343   1.750
  796HOH      O 2592   3.526   0.777   3.467
  796HOH     H1 2593   3.442   0.822   3.472
  796HOH     H2 2594   3.539   0.762   3.373
  797HOH      O 2595   3.788   3.843   2.301
  797HOH     H1 2596   3.693   3.842   2.301
  797HOH     H2 2597   3.810   3.935   2.282
  798HOH      O 2598   3.537   3.187   2.071
  798HOH     H1 2599   3.574   3.103   2.046
  798HOH     H2 2600   3.607   3.250   2.051
  799HOH      O 2601   0.455   1.238   2.597
  799HOH     H1 2602   0.496   1.187   2.527
  799HOH     H2 2603   0.372   1.268   2.559
  800HOH      O 2604   3.799   2.057   3.002
  800HOH     H1 2605   3.885   2.092   3.026
  800HOH     H2 2606   3.768   2.014   3.082
  801HOH      O 2607   0.153   1.024   2.844
  801HOH     H1 2608   0.149   1.101   2.786
  801HOH     H2 2609   0.221   1.046   2.908
  802HOH      O 2610   3.605   0.627   0.586
  802HOH     H1 2611   3.552   0.701   0.557
  802HOH     H2 2612   3.559   0.593   0.663
  803HOH      O 2613   3.240   0.996   2.860
  803HOH     H1 2614   3.225   0.914   2.814
  803HOH     H2 2615   3.335   1.009   2.858
  804HOH      O 2616   0.891   1.302   3.206
  804HOH     H1 2617   0.908   1.376   3.264
  804HOH     H2 2618   0.807   1.267   3.235
  805HOH      O 2619  -0.000   2.099   0.188
  805HOH     H1 2620   0.061   2.038   0.229
  805HOH     H2 2621   0.054   2.176   0.167
  806HOH      O 2622   3.527   1.340   3.151
  806HOH     H1 2623   3.525   1.384   3.236
  806HOH     H2 2624   3.455   1.379   3.101
  807HOH      O 2625   2.592   0.370   3.872
  807HOH     H1 2626   2.672   0.379   3.821
  807HOH     H2 2627   2.522   0.367   3.807
  808HOH      O 2628   3.716   1.729   0.219
  808HOH     H1 2629   3.698   1.741   0.125
  808HOH     H2 2630   3.675   1.645   0.240
  809HOH      O 2631   3.675   3.624   0.201
  809HOH     H1 2632   3.666   3.533   0.229
  809HOH     H2 2633   3.768   3.633   0.179
  810HOH      O 2634   0.661   1.160   3.240
  810HOH     H1 2635   0.567   1.177   3.237
  810HOH     H2 2636   0.673   1.080   3.188
  811HOH      O 2637   3.984   0.483   2.480
  811HOH     H1 2638   3.966   0.459   2.571
  811HOH     H2 2639   3.950   0.572   2.471
  812HOH      O 2640   3.693   3.375   1.954
  812HOH     H1 2641   3.661   3.400   1.867
  812HOH     H2 2642   3.788   3.386   1.949
  813HOH      O 2643   0.075   2.556   2.558
  813HOH     H1 2644   0.075   2.610   2.479
  813HOH     H2 2645   0.005   2.493   2.544
  814HOH      O 2646   1.618   1.078   1.166
  814HOH     H1 2647   1.594   0.992   1.132
  814HOH     H2 2648   1.642   1.129   1.089
  815HOH      O 2649   2.577   3.329   1.707
  815HOH     H1 2650   2.652   3.322   1.766
  815HOH     H2 2651   2.513   3.380   1.758
  816HOH      O 2652   3.020   2.712   0.147
  816HOH     H1 2653   3.084   2.713   0.076
  816HOH     H2 2654   2.935   2.720   0.103
  817HOH      O 2655   3.389   0.413   3.378
  817HOH     H1 2656   3.309   0.388   3.425
  817HOH     H2 2657   3.392   0.354   3.303
  818HOH      O 2658   2.780   3.264   0.014
  818HOH     H1 2659   2.725   3.339  -0.012
  818HOH     H2 2660   2.831   3.297   0.088
  819HOH      O 2661   0.974   3.016   1.395
  819HOH     H1 2662   0.965   2.991   1.303
  819HOH     H2 2663   0.951   2.937   1.445
  820HOH      O 2664   1.505   1.771   0.361
  820HOH     H1 2665   1.417   1.808   0.360
  820HOH     H2 2666   1.531   1.767   0.269
  821HOH      O 2667   0.633   0.967   0.343
  821HOH     H1 2668   0.718   1.005   0.323
  821HOH     H2 2669   0.592   1.030   0.403
  822HOH      O 2670   1.198   1.457   3.058
  822HOH     H1 2671   1.168   1.491   3.142
  822HOH     H2 2672   1.126   1.401   3.028
  823HOH      O 2673   0.160   0.758   3.638
  823HOH     H1 2674   0.140   0.718   3.723
  823HOH     H2 2675   0.101   0.833   3.633
  824HOH      O 2676   4.057   0.979   3.599
  824HOH     H1 2677   3.991   0.924   3.642
  824HOH     H2 2678   4.032   0.978   3.507
  825HOH      O 2679   2.310   2.225   2.324
  825HOH     H1 2680   2.266   2.308   2.341
  825HOH     H2 2681   2.262   2.187   2.250
  826HOH      O 2682   3.476   0.578   1.789
  826HOH     H1 2683   3.421   0.628   1.851
  826HOH     H2 2684   3.497   0.640   1.720
  827HOH      O 2685   3.011   0.417   1.171
  827HOH     H1 2686   3.005   0.487   1.106
  827HOH     H2 2687   2.996   0.461   1.255
  828HOH      O 2688   3.155   0.050   3.509
  828HOH     H1 2689   3.126  -0.040   3.491
  828HOH     H2 2690   3.181   0.084   3.424
  829HOH      O 2691   4.003   3.133   1.445
  829HOH     H1 2692   3.963   3.192   1.508
  829HOH     H2 2693   4.044   3.065   1.498
  830HOH      O 2694   0.974   1.842   0.880
  830HOH     H1 2695   0.886   1.837   0.918
  830HOH     H2 2696   1.000   1.751   0.868
  831HOH      O 2697   1.757   1.855   2.333
  831HOH     H1 2698   1.696   1.929   2.335
  831HOH     H2 2699   1.703   1.780   2.307
  832HOH      O 2700   0.076   3.845   3.708
  832HOH     H1 2701   0.042   3.930   3.735
  832HOH     H2 2702   0.002   3.802   3.664
  833HOH      O 2703   3.890   1.184   2.547
  833HOH     H1 2704   3.843   1.245   2.604
  833HOH     H2 2705   3.836   1.105   2.547
  834HOH      O 2706   0.384   1.026   1.147
  834HOH     H1 2707   0.309   0.970   1.126
  834HOH     H2 2708   0.352   1.085   1.215
  835HOH      O 2709   3.118   3.784   0.837
  835HOH     H1 2710   3.083   3.761   0.923
  835HOH     H2 2711   3.184   3.851   0.856
  836HOH      O 2712   0.717   1.216   3.967
  836HOH     H1 2713   0.749   1.213   4.057
  836HOH     H2 2714   0.622   1.225   3.975
  837HOH      O 2715   3.119   1.170   3.248
  837HOH     H1 2716   3.073   1.092   3.278
  837HOH     H2 2717   3.198   1.173   3.302
  838HOH      O 2718   3.802   3.631   1.004
  838HOH     H1 2719   3.720   3.610   1.050
  838HOH     H2 2720   3.775   3.643   0.913
  839HOH      O 2721   3.868   0.905   2.090
  839HOH     H1 2722   3.815   0.915   2.011
  839HOH     H2 2723   3.955   0.882   2.057
  840HOH      O 2724   1.773   0.986   2.243
  840HOH     H1 2725   1.835   1.056   2.264
  840HOH     H2 2726   1.688   1.022   2.268
  841HOH      O 2727   3.978   3.554   3.459
  841HOH     H1 2728   4.048   3.499   3.422
  841HOH     H2 2729   3.962   3.620   3.392
  842HOH      O 2730   3.731   3.342   0.740
  842HOH     H1 2731   3.825   3.359   0.739
  842HOH     H2 2732   3.723   3.252   0.771
  843HOH      O 2733   2.902   2.552   2.656
  843HOH     H1 2734   2.811   2.523   2.663
  843HOH     H2 2735   2.947   2.478   2.615
  844HOH      O 2736   3.371   0.791   2.698
  844HOH     H1 2737   3.350   0.868   2.645
  844HOH     H2 2738   3.287   0.749   2.715
  845HOH      O 2739   3.012   2.291   3.024
  845HOH     H1 2740   3.091   2.242   3.001
  845HOH     H2 2741   3.045   2.377   3.052
  846HOH      O 2742   3.755   3.991   1.125
  846HOH     H1 2743   3.661   3.980   1.111
  846HOH     H2 2744   3.794   3.984   1.038
  847HOH      O 2745   2.853   0.175   1.525
  847HOH     H1 2746   2.894   0.203   1.443
  847HOH     H2 2747   2.864   0.080   1.527
  848HOH      O 2748   0.425   2.220   1.465
  848HOH     H1 2749   0.365   2.162   1.417
  848HOH     H2 2750   0.512   2.189   1.441
  849HOH      O 2751   2.652   0.858   3.832
  849HOH     H1 2752   2.702   0.797   3.886
  849HOH     H2 2753   2.687   0.945   3.856
  850HOH      O 2754   3.437   1.738   3.129
  850HOH     H1 2755   3.363   1.691   3.091
  850HOH     H2 2756   3.511   1.678   3.119
  851HOH      O 2757   3.284   0.566   2.210
  851HOH     H1 2758   3.249   0.488   2.253
  851HOH     H2 2759   3.240   0.640   2.252
  852HOH      O 2760   3.430   4.063   2.916
  852HOH     H1 2761   3.378   4.006   2.860
  852HOH     H2 2762   3.415   4.030   3.005
  853HOH      O 2763   3.461   4.010   1.479
  853HOH     H1 2764   3.528   4.059   1.527
  853HOH     H2 2765   3.506   3.929   1.452
  854HOH      O 2766   3.749   0.948   3.445
  854HOH     H1 2767   3.711   0.886   3.383
  854HOH     H2 2768   3.687   1.021   3.446
  855HOH      O 2769   1.279   1.489   2.540
  855HOH     H1 2770   1.207   1.433   2.569
  855HOH     H2 2771   1.334   1.500   2.617
  856HOH      O 2772   0.396   3.130   4.027
  856HOH     H1 2773   0.307   3.122   4.062
  856HOH     H2 2774   0.417   3.042   3.995
  857HOH      O 2775   2.800   1.553   0.895
  857HOH     H1 2776   2.795   1.527   0.987
  857HOH     H2 2777   2.745   1.489   0.849
  858HOH      O 2778   1.823   2.774   1.958
  858HOH     H1 2779   1.768   2.776   1.880
  858HOH     H2 2780   1.768   2.812   2.027
  859HOH      O 2781   0.858   2.743   2.552
  859HOH     H1 2782   0.801   2.669   2.533
  859HOH     H2 2783   0.818   2.786   2.628
  860HOH      O 2784   0.133   3.156   2.968
  860HOH     H1 2785   0.226   3.145   2.986
  860HOH     H2 2786   0.117   3.250   2.977
  861HOH      O 2787   3.392   1.761   2.560
  861HOH     H1 2788   3.417   1.689   2.619
  861HOH     H2 2789   3.297   1.756   2.556
  862HOH      O 2790   3.661   2.731   2.173
  862HOH     H1 2791   3.651   2.636   2.178
  862HOH     H2 2792   3.700   2.755   2.257
  863HOH      O 2793   0.180   1.905   2.283
  863HOH     H1 2794   0.207   1.988   2.244
  863HOH     H2 2795   0.164   1.926   2.375
  864HOH      O 2796   2.844   1.520   3.780
  864HOH     H1 2797   2.783   1.446   3.778
  864HOH     H2 2798   2.906   1.498   3.850
  865HOH      O 2799   1.716   0.672   2.841
  865HOH     H1 2800   1.757   0.758   2.845
  865HOH     H2 2801   1.723   0.637   2.930
  866HOH      O 2802   2.421   1.833   2.617
  866HOH     H1 2803   2.365   1.904   2.586
  866HOH     H2 2804   2.502   1.843   2.568
  867HOH      O 2805   0.811   3.645   1.402
  867HOH     H1 2806   0.726   3.690   1.403
  867HOH     H2 2807   0.843   3.657   1.313
  868HOH      O 2808   3.332   1.064   2.240
  868HOH     H1 2809   3.243   1.068   2.205
  868HOH     H2 2810   3.385   1.113   2.176
  869HOH      O 2811   2.141   2.436   3.548
  869HOH     H1 2812   2.135   2.462   3.640
  869HOH     H2 2813   2.192   2.505   3.507
  870HOH      O 2814   3.088   0.247   2.071
  870HOH     H1 2815   3.015   0.220   2.015
  870HOH     H2 2816   3.142   0.302   2.015
  871HOH      O 2817   3.426   2.404   1.301
  871HOH     H1 2818   3.432   2.491   1.338
  871HOH     H2 2819   3.396   2.349   1.373
  872HOH      O 2820   1.494   2.496   1.805
  872HOH     H1 2821   1.475   2.474   1.714
  872HOH     H2 2822   1.584   2.466   1.818
  873HOH      O 2823   0.052   1.082   1.099
  873HOH     H1 2824  -0.043   1.088   1.104
  873HOH     H2 2825   0.072   0.992   1.126
  874HOH      O 2826   3.043   3.327   3.621
  874HOH     H1 2827   2.991   3.372   3.687
  874HOH     H2 2828   3.133   3.355   3.638
  875HOH      O 2829   1.953   0.713   3.429
  875HOH     H1 2830   1.940   0.629   3.473
  875HOH     H2 2831   2.004   0.692   3.351
  876HOH      O 2832   0.424   2.736   2.096
  876HOH     H1 2833   0.459   2.826   2.097
  876HOH     H2 2834   0.397   2.721   2.187
  877HOH      O 2835   0.627   0.705   0.424
  877HOH     H1 2836   0.562   0.727   0.491
  877HOH     H2 2837   0.660   0.790   0.395
  878HOH      O 2838   1.754   3.720   3.413
  878HOH     H1 2839   1.746   3.692   3.504
  878HOH     H2 2840   1.666   3.711   3.377
  879HOH      O 2841   2.598   2.305   0.211
  879HOH     H1 2842   2.580   2.225   0.162
  879HOH     H2 2843   2.686   2.292   0.247
  880HOH      O 2844   1.457   2.503   2.806
  880HOH     H1 2845   1.488   2.422   2.766
  880HOH     H2 2846   1.485   2.572   2.746
  881HOH      O 2847   1.323   0.933   2.304
  881HOH     H1 2848   1.339   0.854   2.253
  881HOH     H2 2849   1.249   0.910   2.361
  882HOH      O 2850   3.690   2.470   0.505
  882HOH     H1 2851   3.786   2.472   0.509
  882HOH     H2 2852   3.669   2.392   0.454
  883HOH      O 2853   1.386   3.755   3.609
  883HOH     H1 2854   1.466   3.741   3.659
  883HOH     H2 2855   1.318   3.769   3.675
  884HOH      O 2856   1.292   3.556   2.659
  884HOH     H1 2857   1.245   3.473   2.653
  884HOH     H2 2858   1.237   3.618   2.609
  885HOH      O 2859   2.636   2.247   0.825
  885HOH     H1 2860   2.689   2.168   0.817
  885HOH     H2 2861   2.580   2.246   0.747
  886HOH      O 2862   2.478   2.828   3.822
  886HOH     H1 2863   2.544   2.887   3.786
  886HOH     H2 2864   2.395   2.865   3.795
  887HOH      O 2865   1.942   0.490   1.993
  887HOH     H1 2866   1.994   0.541   2.056
  887HOH     H2 2867   2.003   0.469   1.923
  888HOH      O 2868   3.255   2.788   1.691
  888HOH     H1 2869   3.208   2.733   1.754
  888HOH     H2 2870   3.195   2.797   1.617
  889HOH      O 2871   0.528   3.960   0.998
  889HOH     H1 2872   0.447   4.004   1.024
  889HOH     H2 2873   0.575   3.945   1.080
  890HOH      O 2874   2.458   2.639   1.590
  890HOH     H1 2875   2.366   2.648   1.618
  890HOH     H2 2876   2.458   2.562   1.533
  891HOH      O 2877   1.604   2.134   2.331
  891HOH     H1 2878   1.696   2.154   2.348
  891HOH     H2 2879   1.589   2.161   2.240
  892HOH      O 2880   0.141   2.402   2.273
  892HOH     H1 2881   0.126   2.479   2.218
  892HOH     H2 2882   0.055   2.381   2.308
  893HOH      O 2883   1.221   0.695   0.571
  893HOH     H1 2884   1.192   0.643   0.496
  893HOH     H2 2885   1.172   0.777   0.562
  894HOH      O 2886   0.295   0.969   0.684
  894HOH     H1 2887   0.346   0.898   0.645
  894HOH     H2 2888   0.360   1.023   0.729
  895HOH      O 2889   3.406   1.506   2.443
  895HOH     H1 2890   3.413   1.525   2.537
  895HOH     H2 2891   3.341   1.436   2.438
  896HOH      O 2892   1.247   3.824   0.620
  896HOH     H1 2893   1.286   3.858   0.539
  896HOH     H2 2894   1.162   3.789   0.593
  897HOH      O 2895   3.642   0.381   1.709
  897HOH     H1 2896   3.578   0.436   1.755
  897HOH     H2 2897   3.660   0.428   1.627
  898HOH      O 2898   2.809   0.556   1.632
  898HOH     H1 2899   2.783   0.481   1.687
  898HOH     H2 2900   2.729   0.606   1.619
  899HOH      O 2901   3.896   3.346   1.594
  899HOH     H1 2902   3.806   3.372   1.612
  899HOH     H2 2903   3.926   3.407   1.526
  900HOH      O 2904   2.444   2.406   1.405
  900HOH     H1 2905   2.530   2.429   1.441
  900HOH     H2 2906   2.410   2.340   1.464
  901HOH      O 2907   3.519   2.955   3.343
  901HOH     H1 2908   3.575   3.005   3.283
  901HOH     H2 2909   3.504   2.872   3.299
  902HOH      O 2910   3.838   1.834   1.265
  902HOH     H1 2911   3.809   1.807   1.352
  902HOH     H2 2912   3.805   1.765   1.207
  903HOH      O 2913   0.302   0.112   3.127
  903HOH     H1 2914   0.301   0.112   3.223
  903HOH     H2 2915   0.339   0.197   3.103
  904HOH      O 2916   2.814   0.204   2.996
  904HOH     H1 2917   2.738   0.204   3.054
  904HOH     H2 2918   2.778   0.226   2.910
  905HOH      O 2919   0.308   0.289   1.345
  905HOH     H1 2920   0.318   0.250   1.432
  905HOH     H2 2921   0.248   0.362   1.359
  906HOH      O 2922   0.759   3.199   2.650
  906HOH     H1 2923   0.757   3.168   2.559
  906HOH     H2 2924   0.832   3.261   2.652
  907HOH      O 2925   3.406   2.093   0.676
  907HOH     H1 2926   3.470   2.164   0.676
  907HOH     H2 2927   3.367   2.095   0.763
  908HOH      O 2928   3.678   1.421   0.254
  908HOH     H1 2929   3.654   1.333   0.283
  908HOH     H2 2930   3.747   1.407   0.189
  909HOH      O 2931   1.008   3.038   2.759
  909HOH     H1 2932   1.027   3.123   2.798
  909HOH     H2 2933   1.089   3.012   2.714
  910HOH      O 2934   3.567   0.269   2.640
  910HOH     H1 2935   3.561   0.182   2.680
  910HOH     H2 2936   3.521   0.259   2.556
  911HOH      O 2937   3.592   2.485   2.709
  911HOH     H1 2938   3.521   2.431   2.745
  911HOH     H2 2939   3.642   2.514   2.786
  912HOH      O 2940   1.456   1.911   2.324
  912HOH     H1 2941   1.494   1.992   2.356
  912HOH     H2 2942   1.377   1.899   2.377
  913HOH      O 2943   0.855   0.020   0.507
  913HOH     H1 2944   0.886   0.108   0.526
  913HOH     H2 2945   0.817  -0.011   0.589
  914HOH      O 2946   1.958   1.244   3.162
  914HOH     H1 2947   2.025   1.307   3.188
  914HOH     H2 2948   1.996   1.197   3.088
  915HOH      O 2949   3.915   3.717   1.772
  915HOH     H1 2950   3.875   3.760   1.848
  915HOH     H2 2951   3.855   3.738   1.700
  916HOH      O 2952   1.344   2.227   0.697
  916HOH     H1 2953   1.364   2.224   0.791
  916HOH     H2 2954   1.406   2.291   0.662
  917HOH      O 2955   1.965   0.799   1.853
  917HOH     H1 2956   1.993   0.874   1.799
  917HOH     H2 2957   1.876   0.822   1.881
  918HOH      O 2958   0.282   1.761   1.180
  918HOH     H1 2959   0.299   1.745   1.273
  918HOH     H2 2960   0.342   1.702   1.134
  919HOH      O 2961   1.699   2.192   0.588
  919HOH     H1 2962   1.647   2.112   0.582
  919HOH     H2 2963   1.667   2.235   0.667
  920HOH      O 2964   3.986   0.991   0.347
  920HOH     H1 2965   3.927   0.949   0.409
  920HOH     H2 2966   3.942   1.073   0.324
  921HOH      O 2967   2.699   2.945   3.510
  921HOH     H1 2968   2.678   3.005   3.582
  921HOH     H2 2969   2.620   2.942   3.456
  922HOH      O 2970   0.660   1.552   3.258
  922HOH     H1 2971   0.724   1.590   3.198
  922HOH     H2 2972   0.691   1.578   3.345
  923HOH      O 2973   2.719   3.264   2.018
  923HOH     H1 2974   2.764   3.340   2.055
  923HOH     H2 2975   2.654   3.241   2.084
  924HOH      O 2976   1.077   0.666   1.434
  924HOH     H1 2977   1.042   0.657   1.345
  924HOH     H2 2978   1.009   0.715   1.481
  925HOH      O 2979   3.464   1.052   0.269
  925HOH     H1 2980   3.400   1.123   0.266
  925HOH     H2 2981   3.441   0.995   0.195
  926HOH      O 2982   3.876   2.945   1.279
  926HOH     H1 2983   3.905   3.022   1.328
  926HOH     H2 2984   3.944   2.932   1.213
  927HOH      O 2985   1.121   0.464   0.760
  927HOH     H1 2986   1.164   0.547   0.778
  927HOH     H2 2987   1.037   0.470   0.805
  928HOH      O 2988   0.357   2.800   3.039
  928HOH     H1 2989   0.411   2.763   2.969
  928HOH     H2 2990   0.267   2.785   3.011
  929HOH      O 2991   2.156   0.563   2.541
  929HOH     H1 2992   2.219   0.513   2.594
  929HOH     H2 2993   2.208   0.598   2.469
  930HOH      O 2994   0.372   1.424   3.594
  930HOH     H1 2995   0.321   1.343   3.591
  930HOH     H2 2996   0.367   1.458   3.504
  931HOH      O 2997   1.459   1.482   2.989
  931HOH     H1 2998   1.364   1.487   2.998
  931HOH     H2 2999   1.488   1.432   3.065
  932HOH      O 3000   1.760   0.692   1.485
  932HOH     H1 3001   1.738   0.659   1.397
  932HOH     H2 3002   1.853   0.674   1.495
  933HOH      O 3003   2.580   2.155   2.330
  933HOH     H1 3004   2.543   2.095   2.266
  933HOH     H2 3005   2.505   2.183   2.382
  934HOH      O 3006   3.688   3.159   1.071
  934HOH     H1 3007   3.755   3.158   1.002
  934HOH     H2 3008   3.732   3.200   1.146
  935HOH      O 3009   1.400   0.163   0.875
  935HOH     H1 3010   1.373   0.097   0.939
  935HOH     H2 3011   1.321   0.183   0.826
  936HOH      O 3012   2.368   2.190   3.343
  936HOH     H1 3013   2.346   2.117   3.401
  936HOH     H2 3014   2.438   2.237   3.390
  937HOH      O 3015   3.815   0.693   1.706
  937HOH     H1 3016   3.796   0.786   1.717
  937HOH     H2 3017   3.783   0.652   1.787
  938HOH      O 3018   1.621   1.126   0.485
  938HOH     H1 3019   1.598   1.157   0.573
  938HOH     H2 3020   1.567   1.180   0.427
  939HOH      O 3021   3.478   1.886   1.318
  939HOH     H1 3022   3.396   1.850   1.355
  939HOH     H2 3023   3.537   1.891   1.393
  940HOH      O 3024   2.366   3.222   3.127
  940HOH     H1 3025   2.331   3.281   3.194
  940HOH     H2 3026   2.383   3.140   3.174
  941HOH      O 3027   0.637   3.431   2.038
  941HOH     H1 3028   0.564   3.445   2.098
  941HOH     H2 3029   0.687   3.513   2.041
  942HOH      O 3030   0.141   3.553   0.540
  942HOH     H1 3031   0.186   3.561   0.624
  942HOH     H2 3032   0.180   3.476   0.499
  943HOH      O 3033   4.010   2.930   1.010
  943HOH     H1 3034   4.002   2.862   0.943
  943HOH     H2 3035   4.096   2.914   1.049
  944HOH      O 3036   3.560   1.681   1.120
  944HOH     H1 3037   3.515   1.749   1.170
  944HOH     H2 3038   3.600   1.728   1.046
  945HOH      O 3039   2.949   3.073   3.684
  945HOH     H1 3040   3.011   3.047   3.752
  945HOH     H2 3041   2.984   3.155   3.650
  946HOH      O 3042   3.415   3.194   3.128
  946HOH     H1 3043   3.448   3.237   3.049
  946HOH     H2 3044   3.487   3.138   3.157
  947HOH      O 3045   2.722   3.404   2.883
  947HOH     H1 3046   2.729   3.319   2.840
  947HOH     H2 3047   2.639   3.400   2.931
  948HOH      O 3048   2.156   2.283   0.193
  948HOH     H1 3049   2.082   2.323   0.237
  948HOH     H2 3050   2.212   2.356   0.169
  949HOH      O 3051   2.468   4.021   3.089
  949HOH     H1 3052   2.509   3.985   3.010
  949HOH     H2 3053   2.388   4.063   3.056
  950HOH      O 3054   3.648   0.391   4.019
  950HOH     H1 3055   3.589   0.447   3.968
  950HOH     H2 3056   3.623   0.408   4.110
  951HOH      O 3057   3.488   0.673   0.873
  951HOH     H1 3058   3.471   0.764   0.898
  951HOH     H2 3059   3.431   0.622   0.930
  952HOH      O 3060   2.134   3.744   3.497
  952HOH     H1 3061   2.113   3.831   3.464
  952HOH     H2 3062   2.098   3.685   3.431
  953HOH      O 3063   0.491   1.399   2.804
  953HOH     H1 3064   0.553   1.346   2.854
  953HOH     H2 3065   0.466   1.342   2.731
  954HOH      O 3066   3.532   1.171   3.789
  954HOH     H1 3067   3.610   1.121   3.814
  954HOH     H2 3068   3.460   1.110   3.800
  955HOH      O 3069   2.989   3.454   2.646
  955HOH     H1 3070   3.002   3.538   2.689
  955HOH     H2 3071   3.074   3.411   2.651
  956HOH      O 3072   3.360   2.030   2.572
  956HOH     H1 3073   3.370   1.936   2.557
  956HOH     H2 3074   3.266   2.046   2.567
  957HOH      O 3075   3.421   0.835   3.189
  957HOH     H1 3076   3.355   0.770   3.212
  957HOH     H2 3077   3.412   0.903   3.256
  958HOH      O 3078   4.007   3.846   2.788
  958HOH     H1 3079   4.081   3.852   2.729
  958HOH     H2 3080   3.958   3.927   2.774
  959HOH      O 3081   3.273   2.504   3.616
  959HOH     H1 3082   3.204   2.566   3.591
  959HOH     H2 3083   3.236   2.418   3.595
  960HOH      O 3084   1.131   3.087   0.045
  960HOH     H1 3085   1.096   3.004   0.077
  960HOH     H2 3086   1.159   3.067  -0.045
  961HOH      O 3087   1.381   2.459   3.090
  961HOH     H1 3088   1.377   2.479   2.997
  961HOH     H2 3089   1.317   2.389   3.103
  962HOH      O 3090   2.877   0.206   2.319
  962HOH     H1 3091   2.967   0.176   2.310
  962HOH     H2 3092   2.882   0.281   2.379
  963HOH      O 3093   3.806   2.182   2.503
  963HOH     H1 3094   3.789   2.219   2.589
  963HOH     H2 3095   3.718   2.166   2.467
  964HOH      O 3096   0.329   1.501   1.577
  964HOH     H1 3097   0.287   1.587   1.581
  964HOH     H2 3098   0.286   1.456   1.505
  965HOH      O 3099   0.482   0.448   3.314
  965HOH     H1 3100   0.413   0.434   3.379
  965HOH     H2 3101   0.562   0.423   3.359
  966HOH      O 3102   3.736   0.966   1.870
  966HOH     H1 3103   3.643   0.952   1.883
  966HOH     H2 3104   3.742   1.041   1.811
  967HOH      O 3105   2.885   3.043   2.928
  967HOH     H1 3106   2.975   3.036   2.958
  967HOH     H2 3107   2.832   3.008   3.001
  968HOH      O 3108   0.238   1.382   2.448
  968HOH     H1 3109   0.228   1.456   2.388
  968HOH     H2 3110   0.205   1.415   2.532
  969HOH      O 3111   0.122   1.948   0.947
  969HOH     H1 3112   0.151   1.865   0.984
  969HOH     H2 3113   0.030   1.956   0.974
  970HOH      O 3114   3.212   2.393   3.337
  970HOH     H1 3115   3.285   2.332   3.326
  970HOH     H2 3116   3.187   2.416   3.248
  971HOH      O 3117   1.421   0.286   3.672
  971HOH     H1 3118   1.370   0.358   3.636
  971HOH     H2 3119   1.439   0.230   3.596
  972HOH      O 3120   0.775   1.776   2.284
  972HOH     H1 3121   0.718   1.827   2.226
  972HOH     H2 3122   0.863   1.788   2.248
  973HOH      O 3123   1.231   3.814   3.839
  973HOH     H1 3124   1.224   3.885   3.776
  973HOH     H2 3125   1.232   3.857   3.924
  974HOH      O 3126   0.377   3.978   2.846
  974HOH     H1 3127   0.413   3.993   2.759
  974HOH     H2 3128   0.296   4.029   2.848
  975HOH      O 3129   2.846   2.247   0.378
  975HOH     H1 3130   2.865   2.181   0.310
  975HOH     H2 3131   2.841   2.196   0.459
  976HOH      O 3132   3.514   3.850   2.293
  976HOH     H1 3133   3.491   3.867   2.202
  976HOH     H2 3134   3.444   3.793   2.326
  977HOH      O 3135   3.674   2.901   0.421
  977HOH     H1 3136   3.696   2.814   0.385
  977HOH     H2 3137   3.585   2.891   0.455
  978HOH      O 3138   3.967   1.549   4.008
  978HOH     H1 3139   4.000   1.460   4.003
  978HOH     H2 3140   3.970   1.571   4.101
  979HOH      O 3141   0.425   2.031   1.916
  979HOH     H1 3142   0.442   1.963   1.851
  979HOH     H2 3143   0.364   2.091   1.874
  980HOH      O 3144   1.888   3.743   2.353
  980HOH     H1 3145   1.843   3.827   2.351
  980HOH     H2 3146   1.832   3.684   2.304
  981HOH      O 3147   3.542   2.196   2.452
  981HOH     H1 3148   3.478   2.135   2.488
  981HOH     H2 3149   3.510   2.282   2.479
  982HOH      O 3150   1.858   2.673   3.636
  982HOH     H1 3151   1.900   2.697   3.719
  982HOH     H2 3152   1.868   2.578   3.631
  983HOH      O 3153   0.497   2.325   0.029
  983HOH     H1 3154   0.536   2.238   0.018
  983HOH     H2 3155   0.548   2.365   0.099
  984HOH      O 3156   1.471   0.628   0.667
  984HOH     H1 3157   1.479   0.722   0.686
  984HOH     H2 3158   1.398   0.622   0.606
  985HOH      O 3159   1.863   3.275   3.578
  985HOH     H1 3160   1.854   3.180   3.581
  985HOH     H2 3161   1.861   3.297   3.485
  986HOH      O 3162   1.069   3.266   3.454
  986HOH     H1 3163   1.117   3.348   3.460
  986HOH     H2 3164   1.006   3.269   3.526
  987HOH      O 3165   2.054   1.140   0.088
  987HOH     H1 3166   2.064   1.179   0.001
  987HOH     H2 3167   2.143   1.111   0.111
  988HOH      O 3168   1.096   2.906   2.153
  988HOH     H1 3169   1.098   2.811   2.167
  988HOH     H2 3170   1.082   2.943   2.240
  989HOH      O 3171   2.814   3.706   2.469
  989HOH     H1 3172   2.739   3.651   2.490
  989HOH     H2 3173   2.775   3.788   2.436
  990HOH      O 3174   2.140   0.408   1.793
  990HOH     H1 3175   2.163   0.501   1.792
  990HOH     H2 3176   2.224   0.362   1.780
  991HOH      O 3177   1.614   3.119   2.550
  991HOH     H1 3178   1.529   3.111   2.507
  991HOH     H2 3179   1.636   3.212   2.542
  992HOH      O 3180   0.900   2.149   2.497
  992HOH     H1 3181   0.813   2.116   2.477
  992HOH     H2 3182   0.953   2.128   2.420
  993HOH      O 3183   3.335   0.216   3.193
  993HOH     H1 3184   3.420   0.175   3.206
  993HOH     H2 3185   3.272   0.145   3.207
  994HOH      O 3186   3.752   3.171   3.483
  994HOH     H1 3187   3.657   3.179   3.493
  994HOH     H2 3188   3.766   3.166   3.388
  995HOH      O 3189   3.803   0.846   3.700
  995HOH     H1 3190   3.739   0.775   3.705
  995HOH     H2 3191   3.785   0.888   3.616
  996HOH      O 3192   0.234   1.682   3.212
  996HOH     H1 3193   0.161   1.701   3.271
  996HOH     H2 3194   0.277   1.767   3.199
  997HOH      O 3195   1.867   0.224   1.984
  997HOH     H1 3196   1.862   0.249   1.892
  997HOH     H2 3197   1.879   0.307   2.031
  998HOH      O 3198   1.244   3.417   3.812
  998HOH     H1 3199   1.211   3.455   3.894
  998HOH     H2 3200   1.338   3.434   3.814
  999HOH      O 3201   1.416   0.500   0.927
  999HOH     H1 3202   1.428   0.452   0.844
  999HOH     H2 3203   1.429   0.592   0.903
 1000HOH      O 3204   0.008   2.065   3.183
 1000HOH     H1 3205   0.016   2.006   3.107
 1000HOH     H2 3206   0.053   2.019   3.254
 1001HOH      O 3207   2.306   1.977   3.063
 1001HOH     H1 3208   2.355   2.059   3.071
 1001HOH     H2 3209   2.325   1.930   3.144
 1002HOH      O 3210   1.606   0.190   2.716
 1002HOH     H1 3211   1.662   0.267   2.724
 1002HOH     H2 3212   1.591   0.181   2.622
 1003HOH      O 3213   1.719   3.071   3.387
 1003HOH     H1 3214   1.659   3.076   3.312
 1003HOH     H2 3215   1.711   2.981   3.418
 1004HOH      O 3216   1.706   2.702   3.395
 1004HOH     H1 3217   1.766   2.671   3.463
 1004HOH     H2 3218   1.669   2.622   3.358
 1005HOH      O 3219   3.128   2.212   2.280
 1005HOH     H1 3220   3.173   2.186   2.200
 1005HOH     H2 3221   3.038   2.182   2.268
 1006HOH      O 3222   3.973   2.494   3.764
 1006HOH     H1 3223   3.901   2.557   3.760
 1006HOH     H2 3224   3.937   2.414   3.725
 1007HOH      O 3225   2.763   3.399   2.274
 1007HOH     H1 3226   2.731   3.400   2.364
 1007HOH     H2 3227   2.849   3.440   2.278
 1008HOH      O 3228   0.033   3.472   3.786
 1008HOH     H1 3229  -0.005   3.415   3.719
 1008HOH     H2 3230   0.117   3.432   3.807
 1009HOH      O 3231   1.501   1.544   3.906
 1009HOH     H1 3232   1.456   1.629   3.902
 1009HOH     H2 3233   1.568   1.555   3.974
 1010HOH      O 3234   1.726   0.844   1.976
 1010HOH     H1 3235   1.666   0.913   1.948
 1010HOH     H2 3236   1.727   0.850   2.071
 1011HOH      O 3237   0.929   3.261   0.825
 1011HOH     H1 3238   0.924   3.254   0.921
 1011HOH     H2 3239   0.936   3.355   0.808
 1012HOH      O 3240   2.149   0.545   3.734
 1012HOH     H1 3241   2.190   0.479   3.677
 1012HOH     H2 3242   2.161   0.510   3.822
 1013HOH      O 3243   2.648   3.892   3.246
 1013HOH     H1 3244   2.652   3.799   3.225
 1013HOH     H2 3245   2.576   3.926   3.192
 1014HOH      O 3246   4.004   1.617   2.861
 1014HOH     H1 3247   3.946   1.693   2.871
 1014HOH     H2 3248   3.975   1.556   2.929
 1015HOH      O 3249   3.631   2.215   3.216
 1015HOH     H1 3250   3.575   2.165   3.157
 1015HOH     H2 3251   3.693   2.151   3.250
 1016HOH      O 3252   0.453   2.875   1.110
 1016HOH     H1 3253   0.478   2.785   1.087
 1016HOH     H2 3254   0.437   2.872   1.204
 1017HOH      O 3255   3.767   0.073   2.235
 1017HOH     H1 3256   3.685   0.075   2.283
 1017HOH     H2 3257   3.816   0.149   2.267
 1018HOH      O 3258   2.411   0.145   3.586
 1018HOH     H1 3259   2.502   0.171   3.597
 1018HOH     H2 3260   2.408   0.104   3.500
 1019HOH      O 3261   3.739   1.620   2.596
 1019HOH     H1 3262   3.730   1.661   2.682
 1019HOH     H2 3263   3.724   1.526   2.613
 1020HOH      O 3264   1.819   3.014   4.047
 1020HOH     H1 3265   1.770   2.931   4.050
 1020HOH     H2 3266   1.901   2.992   4.004
 1021HOH      O 3267   0.746   2.870   0.413
 1021HOH     H1 3268   0.757   2.965   0.413
 1021HOH     H2 3269   0.679   2.853   0.347
 1022HOH      O 3270   0.528   1.684   2.875
 1022HOH     H1 3271   0.438   1.712   2.891
 1022HOH     H2 3272   0.523   1.589   2.873
 1023HOH      O 3273   0.727   0.924   2.193
 1023HOH     H1 3274   0.741   0.836   2.160
 1023HOH     H2 3275   0.649   0.918   2.247
 1024HOH      O 3276   3.147   0.363   3.469
 1024HOH     H1 3277   3.086   0.313   3.415
 1024HOH     H2 3278   3.126   0.338   3.559
 1025HOH      O 3279   2.769   2.879   0.716
 1025HOH     H1 3280   2.842   2.817   0.720
 1025HOH     H2 3281   2.809   2.964   0.734
 1026HOH      O 3282   3.597   3.736   3.970
 1026HOH     H1 3283   3.635   3.718   4.056
 1026HOH     H2 3284   3.601   3.832   3.962
 1027HOH      O 3285   2.409   1.662   0.232
 1027HOH     H1 3286   2.484   1.606   0.213
 1027HOH     H2 3287   2.372   1.627   0.312
 1028HOH      O 3288   1.230   2.106   3.537
 1028HOH     H1 3289   1.173   2.090   3.461
 1028HOH     H2 3290   1.318   2.091   3.504
 1029HOH      O 3291   1.433   3.389   1.897
 1029HOH     H1 3292   1.411   3.453   1.965
 1029HOH     H2 3293   1.528   3.395   1.889
 1030HOH      O 3294   0.746   3.853   3.797
 1030HOH     H1 3295   0.773   3.774   3.750
 1030HOH     H2 3296   0.653   3.838   3.816
 1031HOH      O 3297   3.710   3.543   3.515
 1031HOH     H1 3298   3.800   3.515   3.499
 1031HOH     H2 3299   3.676   3.479   3.578
 1032HOH      O 3300   2.118   1.839   2.922
 1032HOH     H1 3301   2.088   1.905   2.859
 1032HOH     H2 3302   2.187   1.882   2.972
 1033HOH      O 3303   0.239   1.194   3.613
 1033HOH     H1 3304   0.145   1.178   3.621
 1033HOH     H2 3305   0.265   1.225   3.700
 1034HOH      O 3306   1.919   1.980   1.278
 1034HOH     H1 3307   1.934   2.067   1.240
 1034HOH     H2 3308   1.966   1.982   1.361
 1035HOH      O 3309   0.678   0.495   1.539
 1035HOH     H1 3310   0.727   0.432   1.590
 1035HOH     H2 3311   0.721   0.496   1.454
 1036HOH      O 3312   2.870   1.715   3.617
 1036HOH     H1 3313   2.956   1.757   3.622
 1036HOH     H2 3314   2.871   1.650   3.686
 1037HOH      O 3315   0.606   3.617   0.137
 1037HOH     H1 3316   0.523   3.585   0.100
 1037HOH     H2 3317   0.592   3.711   0.148
 1038HOH      O 3318   0.797   3.142   2.359
 1038HOH     H1 3319   0.839   3.195   2.292
 1038HOH     H2 3320   0.727   3.096   2.313
 1039HOH      O 3321   2.394   3.563   2.111
 1039HOH     H1 3322   2.302   3.577   2.134
 1039HOH     H2 3323   2.421   3.487   2.162
 1040HOH      O 3324   1.889   3.766   2.853
 1040HOH     H1 3325   1.957   3.813   2.900
 1040HOH     H2 3326   1.917   3.768   2.761
 1041HOH      O 3327   0.895   1.678   3.764
 1041HOH     H1 3328   0.926   1.765   3.739
 1041HOH     H2 3329   0.961   1.619   3.729
 1042HOH      O 3330   0.018   2.765   3.236
 1042HOH     H1 3331   0.048   2.753   3.326
 1042HOH     H2 3332   0.035   2.858   3.218
 1043HOH      O 3333   2.541   0.656   2.352
 1043HOH     H1 3334   2.456   0.677   2.391
 1043HOH     H2 3335   2.520   0.623   2.265
 1044HOH      O 3336   2.054   4.020   2.891
 1044HOH     H1 3337   2.109   3.950   2.857
 1044HOH     H2 3338   2.000   4.047   2.817
 1045HOH      O 3339   0.998   0.180   1.118
 1045HOH     H1 3340   1.065   0.247   1.104
 1045HOH     H2 3341   0.992   0.133   1.035
 1046HOH      O 3342   1.724   2.569   2.872
 1046HOH     H1 3343   1.698   2.476   2.870
 1046HOH     H2 3344   1.674   2.606   2.945
 1047HOH      O 3345   2.762   0.569   2.648
 1047HOH     H1 3346   2.781   0.562   2.554
 1047HOH     H2 3347   2.752   0.663   2.663
 1048HOH      O 3348   0.393   0.158   0.509
 1048HOH     H1 3349   0.325   0.224   0.495
 1048HOH     H2 3350   0.346   0.074   0.501
 1049HOH      O 3351   2.277   0.231   1.074
 1049HOH     H1 3352   2.315   0.272   1.152
 1049HOH     H2 3353   2.205   0.179   1.108
 1050HOH      O 3354   1.225   0.498   3.548
 1050HOH     H1 3355   1.248   0.433   3.482
 1050HOH     H2 3356   1.229   0.582   3.502
 1051HOH      O 3357   3.452   2.672   2.562
 1051HOH     H1 3358   3.367   2.637   2.588
 1051HOH     H2 3359   3.515   2.624   2.617
 1052HOH      O 3360   1.118   3.681   1.214
 1052HOH     H1 3361   1.095   3.657   1.304
 1052HOH     H2 3362   1.158   3.768   1.222
 1053HOH      O 3363   1.240   3.005   3.602
 1053HOH     H1 3364   1.334   2.986   3.609
 1053HOH     H2 3365   1.231   3.047   3.516
 1054HOH      O 3366   3.749   0.382   3.764
 1054HOH     H1 3367   3.737   0.367   3.858
 1054HOH     H2 3368   3.665   0.417   3.734
 1055HOH      O 3369   2.062   2.884   3.999
 1055HOH     H1 3370   2.085   2.884   3.907
 1055HOH     H2 3371   2.127   2.827   4.040
 1056HOH      O 3372   2.630   0.806   0.906
 1056HOH     H1 3373   2.712   0.798   0.954
 1056HOH     H2 3374   2.616   0.901   0.899
 1057HOH      O 3375   2.475   4.027   0.572
 1057HOH     H1 3376   2.496   3.988   0.487
 1057HOH     H2 3377   2.557   4.021   0.621
 1058HOH      O 3378   2.177   2.189   1.052
 1058HOH     H1 3379   2.150   2.104   1.018
 1058HOH     H2 3380   2.257   2.210   1.005
 1059HOH      O 3381   3.175   4.008   1.967
 1059HOH     H1 3382   3.088   4.042   1.986
 1059HOH     H2 3383   3.163   3.957   1.887
 1060HOH      O 3384   0.818   2.882   3.971
 1060HOH     H1 3385   0.824   2.977   3.970
 1060HOH     H2 3386   0.907   2.852   3.989
 1061HOH      O 3387   3.077   3.251   2.318
 1061HOH     H1 3388   3.156   3.222   2.364
 1061HOH     H2 3389   3.007   3.201   2.359
 1062HOH      O 3390   0.068   3.430   2.696
 1062HOH     H1 3391   0.014   3.360   2.661
 1062HOH     H2 3392   0.102   3.475   2.619
 1063HOH      O 3393   0.840   1.173   2.178
 1063HOH     H1 3394   0.899   1.164   2.252
 1063HOH     H2 3395   0.782   1.096   2.184
 1064HOH      O 3396   1.744   3.270   0.077
 1064HOH     H1 3397   1.759   3.294  -0.015
 1064HOH     H2 3398   1.762   3.176   0.080
 1065HOH      O 3399   1.841   1.556   2.286
 1065HOH     H1 3400   1.779   1.548   2.359
 1065HOH     H2 3401   1.918   1.597   2.325
 1066HOH      O 3402   3.918   1.426   0.812
 1066HOH     H1 3403   3.844   1.365   0.815
 1066HOH     H2 3404   3.994   1.370   0.797
 1067HOH      O 3405   0.937   3.847   2.036
 1067HOH     H1 3406   0.848   3.813   2.046
 1067HOH     H2 3407   0.926   3.941   2.020
 1068HOH      O 3408   2.366   2.614   1.246
 1068HOH     H1 3409   2.427   2.687   1.240
 1068HOH     H2 3410   2.418   2.541   1.280
 1069HOH      O 3411   1.607   1.267   3.546
 1069HOH     H1 3412   1.623   1.179   3.579
 1069HOH     H2 3413   1.534   1.257   3.484
 1070HOH      O 3414   3.450   3.985   3.749
 1070HOH     H1 3415   3.424   3.913   3.806
 1070HOH     H2 3416   3.546   3.983   3.751
 1071HOH      O 3417   0.483   3.439   2.268
 1071HOH     H1 3418   0.453   3.470   2.354
 1071HOH     H2 3419   0.481   3.344   2.275
 1072HOH      O 3420   1.937   3.035   1.958
 1072HOH     H1 3421   1.988   2.979   1.899
 1072HOH     H2 3422   1.866   2.980   1.988
 1073HOH      O 3423   3.037   0.747   2.009
 1073HOH     H1 3424   3.056   0.838   2.033
 1073HOH     H2 3425   2.963   0.753   1.948
 1074HOH      O 3426   0.808   2.359   3.580
 1074HOH     H1 3427   0.812   2.318   3.667
 1074HOH     H2 3428   0.845   2.293   3.521
 1075HOH      O 3429   0.545   1.505   3.773
 1075HOH     H1 3430   0.626   1.463   3.746
 1075HOH     H2 3431   0.476   1.454   3.730
 1076HOH      O 3432   3.707   1.733   1.527
 1076HOH     H1 3433   3.618   1.755   1.554
 1076HOH     H2 3434   3.703   1.640   1.506
 1077HOH      O 3435   1.111   0.550   1.839
 1077HOH     H1 3436   1.076   0.633   1.807
 1077HOH     H2 3437   1.204   0.554   1.821
 1078HOH      O 3438   0.091   0.995   1.902
 1078HOH     H1 3439   0.158   1.035   1.957
 1078HOH     H2 3440   0.108   0.901   1.907
 1079HOH      O 3441   3.064   2.013   3.081
 1079HOH     H1 3442   3.120   1.962   3.023
 1079HOH     H2 3443   2.976   2.004   3.044
 1080HOH      O 3444   3.003   1.441   3.535
 1080HOH     H1 3445   2.954   1.361   3.516
 1080HOH     H2 3446   2.940   1.498   3.579
 1081HOH      O 3447   2.538   2.896   2.242
 1081HOH     H1 3448   2.453   2.906   2.198
 1081HOH     H2 3449   2.601   2.932   2.181
 1082HOH      O 3450   3.861   2.680   1.391
 1082HOH     H1 3451   3.864   2.751   1.326
 1082HOH     H2 3452   3.862   2.724   1.475
 1083HOH      O 3453   0.499   3.922   3.626
 1083HOH     H1 3454   0.485   3.855   3.693
 1083HOH     H2 3455   0.451   3.999   3.659
 1084HOH      O 3456   0.543   2.241   3.282
 1084HOH     H1 3457   0.492   2.209   3.207
 1084HOH     H2 3458   0.517   2.332   3.291
 1085HOH      O 3459   3.109   3.192   0.491
 1085HOH     H1 3460   3.073   3.117   0.444
 1085HOH     H2 3461   3.196   3.163   0.520
 1086HOH      O 3462   3.337   2.547   0.406
 1086HOH     H1 3463   3.386   2.544   0.324
 1086HOH     H2 3464   3.394   2.503   0.470
 1087HOH      O 3465   3.544   1.344   0.986
 1087HOH     H1 3466   3.478   1.388   1.041
 1087HOH     H2 3467   3.567   1.409   0.920
 1088HOH      O 3468   3.532   0.454   2.371
 1088HOH     H1 3469   3.565   0.504   2.297
 1088HOH     H2 3470   3.456   0.406   2.337
 1089HOH      O 3471   3.811   2.766   3.121
 1089HOH     H1 3472   3.892   2.769   3.173
 1089HOH     H2 3473   3.774   2.680   3.141
 1090HOH      O 3474   0.794   2.962   2.094
 1090HOH     H1 3475   0.849   2.919   2.029
 1090HOH     H2 3476   0.842   2.952   2.177
 1091HOH      O 3477   0.318  -0.014   3.961
 1091HOH     H1 3478   0.403  -0.009   3.919
 1091HOH     H2 3479   0.299   0.076   3.989
 1092HOH      O 3480   1.049   0.827   2.881
 1092HOH     H1 3481   1.141   0.831   2.908
 1092HOH     H2 3482   1.000   0.856   2.958
 1093HOH      O 3483   3.896   3.160   3.913
 1093HOH     H1 3484   3.927   3.078   3.949
 1093HOH     H2 3485   3.924   3.158   3.821
 1094HOH      O 3486   0.015   0.596   1.622
 1094HOH     H1 3487   0.082   0.610   1.689
 1094HOH     H2 3488  -0.066   0.630   1.661
 1095HOH      O 3489   3.951   2.446   0.504
 1095HOH     H1 3490   4.009   2.477   0.434
 1095HOH     H2 3491   3.992   2.476   0.585
 1096HOH      O 3492   3.085   1.789   0.569
 1096HOH     H1 3493   3.104   1.850   0.498
 1096HOH     H2 3494   3.023   1.836   0.626
 1097HOH      O 3495   1.012   2.932   2.452
 1097HOH     H1 3496   0.968   2.853   2.483
 1097HOH     H2 3497   0.944   2.999   2.453
 1098HOH      O 3498   0.542   3.798   1.354
 1098HOH     H1 3499   0.466   3.793   1.297
 1098HOH     H2 3500   0.599   3.862   1.312
 1099HOH      O 3501   1.824   0.495   0.325
 1099HOH     H1 3502   1.738   0.486   0.365
 1099HOH     H2 3503   1.874   0.546   0.389
 1100HOH      O 3504   0.975   2.786   0.537
 1100HOH     H1 3505   0.977   2.870   0.583
 1100HOH     H2 3506   0.886   2.780   0.503
 1101HOH      O 3507   2.744   1.129   3.863
 1101HOH     H1 3508   2.769   1.175   3.943
 1101HOH     H2 3509   2.755   1.195   3.794
 1102HOH      O 3510   1.613   0.863   0.273
 1102HOH     H1 3511   1.559   0.891   0.198
 1102HOH     H2 3512   1.703   0.867   0.241
 1103HOH      O 3513   3.640   3.851   3.151
 1103HOH     H1 3514   3.621   3.772   3.201
 1103HOH     H2 3515   3.671   3.819   3.066
 1104HOH      O 3516   0.710   2.632   1.002
 1104HOH     H1 3517   0.722   2.718   0.961
 1104HOH     H2 3518   0.759   2.638   1.084
 1105HOH      O 3519   3.277   0.701   1.069
 1105HOH     H1 3520   3.296   0.697   1.163
 1105HOH     H2 3521   3.218   0.775   1.059
 1106HOH      O 3522   2.086   2.951   2.610
 1106HOH     H1 3523   1.996   2.939   2.580
 1106HOH     H2 3524   2.130   2.996   2.538
 1107HOH      O 3525   3.273   2.845   0.252
 1107HOH     H1 3526   3.268   2.929   0.207
 1107HOH     H2 3527   3.278   2.780   0.182
 1108HOH      O 3528   1.737   1.476   0.191
 1108HOH     H1 3529   1.785   1.505   0.113
 1108HOH     H2 3530   1.800   1.423   0.240
 1109HOH      O 3531   1.288   3.098   3.358
 1109HOH     H1 3532   1.256   3.180   3.396
 1109HOH     H2 3533   1.329   3.123   3.276
 1110HOH      O 3534   0.676   0.265   2.130
 1110HOH     H1 3535   0.665   0.306   2.045
 1110HOH     H2 3536   0.613   0.193   2.130
 1111HOH      O 3537   0.799   2.118   0.297
 1111HOH     H1 3538   0.845   2.202   0.297
 1111HOH     H2 3539   0.747   2.120   0.378
 1112HOH      O 3540   1.647   2.333   1.123
 1112HOH     H1 3541   1.730   2.293   1.147
 1112HOH     H2 3542   1.660   2.426   1.139
 1113HOH      O 3543   0.035   0.493   3.534
 1113HOH     H1 3544  -0.060   0.498   3.523
 1113HOH     H2 3545   0.068   0.572   3.490
 1114HOH      O 3546   3.582   0.751   2.466
 1114HOH     H1 3547   3.520   0.692   2.424
 1114HOH     H2 3548   3.598   0.819   2.400
 1115HOH      O 3549   2.787   1.097   2.852
 1115HOH     H1 3550   2.877   1.115   2.880
 1115HOH     H2 3551   2.769   1.164   2.786
 1116HOH      O 3552   3.066   0.897   3.450
 1116HOH     H1 3553   3.017   0.844   3.513
 1116HOH     H2 3554   3.099   0.834   3.386
 1117HOH      O 3555   1.692   0.148   0.279
 1117HOH     H1 3556   1.725   0.084   0.215
 1117HOH     H2 3557   1.760   0.151   0.346
 1118HOH      O 3558   1.569   0.192   2.395
 1118HOH     H1 3559   1.481   0.226   2.413
 1118HOH     H2 3560   1.557   0.133   2.321
 1119HOH      O 3561   1.040   2.361   3.385
 1119HOH     H1 3562   1.024   2.277   3.341
 1119HOH     H2 3563   0.968   2.417   3.356
 1120HOH      O 3564   2.943   0.332   0.317
 1120HOH     H1 3565   2.905   0.412   0.352
 1120HOH     H2 3566   3.018   0.362   0.264
 1121HOH      O 3567   2.829   1.867   2.243
 1121HOH     H1 3568   2.894   1.871   2.172
 1121HOH     H2 3569   2.866   1.805   2.305
 1122HOH      O 3570   2.874   2.746   3.046
 1122HOH     H1 3571   2.788   2.765   3.008
 1122HOH     H2 3572   2.937   2.773   2.980
 1123HOH      O 3573   3.537   3.653   1.713
 1123HOH     H1 3574   3.546   3.747   1.702
 1123HOH     H2 3575   3.459   3.642   1.767
 1124HOH      O 3576   2.101   3.735   0.026
 1124HOH     H1 3577   2.109   3.782   0.109
 1124HOH     H2 3578   2.007   3.719   0.016
 1125HOH      O 3579   3.965   1.642   0.256
 1125HOH     H1 3580   3.881   1.687   0.257
 1125HOH     H2 3581   4.030   1.712   0.246
 1126HOH      O 3582   2.560   2.795   1.203
 1126HOH     H1 3583   2.522   2.882   1.219
 1126HOH     H2 3584   2.565   2.788   1.108
 1127HOH      O 3585   2.154   3.121   0.151
 1127HOH     H1 3586   2.212   3.052   0.182
 1127HOH     H2 3587   2.066   3.086   0.164
 1128HOH      O 3588   3.454   3.921   1.827
 1128HOH     H1 3589   3.483   3.956   1.911
 1128HOH     H2 3590   3.469   3.993   1.765
 1129HOH      O 3591   0.715   0.096   3.753
 1129HOH     H1 3592   0.678   0.128   3.835
 1129HOH     H2 3593   0.711   0.001   3.761
 1130HOH      O 3594   2.491   2.094   0.073
 1130HOH     H1 3595   2.402   2.065   0.096
 1130HOH     H2 3596   2.531   2.016   0.035
 1131HOH      O 3597   0.538   2.964   2.549
 1131HOH     H1 3598   0.476   2.990   2.618
 1131HOH     H2 3599   0.621   2.951   2.595
 1132HOH      O 3600   1.169   2.039   0.599
 1132HOH     H1 3601   1.079   2.069   0.615
 1132HOH     H2 3602   1.224   2.110   0.631
 1133HOH      O 3603   0.129   0.301   0.471
 1133HOH     H1 3604   0.093   0.307   0.383
 1133HOH     H2 3605   0.087   0.372   0.519
 1134HOH      O 3606   0.045   1.216   0.687
 1134HOH     H1 3607   0.084   1.302   0.699
 1134HOH     H2 3608   0.120   1.157   0.676
 1135HOH      O 3609   0.758   1.847   1.116
 1135HOH     H1 3610   0.810   1.915   1.157
 1135HOH     H2 3611   0.694   1.821   1.183
 1136HOH      O 3612   0.575   2.205   0.444
 1136HOH     H1 3613   0.487   2.173   0.427
 1136HOH     H2 3614   0.587   2.195   0.538
 1137HOH      O 3615   1.271   1.928   0.370
 1137HOH     H1 3616   1.181   1.911   0.342
 1137HOH     H2 3617   1.263   1.955   0.462
 1138HOH      O 3618   1.260   1.110   0.509
 1138HOH     H1 3619   1.215   1.099   0.426
 1138HOH     H2 3620   1.344   1.065   0.497
 1139HOH      O 3621   2.992   1.420   0.466
 1139HOH     H1 3622   2.955   1.334   0.484
 1139HOH     H2 3623   3.054   1.436   0.537
 1140HOH      O 3624   0.201   0.046   1.819
 1140HOH     H1 3625   0.194  -0.016   1.892
 1140HOH     H2 3626   0.111   0.070   1.800
 1141HOH      O 3627   4.040   2.037   1.211
 1141HOH     H1 3628   3.999   1.962   1.253
 1141HOH     H2 3629   3.968   2.098   1.194
 1142HOH      O 3630   2.697   3.434   0.473
 1142HOH     H1 3631   2.602   3.427   0.469
 1142HOH     H2 3632   2.721   3.398   0.558
 1143HOH      O 3633   3.476   0.845   0.460
 1143HOH     H1 3634   3.445   0.914   0.401
 1143HOH     H2 3635   3.397   0.794   0.481
 1144HOH      O 3636   2.945   4.038   0.012
 1144HOH     H1 3637   3.010   4.074   0.072
 1144HOH     H2 3638   2.996   3.992  -0.054
 1145HOH      O 3639   3.406   0.661   3.855
 1145HOH     H1 3640   3.397   0.622   3.942
 1145HOH     H2 3641   3.479   0.613   3.815
 1146HOH      O 3642   3.978   2.545   1.792
 1146HOH     H1 3643   3.910   2.507   1.848
 1146HOH     H2 3644   3.947   2.633   1.772
 1147HOH      O 3645   0.517   2.720   2.393
 1147HOH     H1 3646   0.478   2.657   2.453
 1147HOH     H2 3647   0.543   2.793   2.448
 1148HOH      O 3648   0.435   1.451   0.862
 1148HOH     H1 3649   0.510   1.477   0.915
 1148HOH     H2 3650   0.419   1.360   0.887
 1149HOH      O 3651   2.760   1.064   3.125
 1149HOH     H1 3652   2.772   1.158   3.138
 1149HOH     H2 3653   2.759   1.052   3.030
 1150HOH      O 3654   1.476   2.105   3.410
 1150HOH     H1 3655   1.485   2.184   3.357
 1150HOH     H2 3656   1.565   2.083   3.436
 1151HOH      O 3657   2.391   3.736   0.409
 1151HOH     H1 3658   2.486   3.739   0.404
 1151HOH     H2 3659   2.372   3.654   0.453
 1152HOH      O 3660   1.394   1.925   0.084
 1152HOH     H1 3661   1.317   1.946   0.030
 1152HOH     H2 3662   1.363   1.930   0.174
 1153HOH      O 3663   0.677   2.837   1.748
 1153HOH     H1 3664   0.726   2.794   1.679
 1153HOH     H2 3665   0.712   2.925   1.752
 1154HOH      O 3666   3.952   0.337   1.626
 1154HOH     H1 3667   4.020   0.395   1.658
 1154HOH     H2 3668   3.899   0.392   1.568
 1155HOH      O 3669   2.084   1.586   2.866
 1155HOH     H1 3670   2.053   1.573   2.777
 1155HOH     H2 3671   2.093   1.681   2.874
 1156HOH      O 3672   3.601   1.135   2.487
 1156HOH     H1 3673   3.617   1.212   2.432
 1156HOH     H2 3674   3.510   1.143   2.514
 1157HOH      O 3675   3.707   0.744   3.208
 1157HOH     H1 3676   3.654   0.780   3.137
 1157HOH     H2 3677   3.693   0.650   3.203
 1158HOH      O 3678   3.602   3.066   0.772
 1158HOH     H1 3679   3.573   3.008   0.842
 1158HOH     H2 3680   3.683   3.027   0.741
 1159HOH      O 3681   0.915   0.072   2.014
 1159HOH     H1 3682   0.925   0.158   1.973
 1159HOH     H2 3683   0.946   0.084   2.103
 1160HOH      O 3684   1.392   2.731   1.906
 1160HOH     H1 3685   1.360   2.733   1.996
 1160HOH     H2 3686   1.426   2.642   1.895
 1161HOH      O 3687   3.376   2.400   2.906
 1161HOH     H1 3688   3.382   2.486   2.949
 1161HOH     H2 3689   3.340   2.342   2.973
 1162HOH      O 3690   2.584   3.946   1.493
 1162HOH     H1 3691   2.551   4.000   1.422
 1162HOH     H2 3692   2.532   3.972   1.569
 1163HOH      O 3693   3.030   0.732   0.311
 1163HOH     H1 3694   3.071   0.653   0.347
 1163HOH     H2 3695   2.963   0.699   0.251
 1164HOH      O 3696   1.108   0.709   1.160
 1164HOH     H1 3697   1.025   0.744   1.128
 1164HOH     H2 3698   1.152   0.784   1.200
 1165HOH      O 3699   1.195   2.525   3.540
 1165HOH     H1 3700   1.113   2.476   3.535
 1165HOH     H2 3701   1.201   2.570   3.456
 1166HOH      O 3702   1.984   1.119   3.393
 1166HOH     H1 3703   1.923   1.045   3.392
 1166HOH     H2 3704   1.971   1.163   3.309
 1167HOH      O 3705   0.296   3.167   3.576
 1167HOH     H1 3706   0.326   3.247   3.533
 1167HOH     H2 3707   0.370   3.107   3.571
 1168HOH      O 3708   2.519   0.426   3.386
 1168HOH     H1 3709   2.601   0.376   3.383
 1168HOH     H2 3710   2.541   0.510   3.346
 1169HOH      O 3711   3.373   3.647   2.854
 1169HOH     H1 3712   3.339   3.723   2.807
 1169HOH     H2 3713   3.385   3.677   2.944
 1170HOH      O 3714   0.100   3.989   0.305
 1170HOH     H1 3715   0.129   3.904   0.272
 1170HOH     H2 3716   0.172   4.019   0.360
 1171HOH      O 3717   2.189   4.001   3.717
 1171HOH     H1 3718   2.183   3.931   3.653
 1171HOH     H2 3719   2.276   4.038   3.704
 1172HOH      O 3720   1.075   3.622   1.467
 1172HOH     H1 3721   1.066   3.533   1.435
 1172HOH     H2 3722   0.986   3.650   1.485
 1173HOH      O 3723   1.601   1.083   1.909
 1173HOH     H1 3724   1.639   1.148   1.967
 1173HOH     H2 3725   1.519   1.122   1.879
 1174HOH      O 3726   0.805   2.408   3.257
 1174HOH     H1 3727   0.761   2.407   3.342
 1174HOH     H2 3728   0.771   2.486   3.213
 1175HOH      O 3729   2.791   3.372   0.746
 1175HOH     H1 3730   2.870   3.406   0.789
 1175HOH     H2 3731   2.719   3.404   0.800
 1176HOH      O 3732   0.850   1.140   0.541
 1176HOH     H1 3733   0.919   1.177   0.485
 1176HOH     H2 3734   0.769   1.157   0.493
 1177HOH      O 3735   0.564   2.111   3.903
 1177HOH     H1 3736   0.618   2.036   3.928
 1177HOH     H2 3737   0.484   2.072   3.868
 1178HOH      O 3738   3.339   3.851   4.009
 1178HOH     H1 3739   3.280   3.815   4.076
 1178HOH     H2 3740   3.416   3.794   4.012
 1179HOH      O 3741   1.867   3.279   2.718
 1179HOH     H1 3742   1.947   3.318   2.684
 1179HOH     H2 3743   1.802   3.294   2.650
 1180HOH      O 3744   0.105   2.926   2.093
 1180HOH     H1 3745   0.115   2.943   2.000
 1180HOH     H2 3746   0.063   2.840   2.097
 1181HOH      O 3747   1.044   1.299   0.401
 1181HOH     H1 3748   1.094   1.275   0.479
 1181HOH     H2 3749   1.085   1.380   0.371
 1182HOH      O 3750   1.935   1.925   3.688
 1182HOH     H1 3751   1.992   1.852   3.662
 1182HOH     H2 3752   1.856   1.882   3.721
 1183HOH      O 3753   1.955   1.445   0.718
 1183HOH     H1 3754   1.922   1.452   0.808
 1183HOH     H2 3755   1.999   1.360   0.716
 1184HOH      O 3756   0.651   0.498   3.635
 1184HOH     H1 3757   0.734   0.544   3.623
 1184HOH     H2 3758   0.590   0.565   3.666
 1185HOH      O 3759   3.361   3.157   0.584
 1185HOH     H1 3760   3.371   3.071   0.543
 1185HOH     H2 3761   3.433   3.161   0.647
 1186HOH      O 3762   2.945   3.211   3.347
 1186HOH     H1 3763   2.952   3.248   3.435
 1186HOH     H2 3764   3.035   3.210   3.314
 1187HOH      O 3765   3.026   1.351   0.801
 1187HOH     H1 3766   3.096   1.416   0.803
 1187HOH     H2 3767   2.952   1.396   0.843
 1188HOH      O 3768   1.868   1.639   0.573
 1188HOH     H1 3769   1.788   1.596   0.542
 1188HOH     H2 3770   1.925   1.568   0.600
 1189HOH      O 3771   0.736   2.919   2.741
 1189HOH     H1 3772   0.818   2.966   2.728
 1189HOH     H2 3773   0.752   2.864   2.817
 1190HOH      O 3774   2.856   3.457   3.810
 1190HOH     H1 3775   2.772   3.412   3.805
 1190HOH     H2 3776   2.881   3.451   3.902
 1191HOH      O 3777   0.797   0.014   2.760
 1191HOH     H1 3778   0.744  -0.008   2.836
 1191HOH     H2 3779   0.742   0.071   2.707
 1192HOH      O 3780   2.590   0.130   2.541
 1192HOH     H1 3781   2.600   0.214   2.495
 1192HOH     H2 3782   2.552   0.072   2.475
 1193HOH      O 3783   3.127   1.408   0.235
 1193HOH     H1 3784   3.176   1.325   0.232
 1193HOH     H2 3785   3.067   1.397   0.309
 1194HOH      O 3786   0.642   1.539   1.085
 1194HOH     H1 3787   0.730   1.503   1.100
 1194HOH     H2 3788   0.626   1.596   1.160
 1195HOH      O 3789   3.504   2.903   2.774
 1195HOH     H1 3790   3.493   2.995   2.754
 1195HOH     H2 3791   3.430   2.860   2.731
 1196HOH      O 3792   3.627   1.663   3.978
 1196HOH     H1 3793   3.591   1.575   3.965
 1196HOH     H2 3794   3.552   1.715   4.005
 1197HOH      O 3795   0.686   3.123   0.868
 1197HOH     H1 3796   0.770   3.166   0.853
 1197HOH     H2 3797   0.654   3.159   0.951
 1198HOH      O 3798   3.965   2.316   1.593
 1198HOH     H1 3799   3.929   2.345   1.509
 1198HOH     H2 3800   3.960   2.393   1.649
 1199HOH      O 3801   0.307   3.588   1.434
 1199HOH     H1 3802   0.227   3.619   1.475
 1199HOH     H2 3803   0.376   3.605   1.499
 1200HOH      O 3804   3.103   3.715   2.549
 1200HOH     H1 3805   3.029   3.750   2.499
 1200HOH     H2 3806   3.067   3.701   2.637
 1201HOH      O 3807   2.449   2.543   3.923
 1201HOH     H1 3808   2.477   2.555   3.832
 1201HOH     H2 3809   2.528   2.560   3.975
 1202HOH      O 3810   2.897   3.006  -0.005
 1202HOH     H1 3811   2.873   2.981   0.084
 1202HOH     H2 3812   2.842   3.082  -0.024
 1203HOH      O 3813   2.333   0.655   3.999
 1203HOH     H1 3814   2.239   0.636   3.991
 1203HOH     H2 3815   2.337   0.730   4.059
 1204HOH      O 3816   0.210   1.708   0.260
 1204HOH     H1 3817   0.185   1.781   0.317
 1204HOH     H2 3818   0.269   1.748   0.196
 1205HOH      O 3819   1.084   3.634   1.781
 1205HOH     H1 3820   0.993   3.652   1.760
 1205HOH     H2 3821   1.133   3.707   1.742
 1206HOH      O 3822   0.413   1.199   1.849
 1206HOH     H1 3823   0.402   1.124   1.789
 1206HOH     H2 3824   0.370   1.170   1.930
 1207HOH      O 3825   1.570   2.748   0.397
 1207HOH     H1 3826   1.546   2.814   0.332
 1207HOH     H2 3827   1.662   2.729   0.380
 1208HOH      O 3828   1.919   0.453   3.540
 1208HOH     H1 3829   1.832   0.431   3.573
 1208HOH     H2 3830   1.978   0.433   3.612
 1209HOH      O 3831   2.666   1.937   3.167
 1209HOH     H1 3832   2.620   1.946   3.250
 1209HOH     H2 3833   2.751   1.898   3.191
 1210HOH      O 3834   3.860   3.876   0.037
 1210HOH     H1 3835   3.830   3.888   0.127
 1210HOH     H2 3836   3.944   3.922   0.033
 1211HOH      O 3837   1.326   0.649   1.494
 1211HOH     H1 3838   1.234   0.649   1.469
 1211HOH     H2 3839   1.366   0.716   1.439
 1212HOH      O 3840   2.729   2.470   1.456
 1212HOH     H1 3841   2.762   2.411   1.523
 1212HOH     H2 3842   2.808   2.502   1.412
 1213HOH      O 3843   2.275   3.115   3.522
 1213HOH     H1 3844   2.205   3.147   3.466
 1213HOH     H2 3845   2.318   3.194   3.554
 1214HOH      O 3846   1.280   3.116   2.034
 1214HOH     H1 3847   1.252   3.157   1.952
 1214HOH     H2 3848   1.214   3.049   2.052
 1215HOH      O 3849   0.112   2.884   3.712
 1215HOH     H1 3850   0.156   2.968   3.705
 1215HOH     H2 3851   0.035   2.901   3.765
 1216HOH      O 3852   2.038   0.365   2.336
 1216HOH     H1 3853   1.944   0.347   2.332
 1216HOH     H2 3854   2.046   0.433   2.403
 1217HOH      O 3855   2.423   3.946   2.628
 1217HOH     H1 3856   2.372   3.923   2.550
 1217HOH     H2 3857   2.432   4.041   2.624
 1218HOH      O 3858   3.850   4.045   0.297
 1218HOH     H1 3859   3.821   4.006   0.380
 1218HOH     H2 3860   3.943   4.026   0.293
 1219HOH      O 3861   3.498   3.234   1.556
 1219HOH     H1 3862   3.424   3.181   1.584
 1219HOH     H2 3863   3.565   3.171   1.530
 1220HOH      O 3864   1.760   0.912   3.428
 1220HOH     H1 3865   1.728   0.906   3.338
 1220HOH     H2 3866   1.812   0.833   3.440
 1221HOH      O 3867   2.168   3.610   2.286
 1221HOH     H1 3868   2.161   3.514   2.288
 1221HOH     H2 3869   2.090   3.638   2.237
 1222HOH      O 3870   0.397   3.501   2.519
 1222HOH     H1 3871   0.371   3.474   2.607
 1222HOH     H2 3872   0.450   3.579   2.532
 1223HOH      O 3873   1.341   1.676   1.805
 1223HOH     H1 3874   1.264   1.713   1.850
 1223HOH     H2 3875   1.340   1.583   1.829
 1224HOH      O 3876   2.650   1.331   3.712
 1224HOH     H1 3877   2.578   1.268   3.704
 1224HOH     H2 3878   2.678   1.348   3.622
 1225HOH      O 3879   2.151   0.275   3.612
 1225HOH     H1 3880   2.149   0.342   3.544
 1225HOH     H2 3881   2.232   0.228   3.597
 1226HOH      O 3882   0.545   1.618   1.901
 1226HOH     H1 3883   0.574   1.680   1.968
 1226HOH     H2 3884   0.508   1.673   1.832
 1227HOH      O 3885   2.747   3.723   1.308
 1227HOH     H1 3886   2.690   3.799   1.320
 1227HOH     H2 3887   2.833   3.760   1.288
 1228HOH      O 3888   2.748   0.758   0.659
 1228HOH     H1 3889   2.802   0.727   0.731
 1228HOH     H2 3890   2.661   0.769   0.697
 1229HOH      O 3891   0.088   0.925   3.325
 1229HOH     H1 3892   0.046   0.840   3.339
 1229HOH     H2 3893   0.031   0.970   3.263
 1230HOH      O 3894   3.636   2.158   1.377
 1230HOH     H1 3895   3.665   2.166   1.286
 1230HOH     H2 3896   3.550   2.200   1.378
 1231HOH      O 3897   0.500   2.318   3.683
 1231HOH     H1 3898   0.557   2.387   3.650
 1231HOH     H2 3899   0.558   2.263   3.736
 1232HOH      O 3900   1.022   2.073   3.329
 1232HOH     H1 3901   0.929   2.088   3.308
 1232HOH     H2 3902   1.061   2.046   3.246
 1233HOH      O 3903   3.124   3.675   1.275
 1233HOH     H1 3904   3.080   3.615   1.335
 1233HOH     H2 3905   3.203   3.702   1.321
 1234HOH      O 3906   1.499   0.854   1.403
 1234HOH     H1 3907   1.546   0.846   1.486
 1234HOH     H2 3908   1.537   0.931   1.361
 1235HOH      O 3909   1.467   3.221   3.601
 1235HOH     H1 3910   1.459   3.267   3.684
 1235HOH     H2 3911   1.546   3.167   3.611
 1236HOH      O 3912   2.883   0.071   0.561
 1236HOH     H1 3913   2.843   0.050   0.477
 1236HOH     H2 3914   2.822   0.037   0.626
 1237HOH      O 3915   1.196   0.947   3.644
 1237HOH     H1 3916   1.189   0.858   3.679
 1237HOH     H2 3917   1.259   0.990   3.703
 1238HOH      O 3918   0.156   2.480   3.908
 1238HOH     H1 3919   0.158   2.521   3.994
 1238HOH     H2 3920   0.065   2.487   3.880
 1239HOH      O 3921   0.744   0.042   1.610
 1239HOH     H1 3922   0.707  -0.032   1.659
 1239HOH     H2 3923   0.828   0.011   1.578
 1240HOH      O 3924   2.521   3.988   2.012
 1240HOH     H1 3925   2.593   4.005   1.951
 1240HOH     H2 3926   2.472   4.070   2.015
 1241HOH      O 3927   0.514   0.710   0.695
 1241HOH     H1 3928   0.578   0.715   0.766
 1241HOH     H2 3929   0.517   0.618   0.668
 1242HOH      O 3930   3.202   0.945   1.200
 1242HOH     H1 3931   3.209   1.028   1.153
 1242HOH     H2 3932   3.275   0.945   1.261
 1243HOH      O 3933   2.850   0.539   2.375
 1243HOH     H1 3934   2.811   0.624   2.355
 1243HOH     H2 3935   2.898   0.516   2.296
 1244HOH      O 3936   0.711   3.704   3.272
 1244HOH     H1 3937   0.619   3.689   3.295
 1244HOH     H2 3938   0.745   3.755   3.345
 1245HOH      O 3939   2.747   1.971   0.466
 1245HOH     H1 3940   2.684   1.904   0.440
 1245HOH     H2 3941   2.735   1.979   0.561
 1246HOH      O 3942   1.499   1.369   1.276
 1246HOH     H1 3943   1.434   1.371   1.347
 1246HOH     H2 3944   1.563   1.304   1.304
 1247HOH      O 3945   0.449   3.175   2.333
 1247HOH     H1 3946   0.479   3.155   2.422
 1247HOH     H2 3947   0.400   3.097   2.307
 1248HOH      O 3948  -0.022   2.301   3.420
 1248HOH     H1 3949  -0.001   2.233   3.484
 1248HOH     H2 3950   0.047   2.367   3.431
 1249HOH      O 3951   3.813   0.428   2.721
 1249HOH     H1 3952   3.738   0.396   2.671
 1249HOH     H2 3953   3.837   0.354   2.778
 1250HOH      O 3954   1.495   0.451   1.523
 1250HOH     H1 3955   1.573   0.475   1.473
 1250HOH     H2 3956   1.434   0.523   1.508
 1251HOH      O 3957   0.066   3.715   1.408
 1251HOH     H1 3958   0.058   3.747   1.497
 1251HOH     H2 3959   0.086   3.793   1.356
 1252HOH      O 3960   2.947   3.858   1.840
 1252HOH     H1 3961   2.924   3.801   1.914
 1252HOH     H2 3962   2.961   3.797   1.768
 1253HOH      O 3963   1.426   3.611   1.703
 1253HOH     H1 3964   1.398   3.533   1.751
 1253HOH     H2 3965   1.415   3.683   1.765
 1254HOH      O 3966   3.899   0.153   2.584
 1254HOH     H1 3967   3.965   0.222   2.593
 1254HOH     H2 3968   3.851   0.174   2.505
 1255HOH      O 3969   3.688   2.232   1.686
 1255HOH     H1 3970   3.661   2.323   1.697
 1255HOH     H2 3971   3.725   2.229   1.598
 1256HOH      O 3972   2.601   2.916   1.639
 1256HOH     H1 3973   2.577   2.824   1.625
 1256HOH     H2 3974   2.563   2.938   1.724
 1257HOH      O 3975   0.131   1.969   2.536
 1257HOH     H1 3976   0.149   1.905   2.606
 1257HOH     H2 3977   0.135   2.054   2.580
 1258HOH      O 3978   3.076   3.389   0.816
 1258HOH     H1 3979   3.068   3.325   0.887
 1258HOH     H2 3980   3.140   3.452   0.847
 1259HOH      O 3981   1.442   3.834   1.906
 1259HOH     H1 3982   1.370   3.896   1.897
 1259HOH     H2 3983   1.514   3.874   1.856
 1260HOH      O 3984   1.430  -0.014   1.625
 1260HOH     H1 3985   1.412   0.058   1.685
 1260HOH     H2 3986   1.470   0.027   1.548
 1261HOH      O 3987   0.581   1.393   1.734
 1261HOH     H1 3988   0.509   1.333   1.753
 1261HOH     H2 3989   0.563   1.470   1.787
 1262HOH      O 3990   0.472   0.640   1.622
 1262HOH     H1 3991   0.517   0.568   1.578
 1262HOH     H2 3992   0.441   0.696   1.551
 1263HOH      O 3993   0.399   3.797   1.812
 1263HOH     H1 3994   0.325   3.778   1.753
 1263HOH     H2 3995   0.366   3.775   1.899
 1264HOH      O 3996   2.948   0.624   3.670
 1264HOH     H1 3997   3.041   0.620   3.649
 1264HOH     H2 3998   2.906   0.639   3.585
 1265HOH      O 3999   1.669   3.659   1.998
 1265HOH     H1 4000   1.574   3.658   2.013
 1265HOH     H2 4001   1.682   3.731   1.936
 1266HOH      O 4002   1.277   2.750   0.337
 1266HOH     H1 4003   1.358   2.701   0.351
 1266HOH     H2 4004   1.287   2.828   0.391
 1267HOH      O 4005   0.971   3.060   3.279
 1267HOH     H1 4006   0.923   3.010   3.345
 1267HOH     H2 4007   1.021   3.124   3.329
 1268HOH      O 4008   1.411   1.384   1.014
 1268HOH     H1 4009   1.421   1.468   0.971
 1268HOH     H2 4010   1.460   1.393   1.096
 1269HOH      O 4011   2.127   3.415   0.542
 1269HOH     H1 4012   2.062   3.445   0.606
 1269HOH     H2 4013   2.081   3.350   0.489
 1270HOH      O 4014   1.434   0.435   1.214
 1270HOH     H1 4015   1.341   0.413   1.222
 1270HOH     H2 4016   1.440   0.478   1.129
 1271HOH      O 4017   0.447   0.668   3.678
 1271HOH     H1 4018   0.364   0.629   3.648
 1271HOH     H2 4019   0.473   0.725   3.606
 1272HOH      O 4020   3.528   0.789   1.607
 1272HOH     H1 4021   3.592   0.850   1.570
 1272HOH     H2 4022   3.456   0.845   1.635
 1273HOH      O 4023   2.560   1.052   0.057
 1273HOH     H1 4024   2.568   1.083  -0.033
 1273HOH     H2 4025   2.631   0.988   0.067
 1274HOH      O 4026   2.747   3.651   3.982
 1274HOH     H1 4027   2.754   3.659   3.887
 1274HOH     H2 4028   2.835   3.624   4.010
 1275HOH      O 4029   0.436   0.709   2.391
 1275HOH     H1 4030   0.510   0.649   2.403
 1275HOH     H2 4031   0.386   0.700   2.472
 1276HOH      O 4032   1.570   3.066   3.964
 1276HOH     H1 4033   1.662   3.052   3.983
 1276HOH     H2 4034   1.546   2.994   3.905
 1277HOH      O 4035   3.497   1.212   2.069
 1277HOH     H1 4036   3.510   1.274   2.141
 1277HOH     H2 4037   3.476   1.267   1.993
 1278HOH      O 4038   3.137   0.098   2.276
 1278HOH     H1 4039   3.074   0.029   2.254
 1278HOH     H2 4040   3.150   0.145   2.193
 1279HOH      O 4041   1.472   0.304   3.140
 1279HOH     H1 4042   1.530   0.329   3.212
 1279HOH     H2 4043   1.388   0.286   3.183
 1280HOH      O 4044   3.709   3.084   3.202
 1280HOH     H1 4045   3.720   3.014   3.138
 1280HOH     H2 4046   3.759   3.157   3.167
 1281HOH      O 4047   1.811   0.900   0.853
 1281HOH     H1 4048   1.733   0.952   0.831
 1281HOH     H2 4049   1.848   0.876   0.768
 1282HOH      O 4050   0.692   2.734   3.359
 1282HOH     H1 4051   0.708   2.815   3.407
 1282HOH     H2 4052   0.602   2.710   3.381
 1283HOH      O 4053   1.988   1.349   0.296
 1283HOH     H1 4054   2.033   1.291   0.234
 1283HOH     H2 4055   1.960   1.292   0.367
 1284HOH      O 4056   0.379   0.921   2.201
 1284HOH     H1 4057   0.397   0.858   2.270
 1284HOH     H2 4058   0.411   0.879   2.121
 1285HOH      O 4059   1.715   0.119   1.689
 1285HOH     H1 4060   1.780   0.189   1.682
 1285HOH     H2 4061   1.633   0.162   1.664
 1286HOH      O 4062   2.806   2.596   1.025
 1286HOH     H1 4063   2.724   2.632   0.992
 1286HOH     H2 4064   2.779   2.539   1.098
 1287HOH      O 4065   0.572   1.191   0.496
 1287HOH     H1 4066   0.572   1.150   0.582
 1287HOH     H2 4067   0.544   1.281   0.511
 1288HOH      O 4068   2.627   2.680   3.442
 1288HOH     H1 4069   2.688   2.749   3.466
 1288HOH     H2 4070   2.674   2.627   3.378
 1289HOH      O 4071   3.766   2.831   2.634
 1289HOH     H1 4072   3.813   2.858   2.714
 1289HOH     H2 4073   3.674   2.850   2.653
 1290HOH      O 4074   2.576   3.308   1.415
 1290HOH     H1 4075   2.589   3.309   1.510
 1290HOH     H2 4076   2.511   3.239   1.401
 1291HOH      O 4077   3.322   0.699   1.983
 1291HOH     H1 4078   3.332   0.634   2.053
 1291HOH     H2 4079   3.228   0.714   1.978
 1292HOH      O 4080   2.087   3.645   1.595
 1292HOH     H1 4081   2.035   3.723   1.580
 1292HOH     H2 4082   2.170   3.661   1.549
 1293HOH      O 4083   3.639   1.526   0.501
 1293HOH     H1 4084   3.666   1.508   0.411
 1293HOH     H2 4085   3.568   1.589   0.492
 1294HOH      O 4086   3.407   2.867   0.492
 1294HOH     H1 4087   3.367   2.828   0.414
 1294HOH     H2 4088   3.361   2.825   0.565
 1295HOH      O 4089   2.605   2.804   2.490
 1295HOH     H1 4090   2.604   2.830   2.398
 1295HOH     H2 4091   2.612   2.708   2.487
 1296HOH      O 4092   0.207   2.259   3.243
 1296HOH     H1 4093   0.188   2.344   3.202
 1296HOH     H2 4094   0.121   2.225   3.267
 1297HOH      O 4095   1.615   2.291   3.248
 1297HOH     H1 4096   1.705   2.320   3.236
 1297HOH     H2 4097   1.566   2.339   3.181
 1298HOH      O 4098   1.672   0.466   0.706
 1298HOH     H1 4099   1.662   0.424   0.791
 1298HOH     H2 4100   1.604   0.533   0.704
 1299HOH      O 4101   2.753   0.287   2.103
 1299HOH     H1 4102   2.799   0.367   2.077
 1299HOH     H2 4103   2.806   0.250   2.173
 1300HOH      O 4104   0.490   1.111   2.358
 1300HOH     H1 4105   0.503   1.188   2.302
 1300HOH     H2 4106   0.434   1.053   2.307
 1301HOH      O 4107   1.072   2.100   2.289
 1301HOH     H1 4108   1.160   2.063   2.278
 1301HOH     H2 4109   1.013   2.028   2.267
 1302HOH      O 4110   3.213   1.815   2.838
 1302HOH     H1 4111   3.170   1.772   2.764
 1302HOH     H2 4112   3.158   1.795   2.914
 1303HOH      O 4113   3.787   1.159   1.671
 1303HOH     H1 4114   3.833   1.121   1.595
 1303HOH     H2 4115   3.845   1.227   1.703
 1304HOH      O 4116   0.291   2.687   1.865
 1304HOH     H1 4117   0.301   2.592   1.853
 1304HOH     H2 4118   0.320   2.703   1.954
 1305HOH      O 4119   1.676   3.051   0.332
 1305HOH     H1 4120   1.764   3.013   0.324
 1305HOH     H2 4121   1.691   3.146   0.327
 1306HOH      O 4122   3.282   3.077   1.674
 1306HOH     H1 4123   3.220   3.006   1.691
 1306HOH     H2 4124   3.254   3.113   1.589
 1307HOH      O 4125   0.816   0.352   0.701
 1307HOH     H1 4126   0.744   0.329   0.642
 1307HOH     H2 4127   0.886   0.291   0.676
 1308HOH      O 4128   0.741   2.433   2.541
 1308HOH     H1 4129   0.747   2.339   2.561
 1308HOH     H2 4130   0.648   2.453   2.548
 1309HOH      O 4131   3.627   0.647   3.661
 1309HOH     H1 4132   3.552   0.587   3.664
 1309HOH     H2 4133   3.608   0.704   3.587
 1310HOH      O 4134   1.848   3.337   3.871
 1310HOH     H1 4135   1.938   3.304   3.875
 1310HOH     H2 4136   1.814   3.303   3.789
 1311HOH      O 4137   2.072   2.820   2.108
 1311HOH     H1 4138   2.054   2.735   2.067
 1311HOH     H2 4139   1.988   2.865   2.109
 1312HOH      O 4140   0.772   3.505   1.070
 1312HOH     H1 4141   0.783   3.410   1.075
 1312HOH     H2 4142   0.709   3.519   0.999
 1313HOH      O 4143   2.296   3.632   1.414
 1313HOH     H1 4144   2.296   3.579   1.334
 1313HOH     H2 4145   2.389   3.642   1.436
 1314HOH      O 4146   3.767   1.062   3.844
 1314HOH     H1 4147   3.792   0.978   3.806
 1314HOH     H2 4148   3.810   1.063   3.930
 1315HOH      O 4149   3.326   3.127   1.182
 1315HOH     H1 4150   3.407   3.166   1.214
 1315HOH     H2 4151   3.273   3.115   1.261
 1316HOH      O 4152   3.570   0.923   2.251
 1316HOH     H1 4153   3.613   0.993   2.202
 1316HOH     H2 4154   3.483   0.958   2.271
 1317HOH      O 4155   3.772   3.796   2.022
 1317HOH     H1 4156   3.774   3.804   2.118
 1317HOH     H2 4157   3.698   3.739   2.004
 1318HOH      O 4158   3.331   3.485   0.220
 1318HOH     H1 4159   3.379   3.454   0.297
 1318HOH     H2 4160   3.385   3.460   0.146
 1319HOH      O 4161   0.951   2.151   0.735
 1319HOH     H1 4162   0.952   2.229   0.680
 1319HOH     H2 4163   0.896   2.175   0.809
 1320HOH      O 4164   1.233   2.913   1.431
 1320HOH     H1 4165   1.154   2.953   1.395
 1320HOH     H2 4166   1.293   2.906   1.356
 1321HOH      O 4167   2.212   2.954   3.756
 1321HOH     H1 4168   2.226   2.992   3.669
 1321HOH     H2 4169   2.264   3.008   3.815
 1322HOH      O 4170   0.740   1.232   1.422
 1322HOH     H1 4171   0.823   1.266   1.457
 1322HOH     H2 4172   0.726   1.151   1.470
 1323HOH      O 4173   1.831   1.467   0.961
 1323HOH     H1 4174   1.839   1.522   1.039
 1323HOH     H2 4175   1.776   1.517   0.901
 1324HOH      O 4176   0.776   0.561   3.058
 1324HOH     H1 4177   0.798   0.524   3.143
 1324HOH     H2 4178   0.847   0.532   3.000
 1325HOH      O 4179   3.663   0.313   0.269
 1325HOH     H1 4180   3.757   0.297   0.264
 1325HOH     H2 4181   3.623   0.227   0.257
 1326HOH      O 4182   3.332   3.230   1.892
 1326HOH     H1 4183   3.348   3.165   1.824
 1326HOH     H2 4184   3.399   3.213   1.958
 1327HOH      O 4185   0.406   0.084   1.181
 1327HOH     H1 4186   0.357   0.117   1.256
 1327HOH     H2 4187   0.496   0.075   1.213
 1328HOH      O 4188   0.893   1.276   0.145
 1328HOH     H1 4189   0.901   1.353   0.089
 1328HOH     H2 4190   0.982   1.258   0.175
 1329HOH      O 4191   2.317   1.700   1.542
 1329HOH     H1 4192   2.330   1.789   1.511
 1329HOH     H2 4193   2.253   1.663   1.481
 1330HOH      O 4194   3.650   1.782   2.856
 1330HOH     H1 4195   3.649   1.782   2.952
 1330HOH     H2 4196   3.574   1.836   2.831
 1331HOH      O 4197   3.978   3.148   3.655
 1331HOH     H1 4198   4.040   3.147   3.583
 1331HOH     H2 4199   3.895   3.175   3.615
 1332HOH      O 4200   1.577   0.050   2.141
 1332HOH     H1 4201   1.670   0.042   2.118
 1332HOH     H2 4202   1.533  -0.015   2.087
 1333HOH      O 4203   3.924   1.480   2.011
 1333HOH     H1 4204   3.915   1.575   2.018
 1333HOH     H2 4205   3.966   1.467   1.926
 1334HOH      O 4206   3.597   3.316   2.914
 1334HOH     H1 4207   3.591   3.376   2.840
 1334HOH     H2 4208   3.658   3.358   2.975
 1335HOH      O 4209   2.266   2.882   3.201
 1335HOH     H1 4210   2.189   2.828   3.182
 1335HOH     H2 4211   2.272   2.942   3.127
 1336HOH      O 4212   1.764   3.545   3.647
 1336HOH     H1 4213   1.852   3.581   3.655
 1336HOH     H2 4214   1.776   3.460   3.605
 1337HOH      O 4215   3.800   0.465   3.514
 1337HOH     H1 4216   3.767   0.445   3.602
 1337HOH     H2 4217   3.803   0.561   3.511
 1338HOH      O 4218   2.827   0.875   2.685
 1338HOH     H1 4219   2.860   0.937   2.620
 1338HOH     H2 4220   2.802   0.930   2.759
 1339HOH      O 4221   2.875   3.720   2.117
 1339HOH     H1 4222   2.885   3.650   2.182
 1339HOH     H2 4223   2.781   3.737   2.115
 1340HOH      O 4224   1.900   0.620   2.562
 1340HOH     H1 4225   1.995   0.621   2.574
 1340HOH     H2 4226   1.886   0.662   2.477
 1341HOH      O 4227   0.163   2.760   1.159
 1341HOH     H1 4228   0.235   2.820   1.142
 1341HOH     H2 4229   0.189   2.714   1.239
 1342HOH      O 4230   2.971   2.830   2.590
 1342HOH     H1 4231   3.033   2.803   2.657
 1342HOH     H2 4232   2.922   2.750   2.569
 1343HOH      O 4233   0.127   3.732   1.696
 1343HOH     H1 4234   0.032   3.740   1.708
 1343HOH     H2 4235   0.142   3.638   1.688
 1344HOH      O 4236   3.017   1.161   4.017
 1344HOH     H1 4237   3.026   1.079   4.065
 1344HOH     H2 4238   3.089   1.160   3.954
 1345HOH      O 4239   0.655   1.531   2.241
 1345HOH     H1 4240   0.711   1.608   2.259
 1345HOH     H2 4241   0.626   1.503   2.328
 1346HOH      O 4242   2.194   2.649   1.673
 1346HOH     H1 4243   2.100   2.633   1.672
 1346HOH     H2 4244   2.226   2.598   1.747
 1347HOH      O 4245   3.857   0.958   2.359
 1347HOH     H1 4246   3.895   1.046   2.355
 1347HOH     H2 4247   3.863   0.926   2.269
 1348HOH      O 4248   2.250   0.457   3.426
 1348HOH     H1 4249   2.231   0.538   3.378
 1348HOH     H2 4250   2.339   0.435   3.400
 1349HOH      O 4251   3.236   1.075   1.898
 1349HOH     H1 4252   3.202   1.163   1.883
 1349HOH     H2 4253   3.177   1.036   1.963
 1350HOH      O 4254   0.835   3.917   0.725
 1350HOH     H1 4255   0.832   3.838   0.778
 1350HOH     H2 4256   0.895   3.975   0.772
 1351HOH      O 4257   1.701   1.532   2.535
 1351HOH     H1 4258   1.644   1.468   2.579
 1351HOH     H2 4259   1.640   1.591   2.491
 1352HOH      O 4260   3.318   0.315   2.942
 1352HOH     H1 4261   3.330   0.273   3.027
 1352HOH     H2 4262   3.400   0.298   2.895
 1353HOH      O 4263   3.367   0.176   3.653
 1353HOH     H1 4264   3.404   0.109   3.711
 1353HOH     H2 4265   3.300   0.130   3.602
 1354HOH      O 4266   0.404   3.681   0.931
 1354HOH     H1 4267   0.387   3.773   0.908
 1354HOH     H2 4268   0.333   3.658   0.991
 1355HOH      O 4269   1.500   1.436   0.325
 1355HOH     H1 4270   1.578   1.456   0.274
 1355HOH     H2 4271   1.480   1.345   0.303
 1356HOH      O 4272   0.805   0.323   1.698
 1356HOH     H1 4273   0.741   0.251   1.697
 1356HOH     H2 4274   0.859   0.305   1.775
 1357HOH      O 4275   0.284   2.330   2.486
 1357HOH     H1 4276   0.223   2.322   2.559
 1357HOH     H2 4277   0.229   2.355   2.412
 1358HOH      O 4278   2.258   0.073   1.877
 1358HOH     H1 4279   2.289   0.131   1.946
 1358HOH     H2 4280   2.320   0.085   1.805
 1359HOH      O 4281   3.835   3.816   3.585
 1359HOH     H1 4282   3.785   3.737   3.561
 1359HOH     H2 4283   3.817   3.878   3.514
 1360HOH      O 4284   1.033   3.312   2.870
 1360HOH     H1 4285   1.022   3.312   2.965
 1360HOH     H2 4286   0.992   3.394   2.841
 1361HOH      O 4287   0.791   1.515   2.629
 1361HOH     H1 4288   0.862   1.526   2.566
 1361HOH     H2 4289   0.711   1.534   2.580
 1362HOH      O 4290   3.131   2.948   0.865
 1362HOH     H1 4291   3.082   2.901   0.933
 1362HOH     H2 4292   3.065   2.978   0.803
 1363HOH      O 4293   1.012   3.631   3.901
 1363HOH     H1 4294   0.980   3.700   3.958
 1363HOH     H2 4295   1.084   3.671   3.852
 1364HOH      O 4296   0.137   1.875   3.933
 1364HOH     H1 4297   0.139   1.970   3.950
 1364HOH     H2 4298   0.211   1.841   3.983
 1365HOH      O 4299   0.415   3.416   2.786
 1365HOH     H1 4300   0.379   3.475   2.853
 1365HOH     H2 4301   0.395   3.328   2.818
 1366HOH      O 4302   2.728   2.481   3.986
 1366HOH     H1 4303   2.734   2.530   4.068
 1366HOH     H2 4304   2.765   2.540   3.920
 1367HOH      O 4305   3.349   1.835   3.660
 1367HOH     H1 4306   3.407   1.844   3.735
 1367HOH     H2 4307   3.407   1.833   3.584
 1368HOH      O 4308   3.934   3.732   3.249
 1368HOH     H1 4309   3.989   3.770   3.181
 1368HOH     H2 4310   3.875   3.804   3.275
 1369HOH      O 4311   1.589   0.782   1.097
 1369HOH     H1 4312   1.682   0.765   1.108
 1369HOH     H2 4313   1.550   0.761   1.182
 1370HOH      O 4314   0.148   4.002   2.123
 1370HOH     H1 4315   0.176   3.920   2.083
 1370HOH     H2 4316   0.090   3.976   2.194
 1371HOH      O 4317   1.071   2.812   0.903
 1371HOH     H1 4318   0.986   2.851   0.883
 1371HOH     H2 4319   1.134   2.863   0.852
 1372HOH      O 4320   0.653   2.732   0.648
 1372HOH     H1 4321   0.660   2.645   0.609
 1372HOH     H2 4322   0.661   2.793   0.575
 1373HOH      O 4323   1.461   0.261   4.012
 1373HOH     H1 4324   1.500   0.183   3.974
 1373HOH     H2 4325   1.366   0.244   4.009
 1374HOH      O 4326   0.902   1.759   3.202
 1374HOH     H1 4327   0.836   1.777   3.136
 1374HOH     H2 4328   0.895   1.831   3.264
 1375HOH      O 4329   2.100   3.936   0.855
 1375HOH     H1 4330   2.073   3.866   0.915
 1375HOH     H2 4331   2.053   4.013   0.886
 1376HOH      O 4332   1.592   2.414   0.149
 1376HOH     H1 4333   1.516   2.358   0.133
 1376HOH     H2 4334   1.587   2.481   0.081
 1377HOH      O 4335   1.014   1.793   0.036
 1377HOH     H1 4336   1.094   1.839   0.013
 1377HOH     H2 4337   0.974   1.769  -0.047
 1378HOH      O 4338   0.947   0.970   3.205
 1378HOH     H1 4339   0.867   1.006   3.166
 1378HOH     H2 4340   0.920   0.885   3.241
 1379HOH      O 4341   3.279   1.035   2.523
 1379HOH     H1 4342   3.293   1.016   2.430
 1379HOH     H2 4343   3.188   1.010   2.539
 1380HOH      O 4344   1.127   2.356   2.166
 1380HOH     H1 4345   1.041   2.355   2.124
 1380HOH     H2 4346   1.121   2.288   2.233
 1381HOH      O 4347   3.963   1.274   3.742
 1381HOH     H1 4348   3.917   1.190   3.744
 1381HOH     H2 4349   3.910   1.331   3.797
 1382HOH      O 4350   0.555   3.409   1.450
 1382HOH     H1 4351   0.494   3.383   1.380
 1382HOH     H2 4352   0.622   3.460   1.405
 1383HOH      O 4353   2.234   1.369   2.984
 1383HOH     H1 4354   2.210   1.366   3.076
 1383HOH     H2 4355   2.203   1.454   2.954
 1384HOH      O 4356   3.444   1.941   2.812
 1384HOH     H1 4357   3.460   1.990   2.731
 1384HOH     H2 4358   3.354   1.909   2.803
 1385HOH      O 4359   2.018   0.384   0.152
 1385HOH     H1 4360   2.069   0.336   0.218
 1385HOH     H2 4361   1.946   0.422   0.202
 1386HOH      O 4362   1.593   1.930   0.567
 1386HOH     H1 4363   1.556   1.882   0.494
 1386HOH     H2 4364   1.517   1.957   0.619
 1387HOH      O 4365   1.783   3.080   1.328
 1387HOH     H1 4366   1.839   3.065   1.403
 1387HOH     H2 4367   1.818   3.023   1.260
 1388HOH      O 4368   0.078   3.497   2.135
 1388HOH     H1 4369   0.011   3.487   2.202
 1388HOH     H2 4370   0.115   3.410   2.125
 1389HOH      O 4371   3.425   0.237   0.972
 1389HOH     H1 4372   3.504   0.261   0.924
 1389HOH     H2 4373   3.424   0.296   1.047
 1390HOH      O 4374  -0.010   2.095   2.065
 1390HOH     H1 4375   0.077   2.134   2.056
 1390HOH     H2 4376   0.000   2.030   2.135
 1391HOH      O 4377   1.314   2.056   1.797
 1391HOH     H1 4378   1.220   2.058   1.777
 1391HOH     H2 4379   1.329   2.138   1.846
 1392HOH      O 4380   3.035   3.857   3.453
 1392HOH     H1 4381   2.991   3.790   3.400
 1392HOH     H2 4382   3.051   3.814   3.537
 1393HOH      O 4383   2.047   2.544   2.008
 1393HOH     H1 4384   2.019   2.585   1.927
 1393HOH     H2 4385   2.103   2.471   1.980
 1394HOH      O 4386   1.251   1.920   2.528
 1394HOH     H1 4387   1.190   1.949   2.596
 1394HOH     H2 4388   1.329   1.892   2.575
 1395HOH      O 4389   0.105   0.711   2.314
 1395HOH     H1 4390   0.125   0.786   2.370
 1395HOH     H2 4391   0.010   0.713   2.303
 1396HOH      O 4392   1.006   2.089   1.639
 1396HOH     H1 4393   0.933   2.111   1.697
 1396HOH     H2 4394   1.023   2.169   1.590
 1397HOH      O 4395   2.104   1.801   4.031
 1397HOH     H1 4396   2.189   1.757   4.027
 1397HOH     H2 4397   2.124   1.892   4.012
 1398HOH      O 4398   0.591   1.034   3.793
 1398HOH     H1 4399   0.571   0.981   3.716
 1398HOH     H2 4400   0.679   1.008   3.818
 1399HOH      O 4401   3.370   1.502   1.106
 1399HOH     H1 4402   3.338   1.506   1.196
 1399HOH     H2 4403   3.453   1.550   1.108
 1400HOH      O 4404   3.518   1.408   3.975
 1400HOH     H1 4405   3.491   1.328   3.930
 1400HOH     H2 4406   3.453   1.421   4.043
 1401HOH      O 4407   1.514   2.885   3.778
 1401HOH     H1 4408   1.546   2.890   3.688
 1401HOH     H2 4409   1.461   2.805   3.781
 1402HOH      O 4410   0.575   1.679   3.994
 1402HOH     H1 4411   0.599   1.645   4.080
 1402HOH     H2 4412   0.580   1.603   3.936
 1403HOH      O 4413   2.214   1.414   0.057
 1403HOH     H1 4414   2.263   1.381   0.133
 1403HOH     H2 4415   2.279   1.464   0.007
 1404HOH      O 4416   0.111   2.500   3.093
 1404HOH     H1 4417   0.062   2.535   3.019
 1404HOH     H2 4418   0.114   2.573   3.156
 1405HOH      O 4419   3.563   3.607   0.557
 1405HOH     H1 4420   3.491   3.669   0.545
 1405HOH     H2 4421   3.542   3.561   0.639
 1406HOH      O 4422   1.304   2.692   1.618
 1406HOH     H1 4423   1.361   2.717   1.691
 1406HOH     H2 4424   1.291   2.773   1.569
 1407HOH      O 4425   0.283   0.360   2.622
 1407HOH     H1 4426   0.286   0.371   2.527
 1407HOH     H2 4427   0.202   0.404   2.648
 1408HOH      O 4428   3.276   4.000   2.461
 1408HOH     H1 4429   3.231   4.061   2.402
 1408HOH     H2 4430   3.308   3.930   2.403
 1409HOH      O 4431   2.154   0.491   0.457
 1409HOH     H1 4432   2.168   0.422   0.394
 1409HOH     H2 4433   2.138   0.446   0.540
 1410HOH      O 4434   2.854   0.668   3.410
 1410HOH     H1 4435   2.928   0.626   3.365
 1410HOH     H2 4436   2.820   0.731   3.347
 1411HOH      O 4437   1.166   0.717   3.820
 1411HOH     H1 4438   1.252   0.714   3.777
 1411HOH     H2 4439   1.170   0.649   3.887
 1412HOH      O 4440   1.689   2.118   1.431
 1412HOH     H1 4441   1.746   2.183   1.390
 1412HOH     H2 4442   1.721   2.112   1.521
 1413HOH      O 4443   2.755   1.241   2.333
 1413HOH     H1 4444   2.803   1.166   2.300
 1413HOH     H2 4445   2.822   1.307   2.351
 1414HOH      O 4446   3.935   0.757   0.701
 1414HOH     H1 4447   4.002   0.792   0.759
 1414HOH     H2 4448   3.976   0.680   0.661
 1415HOH      O 4449   3.597   2.478   2.196
 1415HOH     H1 4450   3.606   2.383   2.203
 1415HOH     H2 4451   3.504   2.495   2.206
 1416HOH      O 4452   0.898   1.021   0.276
 1416HOH     H1 4453   0.989   0.992   0.269
 1416HOH     H2 4454   0.901   1.115   0.258
 1417HOH      O 4455   3.868   2.878   1.894
 1417HOH     H1 4456   3.913   2.953   1.854
 1417HOH     H2 4457   3.801   2.918   1.950
 1418HOH      O 4458   0.611   1.716   1.306
 1418HOH     H1 4459   0.562   1.774   1.365
 1418HOH     H2 4460   0.629   1.638   1.358
 1419HOH      O 4461   2.095   0.651   3.207
 1419HOH     H1 4462   2.008   0.640   3.169
 1419HOH     H2 4463   2.155   0.624   3.138
 1420HOH      O 4464   3.372   0.129   0.036
 1420HOH     H1 4465   3.455   0.111   0.079
 1420HOH     H2 4466   3.350   0.048  -0.009
 1421HOH      O 4467   0.939   2.633   3.420
 1421HOH     H1 4468   0.861   2.656   3.368
 1421HOH     H2 4469   0.914   2.650   3.510
 1422HOH      O 4470   1.134   3.998   3.644
 1422HOH     H1 4471   1.066   4.066   3.649
 1422HOH     H2 4472   1.190   4.027   3.572
 1423HOH      O 4473   3.224   3.487   3.336
 1423HOH     H1 4474   3.213   3.393   3.323
 1423HOH     H2 4475   3.241   3.496   3.429
 1424HOH      O 4476   3.157   1.335   1.843
 1424HOH     H1 4477   3.108   1.412   1.814
 1424HOH     H2 4478   3.164   1.345   1.938
 1425HOH      O 4479   2.945   2.095   1.928
 1425HOH     H1 4480   2.941   2.160   1.999
 1425HOH     H2 4481   2.988   2.019   1.967
 1426HOH      O 4482   1.357   2.678   3.819
 1426HOH     H1 4483   1.341   2.593   3.778
 1426HOH     H2 4484   1.289   2.735   3.784
 1427HOH      O 4485   0.610   3.876   0.480
 1427HOH     H1 4486   0.684   3.935   0.492
 1427HOH     H2 4487   0.639   3.793   0.519
 1428HOH      O 4488   0.682   2.130   2.304
 1428HOH     H1 4489   0.611   2.154   2.364
 1428HOH     H2 4490   0.718   2.214   2.274
 1429HOH      O 4491   1.320   2.806   4.047
 1429HOH     H1 4492   1.361   2.754   3.978
 1429HOH     H2 4493   1.389   2.863   4.080
 1430HOH      O 4494   2.037   1.998   2.706
 1430HOH     H1 4495   2.111   1.990   2.645
 1430HOH     H2 4496   1.988   1.916   2.695
 1431HOH      O 4497   3.144   0.971   0.455
 1431HOH     H1 4498   3.123   0.947   0.545
 1431HOH     H2 4499   3.113   0.897   0.402
 1432HOH      O 4500   2.628   2.213   2.785
 1432HOH     H1 4501   2.553   2.271   2.795
 1432HOH     H2 4502   2.670   2.242   2.704
 1433HOH      O 4503   3.330   2.188   2.099
 1433HOH     H1 4504   3.411   2.201   2.149
 1433HOH     H2 4505   3.334   2.254   2.030
 1434HOH      O 4506   0.969   2.829   1.912
 1434HOH     H1 4507   1.022   2.837   1.991
 1434HOH     H2 4508   1.014   2.882   1.846
 1435HOH      O 4509   1.550   3.823   0.414
 1435HOH     H1 4510   1.487   3.859   0.351
 1435HOH     H2 4511   1.628   3.878   0.405
 1436HOH      O 4512   2.160   2.785   1.287
 1436HOH     H1 4513   2.168   2.838   1.366
 1436HOH     H2 4514   2.225   2.716   1.296
 1437HOH      O 4515   0.267   3.344   3.802
 1437HOH     H1 4516   0.276   3.295   3.720
 1437HOH     H2 4517   0.262   3.276   3.869
 1438HOH      O 4518   0.284   2.791   0.765
 1438HOH     H1 4519   0.325   2.872   0.795
 1438HOH     H2 4520   0.300   2.728   0.835
 1439HOH      O 4521   1.336   3.160   0.224
 1439HOH     H1 4522   1.372   3.094   0.283
 1439HOH     H2 4523   1.276   3.112   0.168
 1440HOH      O 4524   2.309   0.217   2.967
 1440HOH     H1 4525   2.285   0.212   2.875
 1440HOH     H2 4526   2.226   0.222   3.014
 1441HOH      O 4527   0.941   1.560   0.809
 1441HOH     H1 4528   1.010   1.506   0.847
 1441HOH     H2 4529   0.964   1.567   0.717
 1442HOH      O 4530   0.493   3.745   3.822
 1442HOH     H1 4531   0.448   3.725   3.904
 1442HOH     H2 4532   0.484   3.665   3.770
 1443HOH      O 4533   0.138   2.681   0.069
 1443HOH     H1 4534   0.114   2.774   0.059
 1443HOH     H2 4535   0.232   2.683   0.088
 1444HOH      O 4536   3.153   2.091   3.385
 1444HOH     H1 4537   3.246   2.108   3.396
 1444HOH     H2 4538   3.150   2.010   3.334
 1445HOH      O 4539   3.541   2.796   1.670
 1445HOH     H1 4540   3.548   2.780   1.764
 1445HOH     H2 4541   3.449   2.816   1.656
 1446HOH      O 4542   0.147   2.513   3.457
 1446HOH     H1 4543   0.221   2.520   3.395
 1446HOH     H2 4544   0.184   2.467   3.533
 1447HOH      O 4545   1.815   1.501   2.949
 1447HOH     H1 4546   1.783   1.418   2.913
 1447HOH     H2 4547   1.910   1.495   2.940
 1448HOH      O 4548   0.147   1.663   3.717
 1448HOH     H1 4549   0.146   1.738   3.777
 1448HOH     H2 4550   0.172   1.589   3.772
 1449HOH      O 4551   2.531   2.548   0.545
 1449HOH     H1 4552   2.621   2.532   0.515
 1449HOH     H2 4553   2.528   2.642   0.561
 1450HOH      O 4554   1.108   0.896   2.502
 1450HOH     H1 4555   1.160   0.885   2.582
 1450HOH     H2 4556   1.060   0.814   2.494
 1451HOH      O 4557   1.029   1.538   3.307
 1451HOH     H1 4558   0.981   1.610   3.267
 1451HOH     H2 4559   1.118   1.571   3.319
 1452HOH      O 4560   0.770   3.475   3.534
 1452HOH     H1 4561   0.835   3.542   3.555
 1452HOH     H2 4562   0.743   3.440   3.619
 1453HOH      O 4563   1.008   2.472   3.877
 1453HOH     H1 4564   1.070   2.499   3.945
 1453HOH     H2 4565   1.056   2.406   3.827
 1454HOH      O 4566   2.887   3.954   1.544
 1454HOH     H1 4567   2.944   3.888   1.584
 1454HOH     H2 4568   2.799   3.915   1.548
 1455HOH      O 4569   3.716   2.965   3.698
 1455HOH     H1 4570   3.714   3.048   3.649
 1455HOH     H2 4571   3.624   2.948   3.719
 1456HOH      O 4572   0.166   1.652   2.171
 1456HOH     H1 4573   0.187   1.743   2.191
 1456HOH     H2 4574   0.249   1.614   2.142
 1457HOH      O 4575   3.524   0.995   0.697
 1457HOH     H1 4576   3.531   1.084   0.664
 1457HOH     H2 4577   3.527   0.940   0.619
 1458HOH      O 4578   0.100   2.905   2.836
 1458HOH     H1 4579   0.086   2.948   2.752
 1458HOH     H2 4580   0.136   2.973   2.892
 1459HOH      O 4581   0.818   3.465   3.809
 1459HOH     H1 4582   0.897   3.511   3.837
 1459HOH     H2 4583   0.773   3.443   3.891
 1460HOH      O 4584   2.897   2.220   1.295
 1460HOH     H1 4585   2.911   2.179   1.380
 1460HOH     H2 4586   2.973   2.278   1.284
 1461HOH      O 4587   1.279   3.010   2.708
 1461HOH     H1 4588   1.282   3.074   2.779
 1461HOH     H2 4589   1.324   2.933   2.743
 1462HOH      O 4590   1.537   3.730   2.327
 1462HOH     H1 4591   1.445   3.701   2.325
 1462HOH     H2 4592   1.586   3.657   2.288
 1463HOH      O 4593   1.431   2.546   1.302
 1463HOH     H1 4594   1.512   2.581   1.264
 1463HOH     H2 4595   1.430   2.578   1.392
 1464HOH      O 4596   3.147   0.823   2.298
 1464HOH     H1 4597   3.056   0.794   2.288
 1464HOH     H2 4598   3.145   0.916   2.279
 1465HOH      O 4599   0.881   4.014   3.072
 1465HOH     H1 4600   0.940   3.990   3.000
 1465HOH     H2 4601   0.793   3.997   3.037
 1466HOH      O 4602   2.309   0.714   0.429
 1466HOH     H1 4603   2.266   0.635   0.460
 1466HOH     H2 4604   2.386   0.682   0.382
 1467HOH      O 4605   1.198   2.655   3.290
 1467HOH     H1 4606   1.184   2.722   3.223
 1467HOH     H2 4607   1.112   2.644   3.330
 1468HOH      O 4608   3.732   0.592   1.964
 1468HOH     H1 4609   3.737   0.627   2.053
 1468HOH     H2 4610   3.640   0.600   1.940
 1469HOH      O 4611   3.446   3.654   0.957
 1469HOH     H1 4612   3.505   3.623   1.026
 1469HOH     H2 4613   3.470   3.603   0.880
 1470HOH      O 4614   2.401   0.275   1.747
 1470HOH     H1 4615   2.447   0.273   1.831
 1470HOH     H2 4616   2.470   0.277   1.681
 1471HOH      O 4617   3.465   0.921   1.915
 1471HOH     H1 4618   3.407   0.851   1.943
 1471HOH     H2 4619   3.406   0.993   1.893
 1472HOH      O 4620   1.702   2.020   3.154
 1472HOH     H1 4621   1.674   2.109   3.133
 1472HOH     H2 4622   1.790   2.031   3.192
 1473HOH      O 4623   0.743   1.347   0.714
 1473HOH     H1 4624   0.793   1.297   0.649
 1473HOH     H2 4625   0.810   1.380   0.775
 1474HOH      O 4626   3.050   1.678   0.214
 1474HOH     H1 4627   3.087   1.594   0.242
 1474HOH     H2 4628   3.056   1.733   0.292
 1475HOH      O 4629   1.029   1.852   2.175
 1475HOH     H1 4630   1.090   1.915   2.137
 1475HOH     H2 4631   1.084   1.788   2.220
 1476HOH      O 4632   3.908   0.974   1.455
 1476HOH     H1 4633   3.884   1.060   1.421
 1476HOH     H2 4634   3.995   0.985   1.492
 1477HOH      O 4635   2.373   2.462   0.137
 1477HOH     H1 4636   2.373   2.473   0.042
 1477HOH     H2 4637   2.457   2.421   0.157
 1478HOH      O 4638   0.971   0.780   1.749
 1478HOH     H1 4639   1.028   0.856   1.738
 1478HOH     H2 4640   0.941   0.786   1.840
 1479HOH      O 4641   3.894   2.213   0.799
 1479HOH     H1 4642   3.986   2.232   0.780
 1479HOH     H2 4643   3.896   2.145   0.866
 1480HOH      O 4644   1.904   2.308   2.597
 1480HOH     H1 4645   1.830   2.361   2.570
 1480HOH     H2 4646   1.914   2.242   2.529
 1481HOH      O 4647   0.068   3.260   1.851
 1481HOH     H1 4648   0.007   3.327   1.884
 1481HOH     H2 4649   0.101   3.218   1.930
 1482HOH      O 4650   1.063   3.029   0.692
 1482HOH     H1 4651   1.006   3.103   0.714
 1482HOH     H2 4652   1.130   3.029   0.761
 1483HOH      O 4653   1.569   2.223   2.026
 1483HOH     H1 4654   1.587   2.139   1.985
 1483HOH     H2 4655   1.480   2.245   1.997
 1484HOH      O 4656   0.074   0.078   3.014
 1484HOH     H1 4657   0.113   0.084   2.927
 1484HOH     H2 4658   0.148   0.079   3.074
 1485HOH      O 4659   2.896   2.685   1.344
 1485HOH     H1 4660   2.903   2.757   1.282
 1485HOH     H2 4661   2.812   2.697   1.386
 1486HOH      O 4662   2.449   2.301   0.643
 1486HOH     H1 4663   2.400   2.290   0.561
 1486HOH     H2 4664   2.468   2.394   0.647
 1487HOH      O 4665   3.759   2.097   1.954
 1487HOH     H1 4666   3.759   2.129   1.863
 1487HOH     H2 4667   3.852   2.090   1.976
 1488HOH      O 4668   0.802   0.408   2.319
 1488HOH     H1 4669   0.756   0.372   2.243
 1488HOH     H2 4670   0.893   0.415   2.292
 1489HOH      O 4671   2.566   1.801   4.008
 1489HOH     H1 4672   2.610   1.853   3.941
 1489HOH     H2 4673   2.636   1.776   4.069
 1490HOH      O 4674   0.529   2.053   2.721
 1490HOH     H1 4675   0.560   1.967   2.695
 1490HOH     H2 4676   0.456   2.035   2.781
 1491HOH      O 4677   1.263   2.268   2.595
 1491HOH     H1 4678   1.275   2.247   2.502
 1491HOH     H2 4679   1.351   2.276   2.629
 1492HOH      O 4680   3.214   1.517   3.715
 1492HOH     H1 4681   3.167   1.488   3.637
 1492HOH     H2 4682   3.195   1.611   3.721
 1493HOH      O 4683   1.965   2.162   3.832
 1493HOH     H1 4684   2.051   2.194   3.803
 1493HOH     H2 4685   1.940   2.098   3.765
 1494HOH      O 4686   3.625   2.287   4.037
 1494HOH     H1 4687   3.574   2.254   3.963
 1494HOH     H2 4688   3.697   2.225   4.046
 1495HOH      O 4689   0.078   3.584   2.472
 1495HOH     H1 4690   0.157   3.613   2.425
 1495HOH     H2 4691   0.008   3.588   2.406
 1496HOH      O 4692   2.463   1.279   0.223
 1496HOH     H1 4693   2.533   1.300   0.285
 1496HOH     H2 4694   2.500   1.211   0.167
 1497HOH      O 4695   2.902   3.971   3.050
 1497HOH     H1 4696   2.855   4.051   3.073
 1497HOH     H2 4697   2.849   3.900   3.088
 1498HOH      O 4698   1.708   1.474   3.658
 1498HOH     H1 4699   1.669   1.391   3.629
 1498HOH     H2 4700   1.709   1.467   3.754
 1499HOH      O 4701   0.091   2.489   0.742
 1499HOH     H1 4702   0.061   2.498   0.833
 1499HOH     H2 4703   0.185   2.472   0.750
 1500HOH      O 4704   0.203   0.416   2.349
 1500HOH     H1 4705   0.116   0.383   2.368
 1500HOH     H2 4706   0.190   0.509   2.329
 1501HOH      O 4707   3.563   1.368   2.288
 1501HOH     H1 4708   3.514   1.420   2.351
 1501HOH     H2 4709   3.645   1.416   2.275
 1502HOH      O 4710   3.454   1.061   2.998
 1502HOH     H1 4711   3.534   1.046   3.049
 1502HOH     H2 4712   3.384   1.065   3.064
 1503HOH      O 4713   3.210   1.840   1.673
 1503HOH     H1 4714   3.219   1.812   1.582
 1503HOH     H2 4715   3.190   1.759   1.720
 1504HOH      O 4716   2.319   2.856   2.775
 1504HOH     H1 4717   2.278   2.874   2.691
 1504HOH     H2 4718   2.282   2.922   2.834
 1505HOH      O 4719   1.516   0.599   0.339
 1505HOH     H1 4720   1.552   0.658   0.272
 1505HOH     H2 4721   1.515   0.651   0.419
 1506HOH      O 4722   1.420   1.325   2.344
 1506HOH     H1 4723   1.450   1.376   2.269
 1506HOH     H2 4724   1.398   1.390   2.411
 1507HOH      O 4725   3.515   0.519   2.681
 1507HOH     H1 4726   3.530   0.425   2.691
 1507HOH     H2 4727   3.453   0.526   2.609
 1508HOH      O 4728   0.395   1.755   3.661
 1508HOH     H1 4729   0.461   1.686   3.663
 1508HOH     H2 4730   0.312   1.709   3.647
 1509HOH      O 4731   2.914   1.033   1.080
 1509HOH     H1 4732   2.935   0.962   1.140
 1509HOH     H2 4733   2.899   1.109   1.137
 1510HOH      O 4734   1.849   3.602   3.956
 1510HOH     H1 4735   1.792   3.610   4.033
 1510HOH     H2 4736   1.841   3.510   3.930
 1511HOH      O 4737   2.376   3.373   3.616
 1511HOH     H1 4738   2.285   3.394   3.634
 1511HOH     H2 4739   2.386   3.384   3.521
 1512HOH      O 4740   2.512   2.799   0.044
 1512HOH     H1 4741   2.595   2.755   0.057
 1512HOH     H2 4742   2.513   2.826  -0.048
 1513HOH      O 4743   2.694   2.658   1.795
 1513HOH     H1 4744   2.655   2.667   1.708
 1513HOH     H2 4745   2.620   2.664   1.855
 1514HOH      O 4746   2.937   3.517   1.411
 1514HOH     H1 4747   2.845   3.529   1.388
 1514HOH     H2 4748   2.935   3.460   1.488
 1515HOH      O 4749   3.667   0.971   2.689
 1515HOH     H1 4750   3.692   0.991   2.599
 1515HOH     H2 4751   3.611   1.045   2.715
 1516HOH      O 4752   0.617   3.413   0.426
 1516HOH     H1 4753   0.571   3.418   0.342
 1516HOH     H2 4754   0.608   3.322   0.452
 1517HOH      O 4755   0.775   3.130   0.335
 1517HOH     H1 4756   0.713   3.166   0.271
 1517HOH     H2 4757   0.858   3.173   0.313
 1518HOH      O 4758   3.793   3.155   2.786
 1518HOH     H1 4759   3.810   3.084   2.848
 1518HOH     H2 4760   3.722   3.205   2.825
 1519HOH      O 4761   3.249   1.061   3.589
 1519HOH     H1 4762   3.272   1.005   3.664
 1519HOH     H2 4763   3.189   1.008   3.538
 1520HOH      O 4764   3.745   0.280   1.370
 1520HOH     H1 4765   3.836   0.286   1.343
 1520HOH     H2 4766   3.732   0.355   1.428
 1521HOH      O 4767   2.490   3.027   1.415
 1521HOH     H1 4768   2.513   2.984   1.497
 1521HOH     H2 4769   2.400   2.998   1.398
 1522HOH      O 4770   1.891   0.036   0.998
 1522HOH     H1 4771   1.882   0.107   0.935
 1522HOH     H2 4772   1.805  -0.008   0.997
 1523HOH      O 4773   1.697   2.901   2.721
 1523HOH     H1 4774   1.761   2.949   2.774
 1523HOH     H2 4775   1.656   2.967   2.666
 1524HOH      O 4776   1.237   3.999   2.210
 1524HOH     H1 4777   1.276   3.912   2.223
 1524HOH     H2 4778   1.245   4.014   2.116
 1525HOH      O 4779   1.780   3.355   1.305
 1525HOH     H1 4780   1.793   3.265   1.335
 1525HOH     H2 4781   1.687   3.360   1.285
 1526HOH      O 4782   2.385   3.765   3.871
 1526HOH     H1 4783   2.378   3.833   3.939
 1526HOH     H2 4784   2.447   3.702   3.907
 1527HOH      O 4785   3.033   1.115   2.943
 1527HOH     H1 4786   3.109   1.058   2.928
 1527HOH     H2 4787   3.039   1.139   3.036
 1528HOH      O 4788   3.486   2.207   3.828
 1528HOH     H1 4789   3.537   2.238   3.753
 1528HOH     H2 4790   3.405   2.175   3.790
 1529HOH      O 4791   0.390   2.940   1.366
 1529HOH     H1 4792   0.327   2.894   1.421
 1529HOH     H2 4793   0.350   3.025   1.348
 1530HOH      O 4794   3.737   2.630   3.719
 1530HOH     H1 4795   3.776   2.623   3.632
 1530HOH     H2 4796   3.644   2.643   3.703
 1531HOH      O 4797   3.926   3.522   1.324
 1531HOH     H1 4798   3.853   3.550   1.268
 1531HOH     H2 4799   3.979   3.600   1.335
 1532HOH      O 4800   0.252   1.648   2.941
 1532HOH     H1 4801   0.256   1.642   3.036
 1532HOH     H2 4802   0.162   1.621   2.919
 1533HOH      O 4803   0.501   2.977   3.541
 1533HOH     H1 4804   0.555   2.953   3.615
 1533HOH     H2 4805   0.563   2.999   3.471
 1534HOH      O 4806   0.349   2.336   0.863
 1534HOH     H1 4807   0.327   2.314   0.953
 1534HOH     H2 4808   0.445   2.338   0.861
 1535HOH      O 4809   2.082   4.004   3.411
 1535HOH     H1 4810   2.039   4.032   3.330
 1535HOH     H2 4811   2.026   4.039   3.481
 1536HOH      O 4812   1.045   1.996   2.734
 1536HOH     H1 4813   1.114   1.959   2.790
 1536HOH     H2 4814   0.964   1.957   2.767
 1537HOH      O 4815   2.300   0.678   1.462
 1537HOH     H1 4816   2.243   0.601   1.463
 1537HOH     H2 4817   2.374   0.651   1.407
 1538HOH      O 4818   3.633   3.413   1.698
 1538HOH     H1 4819   3.592   3.499   1.693
 1538HOH     H2 4820   3.573   3.355   1.651
 1539HOH      O 4821   4.033   4.007   1.464
 1539HOH     H1 4822   4.054   4.028   1.555
 1539HOH     H2 4823   3.938   4.017   1.458
 1540HOH      O 4824   0.070   2.366   1.255
 1540HOH     H1 4825  -0.012   2.356   1.207
 1540HOH     H2 4826   0.042   2.383   1.345
 1541HOH      O 4827   2.041   3.264   1.825
 1541HOH     H1 4828   1.974   3.331   1.836
 1541HOH     H2 4829   2.005   3.187   1.871
 1542HOH      O 4830   0.080   2.093   3.608
 1542HOH     H1 4831   0.104   2.049   3.690
 1542HOH     H2 4832   0.153   2.153   3.591
 1543HOH      O 4833   3.203   3.425   3.972
 1543HOH     H1 4834   3.224   3.335   3.947
 1543HOH     H2 4835   3.250   3.479   3.908
 1544HOH      O 4836   1.198   3.304   0.550
 1544HOH     H1 4837   1.116   3.345   0.522
 1544HOH     H2 4838   1.195   3.217   0.511
 1545HOH      O 4839   0.613   0.625   3.911
 1545HOH     H1 4840   0.544   0.631   3.977
 1545HOH     H2 4841   0.577   0.671   3.835
 1546HOH      O 4842   2.421   2.997   0.246
 1546HOH     H1 4843   2.468   2.923   0.206
 1546HOH     H2 4844   2.458   3.074   0.203
 1547HOH      O 4845   3.418   1.564   1.600
 1547HOH     H1 4846   3.410   1.658   1.618
 1547HOH     H2 4847   3.349   1.546   1.537
 1548HOH      O 4848   0.388   2.550   2.569
 1548HOH     H1 4849   0.370   2.465   2.528
 1548HOH     H2 4850   0.303   2.581   2.598
 1549HOH      O 4851   1.035   1.223   0.982
 1549HOH     H1 4852   1.070   1.231   0.894
 1549HOH     H2 4853   0.963   1.159   0.973
 1550HOH      O 4854   0.788   3.775   2.365
 1550HOH     H1 4855   0.759   3.692   2.404
 1550HOH     H2 4856   0.841   3.748   2.290
 1551HOH      O 4857   0.055   0.773   2.741
 1551HOH     H1 4858   0.080   0.862   2.766
 1551HOH     H2 4859  -0.021   0.754   2.796
 1552HOH      O 4860   2.678   4.044   0.736
 1552HOH     H1 4861   2.694   3.950   0.733
 1552HOH     H2 4862   2.666   4.064   0.829
 1553HOH      O 4863   0.445   2.056   0.182
 1553HOH     H1 4864   0.375   2.113   0.151
 1553HOH     H2 4865   0.443   2.064   0.277
 1554HOH      O 4866   1.182   1.007   0.214
 1554HOH     H1 4867   1.178   0.947   0.140
 1554HOH     H2 4868   1.212   1.090   0.177
 1555HOH      O 4869   0.168   2.910   1.545
 1555HOH     H1 4870   0.147   2.828   1.589
 1555HOH     H2 4871   0.222   2.958   1.608
 1556HOH      O 4872   2.371   3.418   1.230
 1556HOH     H1 4873   2.437   3.478   1.195
 1556HOH     H2 4874   2.422   3.349   1.273
 1557HOH      O 4875   1.364   1.899   0.779
 1557HOH     H1 4876   1.370   1.906   0.875
 1557HOH     H2 4877   1.283   1.946   0.758
 1558HOH      O 4878   1.019   3.462   2.551
 1558HOH     H1 4879   0.998   3.506   2.633
 1558HOH     H2 4880   0.964   3.505   2.486
 1559HOH      O 4881   1.678   0.577   1.927
 1559HOH     H1 4882   1.770   0.549   1.931
 1559HOH     H2 4883   1.683   0.669   1.901
 1560HOH      O 4884   0.473   0.259   0.205
 1560HOH     H1 4885   0.450   0.198   0.276
 1560HOH     H2 4886   0.461   0.346   0.244
 1561HOH      O 4887   3.321   3.687   1.872
 1561HOH     H1 4888   3.271   3.687   1.954
 1561HOH     H2 4889   3.341   3.779   1.857
 1562HOH      O 4890   0.861   1.255   2.727
 1562HOH     H1 4891   0.820   1.221   2.648
 1562HOH     H2 4892   0.823   1.343   2.737
 1563HOH      O 4893   0.206   3.314   0.169
 1563HOH     H1 4894   0.160   3.398   0.166
 1563HOH     H2 4895   0.136   3.249   0.179
 1564HOH      O 4896   2.040   0.054   3.968
 1564HOH     H1 4897   2.114   0.016   3.921
 1564HOH     H2 4898   2.000   0.115   3.906
 1565HOH      O 4899   1.868   0.769   1.083
 1565HOH     H1 4900   1.936   0.819   1.128
 1565HOH     H2 4901   1.850   0.818   1.003
 1566HOH      O 4902   0.857   0.167   3.289
 1566HOH     H1 4903   0.876   0.116   3.368
 1566HOH     H2 4904   0.855   0.103   3.219
 1567HOH      O 4905   1.322   0.883   2.979
 1567HOH     H1 4906   1.353   0.825   3.049
 1567HOH     H2 4907   1.335   0.971   3.014
 1568HOH      O 4908   0.376   1.501   1.139
 1568HOH     H1 4909   0.362   1.423   1.085
 1568HOH     H2 4910   0.469   1.521   1.130
 1569HOH      O 4911   0.397   2.989   1.693
 1569HOH     H1 4912   0.452   3.065   1.675
 1569HOH     H2 4913   0.458   2.915   1.694
 1570HOH      O 4914   2.178   0.450   0.732
 1570HOH     H1 4915   2.198   0.542   0.748
 1570HOH     H2 4916   2.263   0.407   0.730
 1571HOH      O 4917   2.288   3.533   0.164
 1571HOH     H1 4918   2.251   3.464   0.219
 1571HOH     H2 4919   2.216   3.595   0.153
 1572HOH      O 4920   1.486   3.642   3.379
 1572HOH     H1 4921   1.451   3.673   3.463
 1572HOH     H2 4922   1.448   3.555   3.368
 1573HOH      O 4923   3.826   3.965   0.566
 1573HOH     H1 4924   3.882   4.038   0.594
 1573HOH     H2 4925   3.766   3.952   0.639
 1574HOH      O 4926   3.240   0.397   1.891
 1574HOH     H1 4927   3.317   0.422   1.840
 1574HOH     H2 4928   3.168   0.444   1.850
 1575HOH      O 4929   0.109   0.829   1.169
 1575HOH     H1 4930   0.028   0.780   1.153
 1575HOH     H2 4931   0.150   0.783   1.243
 1576HOH      O 4932   1.356   1.663   3.592
 1576HOH     H1 4933   1.394   1.683   3.677
 1576HOH     H2 4934   1.417   1.701   3.529
 1577HOH      O 4935   3.446   3.242   0.923
 1577HOH     H1 4936   3.388   3.180   0.966
 1577HOH     H2 4937   3.533   3.219   0.955
 1578HOH      O 4938   0.526   1.816   3.349
 1578HOH     H1 4939   0.572   1.742   3.308
 1578HOH     H2 4940   0.543   1.805   3.442
 1579HOH      O 4941   2.535   1.938   3.459
 1579HOH     H1 4942   2.533   1.872   3.528
 1579HOH     H2 4943   2.586   2.010   3.496
 1580HOH      O 4944   3.908   1.833   3.953
 1580HOH     H1 4945   4.004   1.835   3.957
 1580HOH     H2 4946   3.885   1.744   3.979
 1581HOH      O 4947   2.832   0.398   3.752
 1581HOH     H1 4948   2.855   0.485   3.720
 1581HOH     H2 4949   2.830   0.343   3.674
 1582HOH      O 4950   3.973   0.158   0.675
 1582HOH     H1 4951   4.054   0.195   0.639
 1582HOH     H2 4952   3.905   0.222   0.653
 1583HOH      O 4953   2.936   1.164   0.540
 1583HOH     H1 4954   3.025   1.136   0.558
 1583HOH     H2 4955   2.881   1.091   0.568
 1584HOH      O 4956   2.249   1.046   2.829
 1584HOH     H1 4957   2.322   1.079   2.776
 1584HOH     H2 4958   2.276   1.062   2.919
 1585HOH      O 4959   1.560   3.297   0.725
 1585HOH     H1 4960   1.641   3.343   0.747
 1585HOH     H2 4961   1.505   3.363   0.682
 1586HOH      O 4962   1.023   3.203   0.244
 1586HOH     H1 4963   1.035   3.296   0.227
 1586HOH     H2 4964   1.075   3.159   0.177
 1587HOH      O 4965   1.898   0.581   0.604
 1587HOH     H1 4966   1.820   0.546   0.647
 1587HOH     H2 4967   1.971   0.543   0.652
 1588HOH      O 4968   2.082   2.490   0.539
 1588HOH     H1 4969   2.158   2.538   0.507
 1588HOH     H2 4970   2.024   2.558   0.575
 1589HOH      O 4971   2.154   1.613   1.337
 1589HOH     H1 4972   2.198   1.566   1.266
 1589HOH     H2 4973   2.068   1.635   1.301
 1590HOH      O 4974   3.885   0.191   3.435
 1590HOH     H1 4975   3.845   0.271   3.469
 1590HOH     H2 4976   3.944   0.221   3.366
 1591HOH      O 4977   0.665   3.029   1.307
 1591HOH     H1 4978   0.602   2.962   1.336
 1591HOH     H2 4979   0.735   2.979   1.266
 1592HOH      O 4980   1.780   0.599   3.997
 1592HOH     H1 4981   1.723   0.539   4.046
 1592HOH     H2 4982   1.732   0.620   3.918
 1593HOH      O 4983   0.464   3.234   1.979
 1593HOH     H1 4984   0.473   3.186   1.897
 1593HOH     H2 4985   0.544   3.287   1.984
 1594HOH      O 4986   2.712   0.979   3.579
 1594HOH     H1 4987   2.686   1.046   3.643
 1594HOH     H2 4988   2.703   0.896   3.627
 1595HOH      O 4989   2.399   1.925   2.261
 1595HOH     H1 4990   2.345   1.873   2.321
 1595HOH     H2 4991   2.335   1.972   2.207
 1596HOH      O 4992   1.137   0.109   1.357
 1596HOH     H1 4993   1.155   0.189   1.407
 1596HOH     H2 4994   1.073   0.137   1.291
 1597HOH      O 4995   0.708   1.947   1.595
 1597HOH     H1 4996   0.779   1.894   1.561
 1597HOH     H2 4997   0.702   2.021   1.534
 1598HOH      O 4998   3.515   0.743   2.938
 1598HOH     H1 4999   3.489   0.651   2.949
 1598HOH     H2 5000   3.450   0.792   2.989
 1599HOH      O 5001   0.139   3.448   1.650
 1599HOH     H1 5002   0.102   3.383   1.708
 1599HOH     H2 5003   0.181   3.397   1.580
 1600HOH      O 5004   3.763   3.323   0.334
 1600HOH     H1 5005   3.682   3.331   0.383
 1600HOH     H2 5006   3.831   3.358   0.392
 1601HOH      O 5007   1.118   2.974   1.726
 1601HOH     H1 5008   1.099   2.992   1.634
 1601HOH     H2 5009   1.200   3.022   1.743
 1602HOH      O 5010   0.068   3.856   3.076
 1602HOH     H1 5011   0.057   3.817   2.989
 1602HOH     H2 5012   0.058   3.950   3.062
 1603HOH      O 5013   2.085   3.290   3.990
 1603HOH     H1 5014   2.148   3.362   3.993
 1603HOH     H2 5015   2.105   3.236   4.066
 1604HOH      O 5016   3.740   1.952   0.369
 1604HOH     H1 5017   3.834   1.947   0.356
 1604HOH     H2 5018   3.708   1.864   0.349
 1605HOH      O 5019   1.011   3.242   1.896
 1605HOH     H1 5020   0.994   3.163   1.845
 1605HOH     H2 5021   1.071   3.293   1.842
 1606HOH      O 5022   2.790   2.906   0.246
 1606HOH     H1 5023   2.736   2.941   0.317
 1606HOH     H2 5024   2.870   2.878   0.289
 1607HOH      O 5025   2.573   0.088   1.074
 1607HOH     H1 5026   2.548   0.086   1.166
 1607HOH     H2 5027   2.514   0.153   1.035
 1608HOH      O 5028   0.255   0.659   2.597
 1608HOH     H1 5029   0.193   0.717   2.641
 1608HOH     H2 5030   0.203   0.616   2.529
 1609HOH      O 5031   0.780   2.705   1.546
 1609HOH     H1 5032   0.841   2.749   1.488
 1609HOH     H2 5033   0.835   2.651   1.603
 1610HOH      O 5034   3.322   0.945   3.832
 1610HOH     H1 5035   3.340   0.851   3.837
 1610HOH     H2 5036   3.326   0.975   3.923
 1611HOH      O 5037   0.042   2.060   1.585
 1611HOH     H1 5038   0.007   2.149   1.583
 1611HOH     H2 5039  -0.035   2.005   1.602
 1612HOH      O 5040   2.171   3.571   0.876
 1612HOH     H1 5041   2.129   3.613   0.800
 1612HOH     H2 5042   2.265   3.588   0.863
 1613HOH      O 5043   0.869   1.024   3.818
 1613HOH     H1 5044   0.916   1.087   3.764
 1613HOH     H2 5045   0.836   1.076   3.892
 1614HOH      O 5046   1.142   1.539   1.986
 1614HOH     H1 5047   1.085   1.566   1.914
 1614HOH     H2 5048   1.084   1.537   2.063
 1615HOH      O 5049   1.474   0.991   0.070
 1615HOH     H1 5050   1.474   0.914   0.013
 1615HOH     H2 5051   1.436   1.061   0.016
 1616HOH      O 5052   1.011   2.454   2.555
 1616HOH     H1 5053   0.924   2.456   2.514
 1616HOH     H2 5054   1.068   2.499   2.493
 1617HOH      O 5055   0.704   3.945   3.441
 1617HOH     H1 5056   0.645   3.930   3.515
 1617HOH     H2 5057   0.651   3.992   3.377
 1618HOH      O 5058   3.185   2.793   0.652
 1618HOH     H1 5059   3.207   2.855   0.722
 1618HOH     H2 5060   3.160   2.713   0.698
 1619HOH      O 5061   0.317   2.713   3.687
 1619HOH     H1 5062   0.343   2.659   3.762
 1619HOH     H2 5063   0.241   2.762   3.718
 1620HOH      O 5064   2.013   0.410   1.000
 1620HOH     H1 5065   2.101   0.374   0.988
 1620HOH     H2 5066   1.973   0.407   0.913
 1621HOH      O 5067   1.758   2.359   3.553
 1621HOH     H1 5068   1.702   2.298   3.506
 1621HOH     H2 5069   1.841   2.312   3.563
 1622HOH      O 5070   0.905   2.381   0.289
 1622HOH     H1 5071   0.951   2.421   0.215
 1622HOH     H2 5072   0.814   2.411   0.279
 1623HOH      O 5073   1.509   3.821   1.301
 1623HOH     H1 5074   1.603   3.836   1.301
 1623HOH     H2 5075   1.490   3.792   1.211
 1624HOH      O 5076   1.746   1.529   3.211
 1624HOH     H1 5077   1.776   1.514   3.121
 1624HOH     H2 5078   1.693   1.609   3.204
 1625HOH      O 5079   2.311   3.205   1.854
 1625HOH     H1 5080   2.342   3.295   1.859
 1625HOH     H2 5081   2.216   3.213   1.845
 1626HOH      O 5082   3.978   1.095   3.131
 1626HOH     H1 5083   3.938   1.038   3.065
 1626HOH     H2 5084   4.047   1.141   3.083
 1627HOH      O 5085   1.715   0.577   1.272
 1627HOH     H1 5086   1.785   0.548   1.214
 1627HOH     H2 5087   1.637   0.532   1.240
 1628HOH      O 5088   0.377   0.383   3.073
 1628HOH     H1 5089   0.418   0.394   3.159
 1628HOH     H2 5090   0.404   0.460   3.024
 1629HOH      O 5091   3.535   0.862   1.204
 1629HOH     H1 5092   3.520   0.918   1.280
 1629HOH     H2 5093   3.462   0.880   1.145
 1630HOH      O 5094   0.314   3.856   3.192
 1630HOH     H1 5095   0.221   3.837   3.178
 1630HOH     H2 5096   0.323   3.949   3.172
 1631HOH      O 5097   2.523   2.059   2.054
 1631HOH     H1 5098   2.489   1.974   2.080
 1631HOH     H2 5099   2.601   2.040   2.002
 1632HOH      O 5100   3.692   1.633   3.168
 1632HOH     H1 5101   3.780   1.662   3.144
 1632HOH     H2 5102   3.696   1.620   3.263
 1633HOH      O 5103   0.980   3.956   1.465
 1633HOH     H1 5104   1.034   3.878   1.455
 1633HOH     H2 5105   1.034   4.028   1.434
 1634HOH      O 5106   2.928   3.318   1.583
 1634HOH     H1 5107   2.881   3.248   1.538
 1634HOH     H2 5108   2.917   3.300   1.676
 1635HOH      O 5109   2.411   3.734   3.595
 1635HOH     H1 5110   2.410   3.757   3.688
 1635HOH     H2 5111   2.319   3.718   3.573
 1636HOH      O 5112   3.038   2.920   0.398
 1636HOH     H1 5113   3.110   2.893   0.342
 1636HOH     H2 5114   3.035   2.854   0.468
 1637HOH      O 5115   1.862   1.804   2.579
 1637HOH     H1 5116   1.814   1.845   2.507
 1637HOH     H2 5117   1.927   1.748   2.536
 1638HOH      O 5118   2.116   2.427   2.749
 1638HOH     H1 5119   2.052   2.389   2.689
 1638HOH     H2 5120   2.166   2.489   2.696
 1639HOH      O 5121   2.201   2.739   3.474
 1639HOH     H1 5122   2.235   2.791   3.547
 1639HOH     H2 5123   2.197   2.801   3.401
 1640HOH      O 5124   3.981   0.085   1.780
 1640HOH     H1 5125   3.903   0.073   1.835
 1640HOH     H2 5126   3.956   0.152   1.717
 1641HOH      O 5127   1.055   0.521  -0.034
 1641HOH     H1 5128   1.015   0.593   0.016
 1641HOH     H2 5129   1.092   0.463   0.032
 1642HOH      O 5130   2.548   0.135   1.347
 1642HOH     H1 5131   2.615   0.197   1.319
 1642HOH     H2 5132   2.476   0.189   1.377
 1643HOH      O 5133   3.376   2.829   1.309
 1643HOH     H1 5134   3.395   2.767   1.380
 1643HOH     H2 5135   3.462   2.858   1.279
 1644HOH      O 5136   1.997   0.666   1.605
 1644HOH     H1 5137   1.973   0.694   1.694
 1644HOH     H2 5138   2.086   0.697   1.593
 1645HOH      O 5139   0.270   2.409   1.961
 1645HOH     H1 5140   0.308   2.393   2.047
 1645HOH     H2 5141   0.263   2.321   1.922
 1646HOH      O 5142   0.486   0.280   1.913
 1646HOH     H1 5143   0.406   0.267   1.964
 1646HOH     H2 5144   0.530   0.195   1.918
 1647HOH      O 5145   3.875   2.470   0.071
 1647HOH     H1 5146   3.805   2.528   0.100
 1647HOH     H2 5147   3.830   2.406   0.015
 1648HOH      O 5148   3.269   2.712   1.980
 1648HOH     H1 5149   3.222   2.793   2.000
 1648HOH     H2 5150   3.214   2.642   2.017
 1649HOH      O 5151   2.155   2.312   3.251
 1649HOH     H1 5152   2.225   2.259   3.291
 1649HOH     H2 5153   2.195   2.398   3.239
 1650HOH      O 5154   3.114   2.937   2.041
 1650HOH     H1 5155   3.127   3.032   2.046
 1650HOH     H2 5156   3.078   2.923   1.954
 1651HOH      O 5157   3.610   2.211   2.171
 1651HOH     H1 5158   3.639   2.173   2.253
 1651HOH     H2 5159   3.661   2.166   2.104
 1652HOH      O 5160   1.193   3.608   3.209
 1652HOH     H1 5161   1.116   3.658   3.183
 1652HOH     H2 5162   1.172   3.517   3.187
 1653HOH      O 5163   2.093   2.295   0.753
 1653HOH     H1 5164   2.084   2.356   0.827
 1653HOH     H2 5165   2.104   2.353   0.677
 1654HOH      O 5166   0.514   2.712   0.337
 1654HOH     H1 5167   0.472   2.709   0.251
 1654HOH     H2 5168   0.441   2.708   0.400
 1655HOH      O 5169   3.919   1.949   3.492
 1655HOH     H1 5170   3.905   1.863   3.532
 1655HOH     H2 5171   3.991   1.987   3.542
 1656HOH      O 5172   0.920   1.021   1.443
 1656HOH     H1 5173   0.970   1.040   1.523
 1656HOH     H2 5174   0.831   1.002   1.474
 1657HOH      O 5175   0.007   3.313   0.709
 1657HOH     H1 5176   0.068   3.334   0.638
 1657HOH     H2 5177   0.032   3.372   0.780
 1658HOH      O 5178   2.113   0.468   1.442
 1658HOH     H1 5179   2.058   0.505   1.374
 1658HOH     H2 5180   2.071   0.496   1.524
 1659HOH      O 5181   3.681   2.562   1.699
 1659HOH     H1 5182   3.692   2.572   1.794
 1659HOH     H2 5183   3.641   2.645   1.672
 1660HOH      O 5184   1.895   2.327   1.379
 1660HOH     H1 5185   1.888   2.368   1.292
 1660HOH     H2 5186   1.989   2.313   1.391
 1661HOH      O 5187   2.221   3.031   2.982
 1661HOH     H1 5188   2.259   3.114   3.012
 1661HOH     H2 5189   2.132   3.053   2.957
 1662HOH      O 5190   1.379   2.775   2.174
 1662HOH     H1 5191   1.316   2.775   2.246
 1662HOH     H2 5192   1.424   2.859   2.181
 1663HOH      O 5193   0.370   0.950   1.745
 1663HOH     H1 5194   0.372   0.915   1.656
 1663HOH     H2 5195   0.341   0.876   1.799
 1664HOH      O 5196   0.985   3.855   3.312
 1664HOH     H1 5197   0.983   3.900   3.227
 1664HOH     H2 5198   0.922   3.903   3.366
 1665HOH      O 5199   2.724   2.918   2.004
 1665HOH     H1 5200   2.776   2.957   1.934
 1665HOH     H2 5201   2.634   2.921   1.972
 1666HOH      O 5202   2.151   1.400   3.664
 1666HOH     H1 5203   2.111   1.440   3.587
 1666HOH     H2 5204   2.233   1.449   3.677
 1667HOH      O 5205   0.259   3.149   3.293
 1667HOH     H1 5206   0.172   3.113   3.275
 1667HOH     H2 5207   0.307   3.078   3.334
 1668HOH      O 5208   3.253   1.603   2.220
 1668HOH     H1 5209   3.328   1.578   2.273
 1668HOH     H2 5210   3.217   1.681   2.263
 1669HOH      O 5211   2.457   2.994   3.343
 1669HOH     H1 5212   2.427   3.068   3.396
 1669HOH     H2 5213   2.377   2.949   3.316
 1670HOH      O 5214   1.747   1.176   0.908
 1670HOH     H1 5215   1.820   1.142   0.857
 1670HOH     H2 5216   1.776   1.263   0.938
 1671HOH      O 5217   3.947   2.902   0.283
 1671HOH     H1 5218   3.873   2.842   0.285
 1671HOH     H2 5219   3.947   2.942   0.370
 1672HOH      O 5220   2.352   3.933   0.826
 1672HOH     H1 5221   2.356   3.944   0.731
 1672HOH     H2 5222   2.259   3.919   0.844
 1673HOH      O 5223   0.988   1.338   2.942
 1673HOH     H1 5224   0.927   1.286   2.890
 1673HOH     H2 5225   0.966   1.318   3.032
 1674HOH      O 5226   2.984   2.926   1.813
 1674HOH     H1 5227   2.959   3.009   1.772
 1674HOH     H2 5228   2.963   2.859   1.748
 1675HOH      O 5229   2.379   2.554   3.376
 1675HOH     H1 5230   2.312   2.614   3.409
 1675HOH     H2 5231   2.462   2.598   3.395
 1676HOH      O 5232   1.860   3.017   2.446
 1676HOH     H1 5233   1.845   2.924   2.432
 1676HOH     H2 5234   1.775   3.052   2.473
 1677HOH      O 5235   3.488   3.940   1.037
 1677HOH     H1 5236   3.463   3.848   1.049
 1677HOH     H2 5237   3.412   3.990   1.067
 1678HOH      O 5238   2.055   1.285   2.689
 1678HOH     H1 5239   2.040   1.378   2.675
 1678HOH     H2 5240   2.116   1.260   2.619
 1679HOH      O 5241   0.381   1.253   3.862
 1679HOH     H1 5242   0.454   1.214   3.814
 1679HOH     H2 5243   0.394   1.223   3.952
 1680HOH      O 5244   1.681   1.298   2.074
 1680HOH     H1 5245   1.741   1.277   2.145
 1680HOH     H2 5246   1.713   1.381   2.039
 1681HOH      O 5247   2.436   3.463   1.877
 1681HOH     H1 5248   2.472   3.532   1.822
 1681HOH     H2 5249   2.438   3.499   1.966
 1682HOH      O 5250   3.792   0.505   0.798
 1682HOH     H1 5251   3.801   0.460   0.714
 1682HOH     H2 5252   3.800   0.598   0.775
 1683HOH      O 5253   1.105   2.298   3.684
 1683HOH     H1 5254   1.145   2.227   3.635
 1683HOH     H2 5255   1.144   2.377   3.647
 1684HOH      O 5256   1.454   0.770   3.969
 1684HOH     H1 5257   1.474   0.797   3.879
 1684HOH     H2 5258   1.457   0.675   3.967
 1685HOH      O 5259   2.658   0.603   3.996
 1685HOH     H1 5260   2.566   0.630   4.001
 1685HOH     H2 5261   2.656   0.516   3.958
 1686HOH      O 5262   0.749   2.362   2.173
 1686HOH     H1 5263   0.807   2.342   2.100
 1686HOH     H2 5264   0.754   2.457   2.183
 1687HOH      O 5265   2.977   2.014   1.103
 1687HOH     H1 5266   2.899   1.958   1.101
 1687HOH     H2 5267   2.953   2.085   1.163
 1688HOH      O 5268   1.782   1.063   2.558
 1688HOH     H1 5269   1.808   1.108   2.477
 1688HOH     H2 5270   1.698   1.024   2.537
 1689HOH      O 5271   2.219   3.524   2.870
 1689HOH     H1 5272   2.216   3.532   2.775
 1689HOH     H2 5273   2.131   3.494   2.894
 1690HOH      O 5274   0.790   3.117   1.660
 1690HOH     H1 5275   0.733   3.192   1.640
 1690HOH     H2 5276   0.875   3.141   1.624
 1691HOH      O 5277   3.566   2.351   0.242
 1691HOH     H1 5278   3.591   2.314   0.157
 1691HOH     H2 5279   3.597   2.287   0.306
 1692HOH      O 5280   2.014   3.221   0.402
 1692HOH     H1 5281   2.011   3.130   0.372
 1692HOH     H2 5282   1.928   3.256   0.382
 1693HOH      O 5283   1.186   2.004   3.984
 1693HOH     H1 5284   1.123   2.072   4.009
 1693HOH     H2 5285   1.168   1.988   3.892
 1694HOH      O 5286   2.375   0.188   0.818
 1694HOH     H1 5287   2.383   0.093   0.831
 1694HOH     H2 5288   2.351   0.221   0.905
 1695HOH      O 5289   3.314   3.411   2.500
 1695HOH     H1 5290   3.375   3.366   2.442
 1695HOH     H2 5291   3.327   3.371   2.585
 1696HOH      O 5292   3.023   3.731   3.752
 1696HOH     H1 5293   2.932   3.763   3.755
 1696HOH     H2 5294   3.039   3.695   3.839
 1697HOH      O 5295   0.964   3.609   2.811
 1697HOH     H1 5296   0.882   3.642   2.849
 1697HOH     H2 5297   0.990   3.677   2.749
 1698HOH      O 5298   0.130   3.436   2.970
 1698HOH     H1 5299   0.111   3.447   2.877
 1698HOH     H2 5300   0.200   3.498   2.988
 1699HOH      O 5301   1.973   2.203   3.517
 1699HOH     H1 5302   2.033   2.128   3.518
 1699HOH     H2 5303   2.030   2.279   3.532
 1700HOH      O 5304   3.909   1.743   3.672
 1700HOH     H1 5305   3.887   1.784   3.756
 1700HOH     H2 5306   3.965   1.669   3.696
 1701HOH      O 5307   2.674   2.570   2.366
 1701HOH     H1 5308   2.724   2.636   2.318
 1701HOH     H2 5309   2.597   2.553   2.312
 1702HOH      O 5310   1.087   1.850   1.607
 1702HOH     H1 5311   1.007   1.798   1.616
 1702HOH     H2 5312   1.060   1.939   1.630
 1703HOH      O 5313   0.898   2.617   0.087
 1703HOH     H1 5314   0.926   2.685   0.148
 1703HOH     H2 5315   0.946   2.637   0.006
 1704HOH      O 5316   3.887   2.798   1.628
 1704HOH     H1 5317   3.857   2.788   1.719
 1704HOH     H2 5318   3.939   2.878   1.628
 1705HOH      O 5319   2.162   3.969   3.127
 1705HOH     H1 5320   2.121   4.024   3.060
 1705HOH     H2 5321   2.091   3.914   3.161
 1706HOH      O 5322   1.420   3.472   0.273
 1706HOH     H1 5323   1.411   3.406   0.205
 1706HOH     H2 5324   1.420   3.423   0.355
 1707HOH      O 5325   1.684   2.414   2.439
 1707HOH     H1 5326   1.619   2.482   2.422
 1707HOH     H2 5327   1.759   2.437   2.383
 1708HOH      O 5328   1.698   3.110   1.694
 1708HOH     H1 5329   1.703   3.186   1.751
 1708HOH     H2 5330   1.647   3.046   1.744
 1709HOH      O 5331   3.596   0.144   3.217
 1709HOH     H1 5332   3.646   0.111   3.143
 1709HOH     H2 5333   3.639   0.226   3.241
 1710HOH      O 5334   3.223  -0.026   0.642
 1710HOH     H1 5335   3.283   0.025   0.696
 1710HOH     H2 5336   3.136   0.003   0.669
 1711HOH      O 5337   2.662   1.074   0.915
 1711HOH     H1 5338   2.739   1.041   0.961
 1711HOH     H2 5339   2.626   1.141   0.974
 1712HOH      O 5340   2.371   3.119   3.899
 1712HOH     H1 5341   2.438   3.132   3.967
 1712HOH     H2 5342   2.374   3.199   3.847
 1713HOH      O 5343   0.219   1.439   0.143
 1713HOH     H1 5344   0.214   1.528   0.179
 1713HOH     H2 5345   0.301   1.404   0.178
 1714HOH      O 5346   3.255   0.022   0.931
 1714HOH     H1 5347   3.308   0.101   0.932
 1714HOH     H2 5348   3.170   0.050   0.966
 1715HOH      O 5349   3.545   1.925   0.919
 1715HOH     H1 5350   3.468   1.981   0.924
 1715HOH     H2 5351   3.568   1.924   0.826
 1716HOH      O 5352   3.253   2.190   3.070
 1716HOH     H1 5353   3.188   2.127   3.098
 1716HOH     H2 5354   3.332   2.138   3.056
 1717HOH      O 5355   3.190   3.731   0.155
 1717HOH     H1 5356   3.178   3.787   0.231
 1717HOH     H2 5357   3.225   3.650   0.190
 1718HOH      O 5358   3.278   2.860   3.759
 1718HOH     H1 5359   3.217   2.921   3.799
 1718HOH     H2 5360   3.284   2.888   3.668
 1719HOH      O 5361   1.269   2.010   2.140
 1719HOH     H1 5362   1.284   2.019   2.046
 1719HOH     H2 5363   1.352   1.977   2.175
 1720HOH      O 5364   1.444   1.194   0.266
 1720HOH     H1 5365   1.510   1.128   0.245
 1720HOH     H2 5366   1.375   1.180   0.200
 1721HOH      O 5367   1.847   2.853   0.939
 1721HOH     H1 5368   1.842   2.947   0.923
 1721HOH     H2 5369   1.933   2.840   0.979
 1722HOH      O 5370   1.397   3.479   0.617
 1722HOH     H1 5371   1.334   3.515   0.680
 1722HOH     H2 5372   1.352   3.403   0.579
 1723HOH      O 5373   1.927   1.573   0.009
 1723HOH     H1 5374   1.973   1.655  -0.006
 1723HOH     H2 5375   1.996   1.510   0.031
 1724HOH      O 5376   3.826   3.678   0.693
 1724HOH     H1 5377   3.828   3.770   0.664
 1724HOH     H2 5378   3.749   3.641   0.650
 1725HOH      O 5379   3.043   0.533   2.575
 1725HOH     H1 5380   2.965   0.564   2.529
 1725HOH     H2 5381   3.044   0.581   2.657
 1726HOH      O 5382   3.477   1.847   1.643
 1726HOH     H1 5383   3.385   1.874   1.643
 1726HOH     H2 5384   3.519   1.905   1.707
 1727HOH      O 5385   0.126   3.382   3.271
 1727HOH     H1 5386   0.180   3.305   3.281
 1727HOH     H2 5387   0.179   3.443   3.219
 1728HOH      O 5388   2.847   0.582   0.189
 1728HOH     H1 5389   2.825   0.569   0.281
 1728HOH     H2 5390   2.763   0.574   0.143
 1729HOH      O 5391   1.820   3.364   0.836
 1729HOH     H1 5392   1.846   3.424   0.766
 1729HOH     H2 5393   1.841   3.410   0.917
 1730HOH      O 5394   0.686   0.613   1.179
 1730HOH     H1 5395   0.734   0.543   1.135
 1730HOH     H2 5396   0.596   0.581   1.185
 1731HOH      O 5397   2.873   2.096   3.358
 1731HOH     H1 5398   2.961   2.133   3.362
 1731HOH     H2 5399   2.886   2.002   3.370
 1732HOH      O 5400   3.362   3.809   0.517
 1732HOH     H1 5401   3.288   3.755   0.543
 1732HOH     H2 5402   3.342   3.896   0.553
 1733HOH      O 5403   0.055   2.556   1.002
 1733HOH     H1 5404   0.077   2.635   1.051
 1733HOH     H2 5405   0.056   2.486   1.067
 1734HOH      O 5406   3.004   3.633   1.668
 1734HOH     H1 5407   3.060   3.562   1.699
 1734HOH     H2 5408   2.995   3.618   1.574
 1735HOH      O 5409   2.289   0.257   2.423
 1735HOH     H1 5410   2.329   0.262   2.336
 1735HOH     H2 5411   2.202   0.294   2.410
 1736HOH      O 5412   1.840   0.804   0.134
 1736HOH     H1 5413   1.837   0.739   0.064
 1736HOH     H2 5414   1.920   0.784   0.182
 1737HOH      O 5415   0.924   1.461   2.135
 1737HOH     H1 5416   0.939   1.372   2.164
 1737HOH     H2 5417   0.844   1.488   2.181
 1738HOH      O 5418   1.322   2.264   2.324
 1738HOH     H1 5419   1.302   2.317   2.247
 1738HOH     H2 5420   1.418   2.259   2.325
 1739HOH      O 5421   1.710   4.023   3.690
 1739HOH     H1 5422   1.792   4.071   3.700
 1739HOH     H2 5423   1.733   3.947   3.636
 1740HOH      O 5424   1.162   1.704   2.375
 1740HOH     H1 5425   1.215   1.630   2.404
 1740HOH     H2 5426   1.194   1.778   2.426
 1741HOH      O 5427   2.880   3.135   0.636
 1741HOH     H1 5428   2.967   3.159   0.605
 1741HOH     H2 5429   2.847   3.214   0.678
 1742HOH      O 5430   2.572   3.698   2.582
 1742HOH     H1 5431   2.530   3.784   2.583
 1742HOH     H2 5432   2.640   3.704   2.649
 1743HOH      O 5433   2.423   3.637   0.845
 1743HOH     H1 5434   2.471   3.678   0.773
 1743HOH     H2 5435   2.447   3.689   0.922
 1744HOH      O 5436   1.797   2.236   0.188
 1744HOH     H1 5437   1.849   2.250   0.268
 1744HOH     H2 5438   1.736   2.310   0.186
 1745HOH      O 5439   3.596   1.872   2.387
 1745HOH     H1 5440   3.546   1.881   2.306
 1745HOH     H2 5441   3.529   1.863   2.455
 1746HOH      O 5442   2.769   0.306   0.842
 1746HOH     H1 5443   2.725   0.284   0.760
 1746HOH     H2 5444   2.706   0.360   0.890
 1747HOH      O 5445   1.837   2.756   2.382
 1747HOH     H1 5446   1.816   2.717   2.467
 1747HOH     H2 5447   1.878   2.684   2.333
 1748HOH      O 5448   3.036   0.241   0.894
 1748HOH     H1 5449   3.093   0.309   0.931
 1748HOH     H2 5450   2.947   0.272   0.909
 1749HOH      O 5451   0.233   3.274   2.119
 1749HOH     H1 5452   0.300   3.277   2.050
 1749HOH     H2 5453   0.276   3.229   2.191
 1750HOH      O 5454   0.823   0.509   0.397
 1750HOH     H1 5455   0.797   0.478   0.311
 1750HOH     H2 5456   0.751   0.565   0.426
 1751HOH      O 5457   1.330   0.212   2.231
 1751HOH     H1 5458   1.397   0.193   2.166
 1751HOH     H2 5459   1.287   0.128   2.246
 1752HOH      O 5460   0.576   0.102   3.284
 1752HOH     H1 5461   0.625   0.173   3.325
 1752HOH     H2 5462   0.501   0.088   3.343
 1753HOH      O 5463   1.021   2.731   1.362
 1753HOH     H1 5464   1.065   2.674   1.299
 1753HOH     H2 5465   1.033   2.688   1.446
 1754HOH      O 5466   3.114   1.970   0.343
 1754HOH     H1 5467   3.062   2.013   0.275
 1754HOH     H2 5468   3.188   2.029   0.357
 1755HOH      O 5469   0.783   2.231   3.806
 1755HOH     H1 5470   0.704   2.195   3.847
 1755HOH     H2 5471   0.827   2.279   3.877
 1756HOH      O 5472   0.369   1.943   3.167
 1756HOH     H1 5473   0.427   1.891   3.222
 1756HOH     H2 5474   0.298   1.971   3.226
 1757HOH      O 5475   3.772  -0.007   1.409
 1757HOH     H1 5476   3.779  -0.042   1.320
 1757HOH     H2 5477   3.779   0.088   1.397
 1758HOH      O 5478   0.163   0.127   1.045
 1758HOH     H1 5479   0.169   0.181   0.966
 1758HOH     H2 5480   0.250   0.136   1.086
 1759HOH      O 5481   0.450   0.429   0.640
 1759HOH     H1 5482   0.493   0.346   0.618
 1759HOH     H2 5483   0.422   0.464   0.555
 1760HOH      O 5484   1.782   2.321   1.790
 1760HOH     H1 5485   1.730   2.243   1.774
 1760HOH     H2 5486   1.853   2.292   1.847
 1761HOH      O 5487   1.851   4.024   2.105
 1761HOH     H1 5488   1.881   4.092   2.045
 1761HOH     H2 5489   1.892   3.944   2.072
 1762HOH      O 5490   0.753   0.440   0.153
 1762HOH     H1 5491   0.799   0.485   0.082
 1762HOH     H2 5492   0.771   0.347   0.137
 1763HOH      O 5493   2.923   1.802   3.309
 1763HOH     H1 5494   2.976   1.806   3.389
 1763HOH     H2 5495   2.973   1.746   3.250
 1764HOH      O 5496   1.369   3.513   1.417
 1764HOH     H1 5497   1.348   3.420   1.430
 1764HOH     H2 5498   1.366   3.551   1.505
 1765HOH      O 5499   3.893   1.753   1.869
 1765HOH     H1 5500   3.983   1.724   1.852
 1765HOH     H2 5501   3.881   1.827   1.809
 1766HOH      O 5502   1.553   3.453   1.169
 1766HOH     H1 5503   1.489   3.446   1.098
 1766HOH     H2 5504   1.516   3.518   1.228
 1767HOH      O 5505   2.296   3.245   0.766
 1767HOH     H1 5506   2.211   3.254   0.722
 1767HOH     H2 5507   2.357   3.225   0.695
 1768HOH      O 5508   0.925   1.553   1.789
 1768HOH     H1 5509   0.892   1.600   1.712
 1768HOH     H2 5510   0.850   1.506   1.822
 1769HOH      O 5511   1.859   1.020   3.831
 1769HOH     H1 5512   1.802   1.059   3.896
 1769HOH     H2 5513   1.887   1.094   3.777
 1770HOH      O 5514   3.128   0.845   0.744
 1770HOH     H1 5515   3.041   0.805   0.746
 1770HOH     H2 5516   3.121   0.918   0.806
 1771HOH      O 5517   2.766   1.717   0.135
 1771HOH     H1 5518   2.856   1.698   0.162
 1771HOH     H2 5519   2.711   1.668   0.195
 1772HOH      O 5520   1.392   1.084   3.798
 1772HOH     H1 5521   1.393   1.164   3.851
 1772HOH     H2 5522   1.480   1.078   3.762
 1773HOH      O 5523   3.368   2.616   3.097
 1773HOH     H1 5524   3.436   2.581   3.154
 1773HOH     H2 5525   3.345   2.700   3.136
 1774HOH      O 5526   0.654   1.003   1.570
 1774HOH     H1 5527   0.615   0.979   1.654
 1774HOH     H2 5528   0.599   0.961   1.504
 1775HOH      O 5529   1.750   1.740   2.829
 1775HOH     H1 5530   1.763   1.668   2.892
 1775HOH     H2 5531   1.792   1.709   2.749
 1776HOH      O 5532   2.749   0.044   1.840
 1776HOH     H1 5533   2.791  -0.036   1.870
 1776HOH     H2 5534   2.790   0.063   1.756
 1777HOH      O 5535   0.605   3.535   0.824
 1777HOH     H1 5536   0.573   3.447   0.801
 1777HOH     H2 5537   0.526   3.585   0.842
 1778HOH      O 5538   2.018   3.863   1.959
 1778HOH     H1 5539   2.075   3.812   1.902
 1778HOH     H2 5540   2.064   3.946   1.972
 1779HOH      O 5541   1.273   1.624   1.518
 1779HOH     H1 5542   1.257   1.631   1.612
 1779HOH     H2 5543   1.290   1.530   1.504
 1780HOH      O 5544   1.601   2.820   0.772
 1780HOH     H1 5545   1.686   2.811   0.814
 1780HOH     H2 5546   1.615   2.885   0.703
 1781HOH      O 5547   1.597   2.743   1.315
 1781HOH     H1 5548   1.689   2.760   1.299
 1781HOH     H2 5549   1.563   2.825   1.350
 1782HOH      O 5550   1.526   2.069   3.886
 1782HOH     H1 5551   1.486   2.107   3.964
 1782HOH     H2 5552   1.616   2.050   3.913
 1783HOH      O 5553   3.569   3.638   1.431
 1783HOH     H1 5554   3.573   3.628   1.526
 1783HOH     H2 5555   3.477   3.625   1.409
 1784HOH      O 5556   1.439   1.438   2.098
 1784HOH     H1 5557   1.412   1.453   2.007
 1784HOH     H2 5558   1.523   1.392   2.091
 1785HOH      O 5559   3.094   3.197   2.034
 1785HOH     H1 5560   3.172   3.240   1.997
 1785HOH     H2 5561   3.094   3.223   2.126
 1786HOH      O 5562   1.011   0.093   2.294
 1786HOH     H1 5563   1.079   0.031   2.266
 1786HOH     H2 5564   1.042   0.126   2.378
 1787HOH      O 5565   1.611   3.733   3.775
 1787HOH     H1 5566   1.689   3.694   3.736
 1787HOH     H2 5567   1.642   3.771   3.857
 1788HOH      O 5568   2.586   0.383   2.399
 1788HOH     H1 5569   2.675   0.416   2.397
 1788HOH     H2 5570   2.535   0.448   2.351
 1789HOH      O 5571   2.801   2.727   2.200
 1789HOH     H1 5572   2.776   2.771   2.119
 1789HOH     H2 5573   2.860   2.789   2.243
 1790HOH      O 5574   0.477   2.938   3.229
 1790HOH     H1 5575   0.563   2.956   3.189
 1790HOH     H2 5576   0.432   2.884   3.165
 1791HOH      O 5577   0.347   2.014   3.744
 1791HOH     H1 5578   0.351   1.922   3.716
 1791HOH     H2 5579   0.347   2.064   3.663
 1792HOH      O 5580   3.110   1.248   1.561
 1792HOH     H1 5581   3.185   1.257   1.502
 1792HOH     H2 5582   3.137   1.293   1.641
 1793HOH      O 5583   1.021   1.646   2.912
 1793HOH     H1 5584   0.998   1.604   2.828
 1793HOH     H2 5585   1.071   1.579   2.958
 1794HOH      O 5586   1.916   3.009   1.559
 1794HOH     H1 5587   1.984   2.985   1.622
 1794HOH     H2 5588   1.846   3.047   1.611
 1795HOH      O 5589   1.015   0.636   2.109
 1795HOH     H1 5590   0.995   0.580   2.034
 1795HOH     H2 5591   1.082   0.587   2.159
 1796HOH      O 5592   2.131   3.585   1.850
 1796HOH     H1 5593   2.093   3.576   1.762
 1796HOH     H2 5594   2.212   3.634   1.836
 1797HOH      O 5595   1.547   1.619   1.147
 1797HOH     H1 5596   1.627   1.668   1.164
 1797HOH     H2 5597   1.544   1.553   1.216
 1798HOH      O 5598   1.108   1.019   1.239
 1798HOH     H1 5599   1.028   1.015   1.291
 1798HOH     H2 5600   1.147   1.104   1.262
 1799HOH      O 5601   3.562   0.241   0.641
 1799HOH     H1 5602   3.592   0.243   0.732
 1799HOH     H2 5603   3.557   0.148   0.619
 1800HOH      O 5604   3.588   3.597   1.166
 1800HOH     H1 5605   3.562   3.505   1.165
 1800HOH     H2 5606   3.607   3.616   1.257
 1801HOH      O 5607   1.355   2.407   3.796
 1801HOH     H1 5608   1.420   2.439   3.734
 1801HOH     H2 5609   1.324   2.325   3.758
 1802HOH      O 5610   3.998   0.305   1.271
 1802HOH     H1 5611   3.975   0.331   1.182
 1802HOH     H2 5612   4.052   0.226   1.260
 1803HOH      O 5613   1.283   2.866   1.157
 1803HOH     H1 5614   1.321   2.788   1.119
 1803HOH     H2 5615   1.245   2.914   1.083
 1804HOH      O 5616   3.309   3.502   1.442
 1804HOH     H1 5617   3.276   3.481   1.530
 1804HOH     H2 5618   3.266   3.438   1.385
 1805HOH      O 5619   3.196   0.571   0.053
 1805HOH     H1 5620   3.164   0.549   0.140
 1805HOH     H2 5621   3.117   0.580  -0.000
 1806HOH      O 5622   2.490   0.228   2.012
 1806HOH     H1 5623   2.581   0.226   2.042
 1806HOH     H2 5624   2.459   0.316   2.034
 1807HOH      O 5625   1.164   2.509   0.070
 1807HOH     H1 5626   1.164   2.471   0.158
 1807HOH     H2 5627   1.194   2.599   0.083
 1808HOH      O 5628   1.364   1.244   3.410
 1808HOH     H1 5629   1.340   1.297   3.486
 1808HOH     H2 5630   1.280   1.228   3.366
 1809HOH      O 5631   3.570   1.907   3.824
 1809HOH     H1 5632   3.613   1.824   3.843
 1809HOH     H2 5633   3.534   1.935   3.908
 1810HOH      O 5634   1.997   3.767   2.608
 1810HOH     H1 5635   1.983   3.761   2.514
 1810HOH     H2 5636   2.086   3.803   2.617
 1811HOH      O 5637   3.914   3.283   3.205
 1811HOH     H1 5638   3.868   3.348   3.152
 1811HOH     H2 5639   4.001   3.322   3.218
 1812HOH      O 5640   3.097   1.070   0.859
 1812HOH     H1 5641   3.053   1.055   0.943
 1812HOH     H2 5642   3.090   1.164   0.845
 1813HOH      O 5643   1.880   2.145   2.390
 1813HOH     H1 5644   1.927   2.064   2.373
 1813HOH     H2 5645   1.902   2.201   2.315
 1814HOH      O 5646   2.016   2.594   0.925
 1814HOH     H1 5647   2.092   2.549   0.961
 1814HOH     H2 5648   2.047   2.683   0.907
 1815HOH      O 5649   2.636   1.170   0.409
 1815HOH     H1 5650   2.637   1.113   0.332
 1815HOH     H2 5651   2.647   1.110   0.483
 1816HOH      O 5652   0.954   0.712   3.432
 1816HOH     H1 5653   1.047   0.728   3.415
 1816HOH     H2 5654   0.949   0.701   3.527
 1817HOH      O 5655   1.062   1.042   1.665
 1817HOH     H1 5656   1.067   1.078   1.754
 1817HOH     H2 5657   1.152   1.048   1.632
 1818HOH      O 5658   3.934   2.389   2.382
 1818HOH     H1 5659   3.868   2.458   2.380
 1818HOH     H2 5660   3.892   2.317   2.430
 1819HOH      O 5661   3.099   3.258   1.063
 1819HOH     H1 5662   3.155   3.189   1.099
 1819HOH     H2 5663   3.158   3.332   1.049
 1820HOH      O 5664   1.795   1.081   0.107
 1820HOH     H1 5665   1.885   1.098   0.134
 1820HOH     H2 5666   1.792   0.986   0.095
 1821HOH      O 5667   2.134   0.135   1.470
 1821HOH     H1 5668   2.172   0.222   1.485
 1821HOH     H2 5669   2.109   0.136   1.378
 1822HOH      O 5670   0.823   1.661   1.558
 1822HOH     H1 5671   0.888   1.637   1.492
 1822HOH     H2 5672   0.749   1.602   1.540
 1823HOH      O 5673   0.104   2.608   1.555
 1823HOH     H1 5674   0.012   2.625   1.575
 1823HOH     H2 5675   0.125   2.528   1.604
 1824HOH      O 5676   3.071   0.471   1.695
 1824HOH     H1 5677   2.989   0.508   1.662
 1824HOH     H2 5678   3.129   0.470   1.618
 1825HOH      O 5679   0.086   1.246   2.670
 1825HOH     H1 5680   0.010   1.216   2.621
 1825HOH     H2 5681   0.104   1.334   2.636
 1826HOH      O 5682   3.213   2.827   3.180
 1826HOH     H1 5683   3.181   2.872   3.258
 1826HOH     H2 5684   3.187   2.884   3.107
 1827HOH      O 5685   3.222   0.576   2.993
 1827HOH     H1 5686   3.146   0.560   3.049
 1827HOH     H2 5687   3.250   0.488   2.967
 1828HOH      O 5688   1.399   3.904   2.703
 1828HOH     H1 5689   1.391   3.848   2.780
 1828HOH     H2 5690   1.482   3.950   2.714
 1829HOH      O 5691   1.576   1.308   0.717
 1829HOH     H1 5692   1.535   1.393   0.702
 1829HOH     H2 5693   1.654   1.327   0.770
 1830HOH      O 5694   1.200   1.264   1.184
 1830HOH     H1 5695   1.142   1.245   1.111
 1830HOH     H2 5696   1.278   1.302   1.144
 1831HOH      O 5697   2.936   2.759   3.696
 1831HOH     H1 5698   2.918   2.713   3.614
 1831HOH     H2 5699   2.928   2.852   3.674
 1832HOH      O 5700   2.725   0.369   1.813
 1832HOH     H1 5701   2.730   0.301   1.880
 1832HOH     H2 5702   2.683   0.327   1.738
 1833HOH      O 5703   3.525   2.686   1.934
 1833HOH     H1 5704   3.438   2.715   1.962
 1833HOH     H2 5705   3.579   2.697   2.012
 1834HOH      O 5706   0.182   1.111   0.023
 1834HOH     H1 5707   0.124   1.186   0.034
 1834HOH     H2 5708   0.220   1.098   0.110
 1835HOH      O 5709   0.656   2.432   0.831
 1835HOH     H1 5710   0.695   2.512   0.865
 1835HOH     H2 5711   0.636   2.452   0.740
 1836HOH      O 5712   3.334   2.584   1.498
 1836HOH     H1 5713   3.335   2.489   1.513
 1836HOH     H2 5714   3.330   2.622   1.586
 1837HOH      O 5715   2.669   0.154   3.642
 1837HOH     H1 5716   2.716   0.095   3.584
 1837HOH     H2 5717   2.695   0.127   3.730
 1838HOH      O 5718   0.809   1.250   1.754
 1838HOH     H1 5719   0.731   1.303   1.740
 1838HOH     H2 5720   0.778   1.160   1.754
 1839HOH      O 5721   2.503   0.810   2.944
 1839HOH     H1 5722   2.448   0.878   2.984
 1839HOH     H2 5723   2.472   0.805   2.854
 1840HOH      O 5724   3.515   4.015   0.757
 1840HOH     H1 5725   3.511   4.004   0.852
 1840HOH     H2 5726   3.461   3.944   0.722
 1841HOH      O 5727   1.383   0.346   0.355
 1841HOH     H1 5728   1.456   0.285   0.361
 1841HOH     H2 5729   1.424   0.432   0.344
 1842HOH      O 5730   1.417   3.717   0.132
 1842HOH     H1 5731   1.418   3.631   0.174
 1842HOH     H2 5732   1.328   3.748   0.143
 1843HOH      O 5733   0.179   1.460   0.775
 1843HOH     H1 5734   0.146   1.546   0.805
 1843HOH     H2 5735   0.260   1.448   0.824
 1844HOH      O 5736   0.877   3.141   4.001
 1844HOH     H1 5737   0.858   3.193   4.079
 1844HOH     H2 5738   0.971   3.153   3.987
 1845HOH      O 5739   2.681   3.132   0.385
 1845HOH     H1 5740   2.666   3.168   0.298
 1845HOH     H2 5741   2.768   3.164   0.410
 1846HOH      O 5742   3.757   0.879   0.857
 1846HOH     H1 5743   3.827   0.853   0.797
 1846HOH     H2 5744   3.677   0.843   0.818
 1847HOH      O 5745   1.293   2.379   1.102
 1847HOH     H1 5746   1.312   2.433   1.178
 1847HOH     H2 5747   1.275   2.441   1.031
 1848HOH      O 5748   1.770   2.284   2.892
 1848HOH     H1 5749   1.761   2.214   2.827
 1848HOH     H2 5750   1.863   2.285   2.914
 1849HOH      O 5751   3.093   2.523   0.662
 1849HOH     H1 5752   3.013   2.486   0.698
 1849HOH     H2 5753   3.071   2.544   0.571
 1850HOH      O 5754   1.000   1.142   3.635
 1850HOH     H1 5755   1.062   1.069   3.634
 1850HOH     H2 5756   0.937   1.123   3.566
 1851HOH      O 5757   1.102   1.315   3.837
 1851HOH     H1 5758   1.053   1.272   3.767
 1851HOH     H2 5759   1.160   1.377   3.792
 1852HOH      O 5760   3.605   1.249   0.605
 1852HOH     H1 5761   3.677   1.242   0.667
 1852HOH     H2 5762   3.620   1.332   0.560
 1853HOH      O 5763   3.950   3.069   1.713
 1853HOH     H1 5764   3.905   3.153   1.720
 1853HOH     H2 5765   4.041   3.089   1.735
 1854HOH      O 5766   1.297   0.925   1.823
 1854HOH     H1 5767   1.347   1.004   1.803
 1854HOH     H2 5768   1.350   0.853   1.788
 1855HOH      O 5769   2.322   0.519   3.039
 1855HOH     H1 5770   2.405   0.568   3.045
 1855HOH     H2 5771   2.348   0.427   3.040
 1856HOH      O 5772   0.812   2.149   1.808
 1856HOH     H1 5773   0.761   2.070   1.827
 1856HOH     H2 5774   0.749   2.209   1.769
 1857HOH      O 5775   0.891   2.581   1.837
 1857HOH     H1 5776   0.914   2.666   1.875
 1857HOH     H2 5777   0.819   2.550   1.892
 1858HOH      O 5778   1.957   3.428   2.968
 1858HOH     H1 5779   1.921   3.379   3.042
 1858HOH     H2 5780   1.916   3.388   2.891
 1859HOH      O 5781   1.388   1.876   3.293
 1859HOH     H1 5782   1.311   1.926   3.265
 1859HOH     H2 5783   1.433   1.934   3.354
 1860HOH      O 5784   2.067   0.966   0.395
 1860HOH     H1 5785   2.054   0.883   0.348
 1860HOH     H2 5786   2.149   1.000   0.359
 1861HOH      O 5787   1.599   0.564   3.591
 1861HOH     H1 5788   1.611   0.495   3.656
 1861HOH     H2 5789   1.656   0.635   3.620
 1862HOH      O 5790   1.463   0.666   3.174
 1862HOH     H1 5791   1.534   0.730   3.186
 1862HOH     H2 5792   1.489   0.591   3.227
 1863HOH      O 5793   1.918   2.638   3.919
 1863HOH     H1 5794   1.847   2.680   3.969
 1863HOH     H2 5795   1.895   2.545   3.920
 1864HOH      O 5796   1.589   0.280   1.940
 1864HOH     H1 5797   1.645   0.236   2.004
 1864HOH     H2 5798   1.593   0.373   1.965
 1865HOH      O 5799   2.301   2.492   3.114
 1865HOH     H1 5800   2.333   2.564   3.059
 1865HOH     H2 5801   2.333   2.513   3.202
 1866HOH      O 5802   0.704   2.481   0.537
 1866HOH     H1 5803   0.650   2.439   0.470
 1866HOH     H2 5804   0.791   2.444   0.525
 1867HOH      O 5805   2.763   3.986   2.344
 1867HOH     H1 5806   2.679   3.989   2.298
 1867HOH     H2 5807   2.789   4.077   2.353
 1868HOH      O 5808   0.444   3.878   0.126
 1868HOH     H1 5809   0.411   3.926   0.050
 1868HOH     H2 5810   0.366   3.850   0.173
 1869HOH      O 5811   2.686   2.608   0.180
 1869HOH     H1 5812   2.671   2.533   0.238
 1869HOH     H2 5813   2.752   2.661   0.225
 1870HOH      O 5814   1.765   1.265   3.975
 1870HOH     H1 5815   1.779   1.350   4.018
 1870HOH     H2 5816   1.785   1.201   4.043
 1871HOH      O 5817   1.125   0.116   1.700
 1871HOH     H1 5818   1.185   0.154   1.637
 1871HOH     H2 5819   1.070   0.057   1.648
 1872HOH      O 5820   1.493   3.756   1.049
 1872HOH     H1 5821   1.530   3.668   1.038
 1872HOH     H2 5822   1.484   3.789   0.959
 1873HOH      O 5823   1.026   2.820   0.228
 1873HOH     H1 5824   0.962   2.842   0.296
 1873HOH     H2 5825   1.108   2.809   0.274
 1874HOH      O 5826   2.913   3.051   2.438
 1874HOH     H1 5827   2.966   2.983   2.395
 1874HOH     H2 5828   2.875   3.006   2.514
 1875HOH      O 5829   1.938   1.230   3.670
 1875HOH     H1 5830   2.004   1.299   3.678
 1875HOH     H2 5831   1.951   1.194   3.582
 1876HOH      O 5832   1.247  -0.025   0.389
 1876HOH     H1 5833   1.313  -0.024   0.319
 1876HOH     H2 5834   1.261   0.056   0.437
 1877HOH      O 5835   0.595   0.192   3.974
 1877HOH     H1 5836   0.642   0.273   3.952
 1877HOH     H2 5837   0.536   0.218   4.044
 1878HOH      O 5838   3.644   3.151   2.517
 1878HOH     H1 5839   3.553   3.154   2.545
 1878HOH     H2 5840   3.695   3.153   2.598
 1879HOH      O 5841   2.431   2.498   2.203
 1879HOH     H1 5842   2.454   2.426   2.144
 1879HOH     H2 5843   2.352   2.467   2.248
 1880HOH      O 5844   1.247   0.756   3.443
 1880HOH     H1 5845   1.216   0.838   3.482
 1880HOH     H2 5846   1.332   0.778   3.405
 1881HOH      O 5847   3.288   1.333   0.557
 1881HOH     H1 5848   3.355   1.310   0.622
 1881HOH     H2 5849   3.273   1.426   0.571
 1882HOH      O 5850   2.342   3.938   1.627
 1882HOH     H1 5851   2.270   3.937   1.564
 1882HOH     H2 5852   2.305   3.899   1.706
 1883HOH      O 5853   3.219   0.630   3.616
 1883HOH     H1 5854   3.292   0.617   3.677
 1883HOH     H2 5855   3.249   0.587   3.535
 1884HOH      O 5856   3.101   2.285   3.624
 1884HOH     H1 5857   3.090   2.254   3.534
 1884HOH     H2 5858   3.097   2.206   3.678
 1885HOH      O 5859   1.906   2.674   0.613
 1885HOH     H1 5860   1.943   2.760   0.597
 1885HOH     H2 5861   1.876   2.677   0.704
 1886HOH      O 5862   3.357   0.360   3.947
 1886HOH     H1 5863   3.261   0.370   3.947
 1886HOH     H2 5864   3.372   0.277   3.991
 1887HOH      O 5865   0.321   3.627   2.937
 1887HOH     H1 5866   0.410   3.658   2.949
 1887HOH     H2 5867   0.270   3.706   2.920
 1888HOH      O 5868   0.981   3.318   2.185
 1888HOH     H1 5869   0.973   3.272   2.101
 1888HOH     H2 5870   0.950   3.407   2.167
 1889HOH      O 5871   1.297   3.257   1.471
 1889HOH     H1 5872   1.311   3.225   1.560
 1889HOH     H2 5873   1.345   3.195   1.416
 1890HOH      O 5874   3.062   0.900   0.100
 1890HOH     H1 5875   3.116   0.857   0.167
 1890HOH     H2 5876   3.050   0.832   0.033
 1891HOH      O 5877   3.074   0.760   2.750
 1891HOH     H1 5878   2.991   0.806   2.762
 1891HOH     H2 5879   3.086   0.712   2.832
 1892HOH      O 5880   2.702   3.320   1.057
 1892HOH     H1 5881   2.625   3.346   1.007
 1892HOH     H2 5882   2.723   3.397   1.110
 1893HOH      O 5883   1.926   2.553   1.711
 1893HOH     H1 5884   1.898   2.469   1.748
 1893HOH     H2 5885   1.878   2.561   1.629
 1894HOH      O 5886   3.643   1.903   3.535
 1894HOH     H1 5887   3.718   1.962   3.528
 1894HOH     H2 5888   3.618   1.907   3.628
 1895HOH      O 5889   2.874   1.986   2.894
 1895HOH     H1 5890   2.899   2.041   2.819
 1895HOH     H2 5891   2.863   1.899   2.857
 1896HOH      O 5892   0.047   3.886   2.339
 1896HOH     H1 5893  -0.041   3.854   2.360
 1896HOH     H2 5894   0.102   3.808   2.338
 1897HOH      O 5895   0.656   1.933   0.845
 1897HOH     H1 5896   0.641   1.956   0.937
 1897HOH     H2 5897   0.665   1.838   0.845
 1898HOH      O 5898   3.273   2.682   4.031
 1898HOH     H1 5899   3.296   2.723   3.948
 1898HOH     H2 5900   3.295   2.590   4.020
 1899HOH      O 5901   2.947   1.032   1.523
 1899HOH     H1 5902   2.877   1.080   1.567
 1899HOH     H2 5903   3.026   1.081   1.543
 1900HOH      O 5904   2.299   3.453   3.347
 1900HOH     H1 5905   2.251   3.530   3.316
 1900HOH     H2 5906   2.386   3.461   3.308
 1901HOH      O 5907   3.737   4.055   1.931
 1901HOH     H1 5908   3.741   4.099   2.016
 1901HOH     H2 5909   3.739   3.962   1.952
 1902HOH      O 5910   1.113   2.159   1.155
 1902HOH     H1 5911   1.181   2.227   1.147
 1902HOH     H2 5912   1.112   2.116   1.069
 1903HOH      O 5913   1.611   0.805   2.441
 1903HOH     H1 5914   1.538   0.850   2.399
 1903HOH     H2 5915   1.569   0.743   2.501
 1904HOH      O 5916   1.719   1.933   0.910
 1904HOH     H1 5917   1.719   1.849   0.866
 1904HOH     H2 5918   1.665   1.990   0.855
 1905HOH      O 5919   1.889   2.197   1.104
 1905HOH     H1 5920   1.852   2.161   1.023
 1905HOH     H2 5921   1.982   2.208   1.084
 1906HOH      O 5922   2.354   1.401   1.571
 1906HOH     H1 5923   2.382   1.462   1.639
 1906HOH     H2 5924   2.281   1.446   1.527
 1907HOH      O 5925   1.374   0.486   2.226
 1907HOH     H1 5926   1.353   0.395   2.209
 1907HOH     H2 5927   1.354   0.499   2.319
 1908HOH      O 5928   0.068   0.553   0.601
 1908HOH     H1 5929   0.112   0.515   0.678
 1908HOH     H2 5930   0.138   0.601   0.556
 1909HOH      O 5931   2.335   1.026   3.099
 1909HOH     H1 5932   2.331   0.944   3.147
 1909HOH     H2 5933   2.330   1.094   3.167
 1910HOH      O 5934   3.841   2.725   3.486
 1910HOH     H1 5935   3.802   2.800   3.532
 1910HOH     H2 5936   3.903   2.765   3.425
 1911HOH      O 5937   2.011   1.775   0.859
 1911HOH     H1 5938   1.968   1.860   0.862
 1911HOH     H2 5939   2.104   1.796   0.845
 1912HOH      O 5940   1.308   3.681   2.900
 1912HOH     H1 5941   1.320   3.627   2.822
 1912HOH     H2 5942   1.353   3.633   2.969
 1913HOH      O 5943   0.760   2.072   3.284
 1913HOH     H1 5944   0.705   2.004   3.324
 1913HOH     H2 5945   0.705   2.150   3.285
 1914HOH      O 5946   0.588   1.293   2.170
 1914HOH     H1 5947   0.669   1.248   2.145
 1914HOH     H2 5948   0.612   1.385   2.174
 1915HOH      O 5949   1.473   3.046   2.200
 1915HOH     H1 5950   1.473   3.092   2.284
 1915HOH     H2 5951   1.397   3.080   2.153
 1916HOH      O 5952   0.054   0.546   1.363
 1916HOH     H1 5953   0.003   0.468   1.343
 1916HOH     H2 5954   0.025   0.572   1.451
 1917HOH      O 5955   2.338   3.013   2.490
 1917HOH     H1 5956   2.395   3.084   2.520
 1917HOH     H2 5957   2.396   2.955   2.441
 1918HOH      O 5958   2.300   1.518   0.453
 1918HOH     H1 5959   2.358   1.443   0.468
 1918HOH     H2 5960   2.214   1.478   0.434
 1919HOH      O 5961   1.832   0.410   3.267
 1919HOH     H1 5962   1.887   0.424   3.344
 1919HOH     H2 5963   1.870   0.334   3.224
 1920HOH      O 5964   3.405   3.193   2.668
 1920HOH     H1 5965   3.372   3.250   2.738
 1920HOH     H2 5966   3.329   3.143   2.640
 1921HOH      O 5967   2.516   3.137   0.627
 1921HOH     H1 5968   2.570   3.151   0.549
 1921HOH     H2 5969   2.568   3.081   0.683
 1922HOH      O 5970   2.148   4.002   0.176
 1922HOH     H1 5971   2.110   4.069   0.119
 1922HOH     H2 5972   2.145   4.041   0.263
 1923HOH      O 5973   0.398   3.360   3.184
 1923HOH     H1 5974   0.484   3.396   3.163
 1923HOH     H2 5975   0.404   3.334   3.276
 1924HOH      O 5976   0.337   2.088   0.447
 1924HOH     H1 5977   0.248   2.114   0.424
 1924HOH     H2 5978   0.326   2.023   0.517
 1925HOH      O 5979   0.076   0.400   3.800
 1925HOH     H1 5980   0.073   0.405   3.704
 1925HOH     H2 5981   0.011   0.465   3.829
 1926HOH      O 5982   1.790   0.728   3.744
 1926HOH     H1 5983   1.862   0.668   3.766
 1926HOH     H2 5984   1.824   0.815   3.767
 1927HOH      O 5985   4.018   1.321   0.122
 1927HOH     H1 5986   4.001   1.303   0.214
 1927HOH     H2 5987   4.099   1.373   0.122
 1928HOH      O 5988   1.805   3.100   0.795
 1928HOH     H1 5989   1.721   3.125   0.759
 1928HOH     H2 5990   1.849   3.182   0.815
 1929HOH      O 5991   3.195   1.305   2.427
 1929HOH     H1 5992   3.105   1.337   2.417
 1929HOH     H2 5993   3.185   1.222   2.474
 1930HOH      O 5994   2.061   0.708   0.283
 1930HOH     H1 5995   2.154   0.719   0.302
 1930HOH     H2 5996   2.033   0.636   0.339
 1931HOH      O 5997   2.976   0.208   1.763
 1931HOH     H1 5998   3.030   0.287   1.764
 1931HOH     H2 5999   2.936   0.207   1.676
 1932HOH      O 6000   2.565   0.245   3.114
 1932HOH     H1 6001   2.484   0.274   3.071
 1932HOH     H2 6002   2.548   0.153   3.135
 1933HOH      O 6003   3.027   1.401   3.134
 1933HOH     H1 6004   3.039   1.474   3.194
 1933HOH     H2 6005   3.065   1.326   3.179
 1934HOH      O 6006   2.241   2.261   3.851
 1934HOH     H1 6007   2.198   2.341   3.818
 1934HOH     H2 6008   2.326   2.260   3.808
 1935HOH      O 6009   1.384   2.338   4.054
 1935HOH     H1 6010   1.399   2.380   3.970
 1935HOH     H2 6011   1.289   2.339   4.065
 1936HOH      O 6012   0.318   1.730   2.447
 1936HOH     H1 6013   0.276   1.784   2.380
 1936HOH     H2 6014   0.286   1.765   2.530
 1937HOH      O 6015   1.409   1.818   3.831
 1937HOH     H1 6016   1.455   1.897   3.861
 1937HOH     H2 6017   1.324   1.850   3.800
 1938HOH      O 6018   3.923   0.423   0.348
 1938HOH     H1 6019   3.924   0.392   0.258
 1938HOH     H2 6020   3.948   0.515   0.342
 1939HOH      O 6021   0.120   1.643   1.889
 1939HOH     H1 6022   0.146   1.557   1.858
 1939HOH     H2 6023   0.106   1.632   1.983
 1940HOH      O 6024   0.199   3.803   2.628
 1940HOH     H1 6025   0.181   3.747   2.552
 1940HOH     H2 6026   0.294   3.809   2.631
 1941HOH      O 6027   1.228   2.103   1.438
 1941HOH     H1 6028   1.291   2.160   1.393
 1941HOH     H2 6029   1.159   2.162   1.468
 1942HOH      O 6030   0.778   3.003   3.485
 1942HOH     H1 6031   0.815   3.080   3.529
 1942HOH     H2 6032   0.766   2.939   3.555
 1943HOH      O 6033   1.309   3.041   3.034
 1943HOH     H1 6034   1.224   3.002   3.055
 1943HOH     H2 6035   1.287   3.120   2.984
 1944HOH      O 6036   2.402   3.922   0.038
 1944HOH     H1 6037   2.313   3.933   0.073
 1944HOH     H2 6038   2.453   3.991   0.080
 1945HOH      O 6039   0.945   0.180   3.649
 1945HOH     H1 6040   0.863   0.146   3.685
 1945HOH     H2 6041   0.941   0.274   3.665
 1946HOH      O 6042   0.087   1.058   1.617
 1946HOH     H1 6043   0.102   0.998   1.691
 1946HOH     H2 6044   0.099   1.145   1.654
 1947HOH      O 6045   1.994   0.845   0.631
 1947HOH     H1 6046   2.001   0.883   0.543
 1947HOH     H2 6047   1.960   0.757   0.616
 1948HOH      O 6048   1.090   0.422   3.205
 1948HOH     H1 6049   0.999   0.405   3.228
 1948HOH     H2 6050   1.086   0.467   3.121
 1949HOH      O 6051   1.581   1.589   0.558
 1949HOH     H1 6052   1.563   1.654   0.491
 1949HOH     H2 6053   1.541   1.508   0.525
 1950HOH      O 6054   2.605   0.500   0.983
 1950HOH     H1 6055   2.609   0.587   0.943
 1950HOH     H2 6056   2.616   0.516   1.077
 1951HOH      O 6057   0.183   0.094   2.752
 1951HOH     H1 6058   0.191   0.034   2.677
 1951HOH     H2 6059   0.206   0.180   2.716
 1952HOH      O 6060   1.271   0.006   1.947
 1952HOH     H1 6061   1.307   0.081   1.900
 1952HOH     H2 6062   1.181  -0.001   1.915
 1953HOH      O 6063   0.794   2.236   0.950
 1953HOH     H1 6064   0.765   2.323   0.921
 1953HOH     H2 6065   0.745   2.221   1.031
 1954HOH      O 6066   3.647   2.246   0.701
 1954HOH     H1 6067   3.727   2.248   0.754
 1954HOH     H2 6068   3.656   2.322   0.643
 1955HOH      O 6069   0.210   3.610   1.152
 1955HOH     H1 6070   0.131   3.660   1.133
 1955HOH     H2 6071   0.245   3.649   1.232
 1956HOH      O 6072   0.692   3.524   2.693
 1956HOH     H1 6073   0.635   3.591   2.731
 1956HOH     H2 6074   0.659   3.442   2.731
 1957HOH      O 6075   3.378   1.656   0.406
 1957HOH     H1 6076   3.303   1.635   0.462
 1957HOH     H2 6077   3.393   1.749   0.420
 1958HOH      O 6078   0.220   0.766   2.986
 1958HOH     H1 6079   0.232   0.861   2.976
 1958HOH     H2 6080   0.302   0.728   2.955
 1959HOH      O 6081   2.944   0.250   3.322
 1959HOH     H1 6082   2.906   0.225   3.238
 1959HOH     H2 6083   2.895   0.200   3.387
 1960HOH      O 6084   3.265   3.897   2.767
 1960HOH     H1 6085   3.239   3.950   2.691
 1960HOH     H2 6086   3.182   3.869   2.805
 1961HOH      O 6087   3.866   1.096   0.054
 1961HOH     H1 6088   3.916   1.177   0.047
 1961HOH     H2 6089   3.808   1.110   0.129
 1962HOH      O 6090   3.861   2.447   2.012
 1962HOH     H1 6091   3.791   2.429   2.074
 1962HOH     H2 6092   3.917   2.369   2.016
 1963HOH      O 6093   3.259   0.645   3.327
 1963HOH     H1 6094   3.286   0.557   3.301
 1963HOH     H2 6095   3.166   0.649   3.306
 1964HOH      O 6096   0.105   1.642   1.012
 1964HOH     H1 6097   0.083   1.550   1.023
 1964HOH     H2 6098   0.165   1.662   1.083
 1965HOH      O 6099   2.595   2.819   2.990
 1965HOH     H1 6100   2.590   2.865   2.906
 1965HOH     H2 6101   2.607   2.888   3.055
 1966HOH      O 6102   0.237   2.971   2.383
 1966HOH     H1 6103   0.226   2.879   2.406
 1966HOH     H2 6104   0.203   2.978   2.294
 1967HOH      O 6105   1.199   0.117   2.842
 1967HOH     H1 6106   1.249   0.195   2.820
 1967HOH     H2 6107   1.264   0.058   2.880
 1968HOH      O 6108   2.611   1.546   3.254
 1968HOH     H1 6109   2.603   1.613   3.186
 1968HOH     H2 6110   2.525   1.546   3.297
 1969HOH      O 6111   3.308   2.104   0.937
 1969HOH     H1 6112   3.234   2.157   0.906
 1969HOH     H2 6113   3.306   2.113   1.032
 1970HOH      O 6114   3.200   1.274   3.812
 1970HOH     H1 6115   3.219   1.235   3.727
 1970HOH     H2 6116   3.211   1.368   3.798
 1971HOH      O 6117   2.714   1.435   0.525
 1971HOH     H1 6118   2.809   1.444   0.520
 1971HOH     H2 6119   2.695   1.354   0.479
 1972HOH      O 6120   1.253   0.130   3.845
 1972HOH     H1 6121   1.300   0.184   3.781
 1972HOH     H2 6122   1.200   0.071   3.791
 1973HOH      O 6123   2.914   3.634   0.444
 1973HOH     H1 6124   2.830   3.604   0.410
 1973HOH     H2 6125   2.974   3.562   0.427
 1974HOH      O 6126   1.164   1.385   0.726
 1974HOH     H1 6127   1.233   1.342   0.776
 1974HOH     H2 6128   1.210   1.431   0.656
 1975HOH      O 6129   0.334   0.971   3.451
 1975HOH     H1 6130   0.297   1.047   3.497
 1975HOH     H2 6131   0.258   0.922   3.420
 1976HOH      O 6132   2.728   0.295   2.777
 1976HOH     H1 6133   2.699   0.245   2.700
 1976HOH     H2 6134   2.711   0.386   2.753
 1977HOH      O 6135   3.086   3.440   0.356
 1977HOH     H1 6136   3.123   3.390   0.429
 1977HOH     H2 6137   3.156   3.443   0.291
 1978HOH      O 6138   3.038   3.520   2.304
 1978HOH     H1 6139   3.026   3.565   2.388
 1978HOH     H2 6140   3.069   3.433   2.327
 1979HOH      O 6141   2.325   1.637   3.707
 1979HOH     H1 6142   2.407   1.626   3.659
 1979HOH     H2 6143   2.266   1.678   3.644
 1980HOH      O 6144   1.555   1.947   1.996
 1980HOH     H1 6145   1.649   1.927   2.000
 1980HOH     H2 6146   1.514   1.864   1.973
 1981HOH      O 6147   2.604   1.374   0.770
 1981HOH     H1 6148   2.512   1.377   0.744
 1981HOH     H2 6149   2.653   1.387   0.689
 1982HOH      O 6150   0.254   3.277   0.954
 1982HOH     H1 6151   0.256   3.182   0.944
 1982HOH     H2 6152   0.183   3.292   1.016
 1983HOH      O 6153   3.297   2.512   2.227
 1983HOH     H1 6154   3.306   2.605   2.249
 1983HOH     H2 6155   3.203   2.498   2.222
 1984HOH      O 6156   0.994   2.377   1.235
 1984HOH     H1 6157   1.024   2.443   1.173
 1984HOH     H2 6158   1.006   2.293   1.190
 1985HOH      O 6159   1.435   0.765   3.704
 1985HOH     H1 6160   1.473   0.694   3.653
 1985HOH     H2 6161   1.443   0.842   3.648
 1986HOH      O 6162   2.407   0.734   3.587
 1986HOH     H1 6163   2.448   0.764   3.668
 1986HOH     H2 6164   2.315   0.723   3.610
 1987HOH      O 6165   0.704   3.639   0.581
 1987HOH     H1 6166   0.679   3.574   0.516
 1987HOH     H2 6167   0.663   3.609   0.663
 1988HOH      O 6168   0.147   2.158   0.763
 1988HOH     H1 6169   0.212   2.219   0.799
 1988HOH     H2 6170   0.169   2.074   0.802
 1989HOH      O 6171   3.764   1.416   3.864
 1989HOH     H1 6172   3.806   1.485   3.916
 1989HOH     H2 6173   3.680   1.401   3.907
 1990HOH      O 6174   1.519   2.194   2.941
 1990HOH     H1 6175   1.598   2.244   2.922
 1990HOH     H2 6176   1.535   2.107   2.903
 1991HOH      O 6177   3.557   2.672   0.986
 1991HOH     H1 6178   3.489   2.737   1.005
 1991HOH     H2 6179   3.577   2.684   0.893
 1992HOH      O 6180   2.950   0.670   3.937
 1992HOH     H1 6181   2.872   0.622   3.966
 1992HOH     H2 6182   2.947   0.665   3.842
 1993HOH      O 6183   3.502   3.316   0.088
 1993HOH     H1 6184   3.588   3.346   0.060
 1993HOH     H2 6185   3.519   3.246   0.150
 1994HOH      O 6186   2.147   3.369   1.049
 1994HOH     H1 6187   2.163   3.432   0.978
 1994HOH     H2 6188   2.223   3.379   1.107
 1995HOH      O 6189   1.756   3.945   1.496
 1995HOH     H1 6190   1.741   4.001   1.573
 1995HOH     H2 6191   1.707   3.865   1.515
 1996HOH      O 6192   2.809   2.377   3.671
 1996HOH     H1 6193   2.896   2.384   3.632
 1996HOH     H2 6194   2.825   2.354   3.762
 1997HOH      O 6195   0.669   3.760   2.086
 1997HOH     H1 6196   0.630   3.829   2.139
 1997HOH     H2 6197   0.615   3.757   2.007
 1998HOH      O 6198   0.677   3.175   2.910
 1998HOH     H1 6199   0.718   3.089   2.924
 1998HOH     H2 6200   0.720   3.209   2.832
 1999HOH      O 6201   1.464   1.926   1.337
 1999HOH     H1 6202   1.542   1.896   1.289
 1999HOH     H2 6203   1.499   1.983   1.406
 2000HOH      O 6204   3.203   1.333   2.112
 2000HOH     H1 6205   3.181   1.286   2.192
 2000HOH     H2 6206   3.223   1.422   2.142
 2001HOH      O 6207   0.815   0.198   2.511
 2001HOH     H1 6208   0.900   0.165   2.480
 2001HOH     H2 6209   0.802   0.278   2.461
 2002HOH      O 6210   2.114   0.800   3.673
 2002HOH     H1 6211   2.106   0.717   3.721
 2002HOH     H2 6212   2.049   0.793   3.603
 2003HOH      O 6213   3.100   1.860   3.587
 2003HOH     H1 6214   3.103   1.955   3.598
 2003HOH     H2 6215   3.188   1.830   3.613
 2004HOH      O 6216   0.782   0.428   2.695
 2004HOH     H1 6217   0.726   0.350   2.689
 2004HOH     H2 6218   0.845   0.407   2.763
 2005HOH      O 6219   1.517   2.993   1.358
 2005HOH     H1 6220   1.488   3.058   1.294
 2005HOH     H2 6221   1.602   3.025   1.388
 2006HOH      O 6222   3.048   2.845   2.299
 2006HOH     H1 6223   3.112   2.773   2.296
 2006HOH     H2 6224   3.061   2.893   2.217
 2007HOH      O 6225   1.133   1.177   3.269
 2007HOH     H1 6226   1.099   1.095   3.235
 2007HOH     H2 6227   1.058   1.237   3.270
 2008HOH      O 6228   2.868   2.926   1.240
 2008HOH     H1 6229   2.849   2.949   1.149
 2008HOH     H2 6230   2.825   2.994   1.292
 2009HOH      O 6231   1.969   2.955   0.618
 2009HOH     H1 6232   2.059   2.986   0.632
 2009HOH     H2 6233   1.917   3.006   0.680
 2010HOH      O 6234   3.849   1.288   3.308
 2010HOH     H1 6235   3.879   1.201   3.283
 2010HOH     H2 6236   3.920   1.346   3.282
 2011HOH      O 6237   3.748   2.556   2.508
 2011HOH     H1 6238   3.748   2.643   2.548
 2011HOH     H2 6239   3.703   2.500   2.572
 2012HOH      O 6240   2.210   2.063   0.023
 2012HOH     H1 6241   2.229   2.110  -0.058
 2012HOH     H2 6242   2.170   2.128   0.080
 2013HOH      O 6243   0.603   2.641   1.877
 2013HOH     H1 6244   0.635   2.719   1.832
 2013HOH     H2 6245   0.526   2.672   1.926
 2014HOH      O 6246   2.358   3.991   3.363
 2014HOH     H1 6247   2.265   4.010   3.354
 2014HOH     H2 6248   2.383   3.952   3.279
 2015HOH      O 6249   3.146   1.819   1.022
 2015HOH     H1 6250   3.220   1.873   0.995
 2015HOH     H2 6251   3.089   1.880   1.070
 2016HOH      O 6252   2.392   2.367   2.838
 2016HOH     H1 6253   2.387   2.461   2.854
 2016HOH     H2 6254   2.305   2.343   2.806
 2017HOH      O 6255   1.657   3.524   0.127
 2017HOH     H1 6256   1.667   3.439   0.084
 2017HOH     H2 6257   1.570   3.520   0.167
 2018HOH      O 6258   1.634   0.567   2.615
 2018HOH     H1 6259   1.716   0.579   2.567
 2018HOH     H2 6260   1.653   0.598   2.703
 2019HOH      O 6261   0.083   0.751   2.038
 2019HOH     H1 6262   0.123   0.753   2.125
 2019HOH     H2 6263   0.120   0.674   1.996
 2020HOH      O 6264   3.008   3.972   2.662
 2020HOH     H1 6265   2.970   4.053   2.697
 2020HOH     H2 6266   3.018   3.988   2.569
 2021HOH      O 6267   1.638   2.540   3.930
 2021HOH     H1 6268   1.611   2.540   3.839
 2021HOH     H2 6269   1.683   2.456   3.942
 2022HOH      O 6270   2.555   0.289   0.631
 2022HOH     H1 6271   2.511   0.374   0.633
 2022HOH     H2 6272   2.492   0.229   0.672
 2023HOH      O 6273   1.772   0.324   2.306
 2023HOH     H1 6274   1.728   0.401   2.270
 2023HOH     H2 6275   1.704   0.278   2.355
 2024HOH      O 6276   3.110   2.981   1.306
 2024HOH     H1 6277   3.026   2.953   1.269
 2024HOH     H2 6278   3.160   2.900   1.315
 2025HOH      O 6279   1.190   3.507   3.541
 2025HOH     H1 6280   1.210   3.488   3.632
 2025HOH     H2 6281   1.117   3.569   3.544
 2026HOH      O 6282   3.003   2.553   3.463
 2026HOH     H1 6283   2.954   2.614   3.408
 2026HOH     H2 6284   3.061   2.506   3.402
 2027HOH      O 6285   3.527   3.847   0.303
 2027HOH     H1 6286   3.469   3.809   0.369
 2027HOH     H2 6287   3.586   3.776   0.278
 2028HOH      O 6288   2.074   3.405   2.562
 2028HOH     H1 6289   2.168   3.386   2.571
 2028HOH     H2 6290   2.070   3.499   2.548
 2029HOH      O 6291   1.907   3.614   1.358
 2029HOH     H1 6292   1.866   3.527   1.351
 2029HOH     H2 6293   1.994   3.596   1.394
 2030HOH      O 6294   1.218   2.377   0.303
 2030HOH     H1 6295   1.295   2.328   0.332
 2030HOH     H2 6296   1.179   2.410   0.384
 2031HOH      O 6297   2.772   2.253   3.123
 2031HOH     H1 6298   2.798   2.195   3.195
 2031HOH     H2 6299   2.854   2.272   3.077
 2032HOH      O 6300   2.991   3.352   2.931
 2032HOH     H1 6301   2.935   3.425   2.906
 2032HOH     H2 6302   2.955   3.276   2.885
 2033HOH      O 6303   1.418   0.958   3.349
 2033HOH     H1 6304   1.415   1.001   3.263
 2033HOH     H2 6305   1.400   1.029   3.411
 2034HOH      O 6306   3.389   3.930   3.407
 2034HOH     H1 6307   3.463   3.870   3.400
 2034HOH     H2 6308   3.411   3.987   3.481
 2035HOH      O 6309   1.336   3.170   1.736
 2035HOH     H1 6310   1.349   3.253   1.782
 2035HOH     H2 6311   1.403   3.112   1.773
 2036HOH      O 6312   2.489   3.370   0.885
 2036HOH     H1 6313   2.477   3.464   0.878
 2036HOH     H2 6314   2.405   3.333   0.858
 2037HOH      O 6315   3.211   3.679   2.124
 2037HOH     H1 6316   3.143   3.615   2.145
 2037HOH     H2 6317   3.264   3.684   2.203
 2038HOH      O 6318   0.265   2.137   2.172
 2038HOH     H1 6319   0.307   2.209   2.219
 2038HOH     H2 6320   0.331   2.109   2.109
 2039HOH      O 6321   0.797   3.666   1.678
 2039HOH     H1 6322   0.792   3.578   1.716
 2039HOH     H2 6323   0.790   3.652   1.584
 2040HOH      O 6324   2.439   0.120   0.230
 2040HOH     H1 6325   2.514   0.152   0.281
 2040HOH     H2 6326   2.445   0.166   0.146
 2041HOH      O 6327   0.246   2.253   0.141
 2041HOH     H1 6328   0.326   2.276   0.095
 2041HOH     H2 6329   0.228   2.330   0.196
 2042HOH      O 6330   0.799   0.388   3.917
 2042HOH     H1 6331   0.884   0.427   3.895
 2042HOH     H2 6332   0.736   0.458   3.901
 2043HOH      O 6333   2.577   3.907   2.872
 2043HOH     H1 6334   2.634   3.830   2.872
 2043HOH     H2 6335   2.587   3.944   2.784
 2044HOH      O 6336   0.763   2.864   0.865
 2044HOH     H1 6337   0.729   2.953   0.873
 2044HOH     H2 6338   0.713   2.824   0.794
 2045HOH      O 6339   3.463   2.014   3.073
 2045HOH     H1 6340   3.456   1.928   3.115
 2045HOH     H2 6341   3.481   1.994   2.981
 2046HOH      O 6342   4.011   1.626   2.375
 2046HOH     H1 6343   3.986   1.534   2.368
 2046HOH     H2 6344   4.061   1.643   2.295
 2047HOH      O 6345   0.782   3.391   1.800
 2047HOH     H1 6346   0.858   3.333   1.793
 2047HOH     H2 6347   0.755   3.384   1.892
 2048HOH      O 6348   1.171   3.268   2.391
 2048HOH     H1 6349   1.109   3.296   2.324
 2048HOH     H2 6350   1.126   3.287   2.474
 2049HOH      O 6351   0.792   3.408   0.061
 2049HOH     H1 6352   0.732   3.475   0.094
 2049HOH     H2 6353   0.872   3.419   0.113
 2050HOH      O 6354   0.167   3.096   2.611
 2050HOH     H1 6355   0.247   3.088   2.662
 2050HOH     H2 6356   0.196   3.095   2.520
 2051HOH      O 6357   1.181   1.233   0.048
 2051HOH     H1 6358   1.112   1.236  -0.018
 2051HOH     H2 6359   1.262   1.245  -0.001
 2052HOH      O 6360   2.220   0.012   2.246
 2052HOH     H1 6361   2.132   0.022   2.281
 2052HOH     H2 6362   2.227   0.079   2.178
 2053HOH      O 6363   3.634   1.374   2.695
 2053HOH     H1 6364   3.574   1.300   2.704
 2053HOH     H2 6365   3.663   1.392   2.784
 2054HOH      O 6366   3.795   1.278   1.104
 2054HOH     H1 6367   3.782   1.183   1.106
 2054HOH     H2 6368   3.713   1.313   1.070
 2055HOH      O 6369   3.742   0.655   0.125
 2055HOH     H1 6370   3.658   0.615   0.147
 2055HOH     H2 6371   3.784   0.590   0.068
 2056HOH      O 6372   3.834   2.914   2.896
 2056HOH     H1 6373   3.816   2.844   2.958
 2056HOH     H2 6374   3.930   2.913   2.887
 2057HOH      O 6375   2.195   0.260   0.314
 2057HOH     H1 6376   2.279   0.252   0.270
 2057HOH     H2 6377   2.201   0.201   0.390
 2058HOH      O 6378   0.166   2.938   1.822
 2058HOH     H1 6379   0.247   2.968   1.781
 2058HOH     H2 6380   0.184   2.847   1.846
 2059HOH      O 6381   2.900   1.204   3.457
 2059HOH     H1 6382   2.933   1.115   3.471
 2059HOH     H2 6383   2.805   1.193   3.453
 2060HOH      O 6384   3.748   1.671   3.437
 2060HOH     H1 6385   3.705   1.751   3.468
 2060HOH     H2 6386   3.816   1.655   3.502
 2061HOH      O 6387   1.406   0.217   1.771
 2061HOH     H1 6388   1.367   0.303   1.755
 2061HOH     H2 6389   1.480   0.235   1.828
 2062HOH      O 6390   2.091   3.227   3.350
 2062HOH     H1 6391   2.031   3.218   3.276
 2062HOH     H2 6392   2.115   3.319   3.351
 2063HOH      O 6393   3.652   2.457   1.167
 2063HOH     H1 6394   3.563   2.446   1.200
 2063HOH     H2 6395   3.643   2.518   1.094
 2064HOH      O 6396   2.737   0.096   3.889
 2064HOH     H1 6397   2.717   0.179   3.932
 2064HOH     H2 6398   2.795   0.050   3.949
 2065HOH      O 6399   1.823   2.256   2.127
 2065HOH     H1 6400   1.749   2.260   2.066
 2065HOH     H2 6401   1.898   2.232   2.072
 2066HOH      O 6402   0.758   3.995   1.256
 2066HOH     H1 6403   0.723   4.041   1.332
 2066HOH     H2 6404   0.850   3.981   1.276
 2067HOH      O 6405   1.086   1.624   3.591
 2067HOH     H1 6406   1.181   1.631   3.584
 2067HOH     H2 6407   1.059   1.585   3.508
 2068HOH      O 6408   1.238   3.832   1.618
 2068HOH     H1 6409   1.297   3.905   1.635
 2068HOH     H2 6410   1.295   3.758   1.598
 2069HOH      O 6411   0.727   2.635   2.186
 2069HOH     H1 6412   0.661   2.659   2.251
 2069HOH     H2 6413   0.708   2.692   2.111
 2070HOH      O 6414   3.850   2.423   1.354
 2070HOH     H1 6415   3.864   2.517   1.368
 2070HOH     H2 6416   3.783   2.418   1.286
 2071HOH      O 6417   0.381   3.352   1.231
 2071HOH     H1 6418   0.377   3.389   1.143
 2071HOH     H2 6419   0.323   3.409   1.283
 2072HOH      O 6420   3.281   1.686   1.927
 2072HOH     H1 6421   3.241   1.649   2.006
 2072HOH     H2 6422   3.316   1.770   1.955
 2073HOH      O 6423   0.074   1.933   0.399
 2073HOH     H1 6424   0.053   2.016   0.441
 2073HOH     H2 6425   0.129   1.887   0.463
 2074HOH      O 6426   0.455   0.382   0.920
 2074HOH     H1 6427   0.471   0.426   0.836
 2074HOH     H2 6428   0.516   0.309   0.920
 2075HOH      O 6429   1.957   2.038   0.849
 2075HOH     H1 6430   1.971   2.121   0.803
 2075HOH     H2 6431   1.862   2.025   0.845
 2076HOH      O 6432   0.943   3.884   4.011
 2076HOH     H1 6433   0.883   3.924   4.073
 2076HOH     H2 6434   0.899   3.892   3.926
 2077HOH      O 6435   3.143   3.129   3.031
 2077HOH     H1 6436   3.234   3.138   3.059
 2077HOH     H2 6437   3.115   3.218   3.013
 2078HOH      O 6438   1.068   2.753   3.970
 2078HOH     H1 6439   1.156   2.765   4.007
 2078HOH     H2 6440   1.077   2.782   3.879
 2079HOH      O 6441   2.668   2.310   2.541
 2079HOH     H1 6442   2.678   2.247   2.470
 2079HOH     H2 6443   2.634   2.389   2.498
 2080HOH      O 6444   1.435   1.870   1.631
 2080HOH     H1 6445   1.456   1.784   1.668
 2080HOH     H2 6446   1.400   1.920   1.704
 2081HOH      O 6447   3.320   2.443   3.903
 2081HOH     H1 6448   3.319   2.469   3.811
 2081HOH     H2 6449   3.368   2.360   3.904
 2082HOH      O 6450   0.733   3.949   0.139
 2082HOH     H1 6451   0.639   3.932   0.133
 2082HOH     H2 6452   0.739   4.042   0.158
 2083HOH      O 6453   0.599   2.182   0.720
 2083HOH     H1 6454   0.596   2.105   0.777
 2083HOH     H2 6455   0.628   2.253   0.776
 2084HOH      O 6456   3.088   0.757   1.644
 2084HOH     H1 6457   3.094   0.684   1.705
 2084HOH     H2 6458   3.021   0.814   1.681
 2085HOH      O 6459   3.821   1.121   0.766
 2085HOH     H1 6460   3.759   1.048   0.766
 2085HOH     H2 6461   3.906   1.081   0.785
 2086HOH      O 6462   3.671   2.127   1.104
 2086HOH     H1 6463   3.644   2.035   1.108
 2086HOH     H2 6464   3.660   2.152   1.013
 2087HOH      O 6465   3.398   1.005   1.394
 2087HOH     H1 6466   3.350   0.987   1.474
 2087HOH     H2 6467   3.443   1.088   1.410
 2088HOH      O 6468   2.636   3.847   3.514
 2088HOH     H1 6469   2.552   3.810   3.539
 2088HOH     H2 6470   2.630   3.859   3.419
 2089HOH      O 6471   0.442   0.468   1.186
 2089HOH     H1 6472   0.460   0.446   1.094
 2089HOH     H2 6473   0.431   0.384   1.229
 2090HOH      O 6474   1.544   2.252   2.640
 2090HOH     H1 6475   1.589   2.174   2.672
 2090HOH     H2 6476   1.597   2.282   2.566
 2091HOH      O 6477   2.606   1.758   3.645
 2091HOH     H1 6478   2.698   1.768   3.620
 2091HOH     H2 6479   2.608   1.750   3.740
 2092HOH      O 6480   0.827   0.433   3.325
 2092HOH     H1 6481   0.818   0.340   3.304
 2092HOH     H2 6482   0.838   0.435   3.420
 2093HOH      O 6483   3.118   1.821   2.327
 2093HOH     H1 6484   3.058   1.749   2.346
 2093HOH     H2 6485   3.112   1.878   2.404
 2094HOH      O 6486   3.443   3.007   2.292
 2094HOH     H1 6487   3.459   3.028   2.200
 2094HOH     H2 6488   3.512   3.053   2.340
 2095HOH      O 6489   1.023   0.943   0.617
 2095HOH     H1 6490   0.943   0.987   0.588
 2095HOH     H2 6491   1.090   1.012   0.614
 2096HOH      O 6492   1.547   2.518   3.644
 2096HOH     H1 6493   1.631   2.479   3.618
 2096HOH     H2 6494   1.502   2.534   3.561
 2097HOH      O 6495   3.301   0.090   1.250
 2097HOH     H1 6496   3.343   0.038   1.318
 2097HOH     H2 6497   3.350   0.172   1.249
 2098HOH      O 6498   1.528   1.077   2.378
 2098HOH     H1 6499   1.455   1.028   2.341
 2098HOH     H2 6500   1.506   1.169   2.361
 2099HOH      O 6501   1.290   3.268   2.862
 2099HOH     H1 6502   1.197   3.282   2.878
 2099HOH     H2 6503   1.329   3.355   2.871
 2100HOH      O 6504   3.366   0.852   0.081
 2100HOH     H1 6505   3.460   0.865   0.072
 2100HOH     H2 6506   3.356   0.757   0.089
 2101HOH      O 6507   3.256   0.331   2.366
 2101HOH     H1 6508   3.228   0.379   2.445
 2101HOH     H2 6509   3.205   0.250   2.368
 2102HOH      O 6510   3.043   0.264   2.546
 2102HOH     H1 6511   3.051   0.358   2.557
 2102HOH     H2 6512   3.041   0.229   2.635
 2103HOH      O 6513   3.559   0.653   2.161
 2103HOH     H1 6514   3.556   0.747   2.178
 2103HOH     H2 6515   3.472   0.632   2.127
 2104HOH      O 6516   2.433   0.540   0.642
 2104HOH     H1 6517   2.420   0.581   0.727
 2104HOH     H2 6518   2.434   0.613   0.580
 2105HOH      O 6519   0.160   0.352   0.871
 2105HOH     H1 6520   0.096   0.378   0.937
 2105HOH     H2 6521   0.234   0.412   0.885
 2106HOH      O 6522   3.594   0.049   0.180
 2106HOH     H1 6523   3.546  -0.015   0.233
 2106HOH     H2 6524   3.687   0.028   0.194
 2107HOH      O 6525   3.102   0.022   3.804
 2107HOH     H1 6526   3.137   0.076   3.733
 2107HOH     H2 6527   3.101  -0.067   3.768
 2108HOH      O 6528   2.308   0.955   0.075
 2108HOH     H1 6529   2.277   0.941  -0.015
 2108HOH     H2 6530   2.398   0.987   0.065
 2109HOH      O 6531   1.060   2.563   1.034
 2109HOH     H1 6532   1.111   2.533   0.959
 2109HOH     H2 6533   1.018   2.644   1.004
   4.04076   4.04076   4.04076   0.00000   0.00000   0.00000   0.00000   0.00000   0.00000
