Generated with MDTraj, t= 27394.0
 6533
    1MOL     C1    1   0.405   3.090   2.550
    1MOL     C2    2   0.353   3.205   2.492
    1MOL     C3    3   0.433   3.284   2.412
    1MOL     C4    4   0.558   3.246   2.372
    1MOL     C5    5   0.617   3.132   2.434
    1MOL     C6    6   0.538   3.061   2.518
    1MOL     C7    7   0.641   3.336   2.279
    1MOL     C8    8   0.771   3.381   2.348
    1MOL     N1    9   0.768   3.472   2.475
    1MOL     C9   10   0.672   3.587   2.460
    1MOL    C10   11   0.909   3.533   2.499
    1MOL    C11   12   0.729   3.391   2.590
    1MOL     H1   13   0.690   3.637   2.365
    1MOL     H2   14   0.692   3.659   2.540
    1MOL     H3   15   0.571   3.546   2.456
    1MOL     H4   16   0.902   3.577   2.599
    1MOL     H5   17   0.939   3.603   2.421
    1MOL     H6   18   0.974   3.447   2.514
    1MOL     H7   19   0.809   3.317   2.602
    1MOL     H8   20   0.631   3.350   2.567
    1MOL     H9   21   0.725   3.463   2.672
    1MOL    H10   22   0.350   3.040   2.630
    1MOL    H11   23   0.252   3.236   2.519
    1MOL    H12   24   0.388   3.372   2.368
    1MOL    H13   25   0.722   3.107   2.423
    1MOL    H14   26   0.589   2.980   2.570
    1MOL    H15   27   0.680   3.286   2.190
    1MOL    H16   28   0.584   3.426   2.255
    1MOL    H17   29   0.837   3.296   2.365
    1MOL    H18   30   0.831   3.429   2.271
    2OCB     C1   31   3.306   2.973   3.015
    2OCB     C2   32   3.321   3.154   2.801
    2OCB     C3   33   3.212   2.966   2.908
    2OCB     C4   34   3.410   3.066   3.007
    2OCB     C5   35   3.417   3.153   2.903
    2OCB     C6   36   3.221   3.058   2.802
    2OCB     O1   37   3.338   3.239   2.695
    2OCB     C7   38   3.129   3.050   2.678
    2OCB     C8   39   3.410   3.192   2.576
    2OCB     O2   40   3.308   3.157   2.480
    2OCB     C9   41   3.269   3.023   2.472
    2OCB    C10   42   3.180   2.966   2.562
    2OCB    C11   43   3.160   2.825   2.563
    2OCB    C12   44   3.330   2.937   2.378
    2OCB    C13   45   3.213   2.743   2.460
    2OCB    C14   46   3.296   2.801   2.369
    2OCB     O3   47   3.367   2.729   2.269
    2OCB    C15   48   3.188   2.593   2.459
    2OCB    C16   49   3.310   2.518   2.518
    2OCB    C17   50   3.424   2.479   2.446
    2OCB    C18   51   3.479   2.651   2.295
    2OCB     O4   52   3.442   2.511   2.315
    2OCB     O5   53   3.517   3.063   3.091
    2OCB    C19   54   3.315   2.862   3.116
    2OCB    C20   55   3.410   2.751   3.075
    2OCB     O6   56   3.604   2.869   3.148
    2OCB    C21   57   3.546   2.758   3.097
    2OCB    C22   58   3.525   2.410   2.514
    2OCB    C23   59   3.526   2.403   2.651
    2OCB    C24   60   3.633   2.659   3.051
    2OCB    C25   61   3.582   2.547   2.989
    2OCB     O7   62   3.643   2.369   2.715
    2OCB     O8   63   3.675   2.451   2.940
    2OCB    C26   64   3.714   2.462   2.798
    2OCB    C27   65   3.370   2.642   2.996
    2OCB    C28   66   3.450   2.537   2.956
    2OCB    C29   67   3.311   2.487   2.655
    2OCB    C30   68   3.400   2.410   2.878
    2OCB    C31   69   3.409   2.426   2.726
    2OCB    C32   70   3.625   2.976   3.063
    2OCB    C33   71   3.050   2.548   2.510
    2OCB    C34   72   2.929   2.606   2.439
    2OCB    C35   73   2.912   2.523   2.312
    2OCB     O9   74   2.952   2.568   2.208
    2OCB    C36   75   2.982   3.018   2.717
    2OCB    C37   76   2.916   3.138   2.787
    2OCB    C38   77   2.773   3.114   2.831
    2OCB    O10   78   2.757   3.042   2.924
    2OCB    C39   79   3.174   2.808   3.171
    2OCB    C40   80   3.100   2.918   3.260
    2OCB    C41   81   2.974   2.853   3.315
    2OCB    O11   82   2.988   2.787   3.420
    2OCB    C42   83   3.256   2.373   2.922
    2OCB    C43   84   3.238   2.311   3.061
    2OCB    C44   85   3.263   2.161   3.048
    2OCB    O12   86   3.169   2.087   3.018
    2OCB    C45   87   3.503   3.292   2.511
    2OCB    C46   88   3.715   3.447   2.409
    2OCB    C47   89   3.551   3.270   2.376
    2OCB    C48   90   3.563   3.392   2.588
    2OCB    C49   91   3.665   3.465   2.538
    2OCB    C50   92   3.660   3.349   2.329
    2OCB    C51   93   3.764   3.031   3.083
    2OCB    C52   94   4.018   3.147   3.086
    2OCB    C53   95   3.871   2.950   3.110
    2OCB    C54   96   3.784   3.168   3.063
    2OCB    C55   97   3.908   3.231   3.065
    2OCB    C56   98   3.998   3.011   3.115
    2OCB    C57   99   3.872   2.452   2.785
    2OCB    C58  100   4.146   2.434   2.743
    2OCB    C59  101   3.929   2.412   2.664
    2OCB    C60  102   3.959   2.470   2.892
    2OCB    C61  103   4.096   2.480   2.867
    2OCB    C62  104   4.063   2.409   2.635
    2OCB    C63  105   3.580   2.665   2.186
    2OCB    C64  106   3.785   2.688   2.005
    2OCB    C65  107   3.673   2.567   2.170
    2OCB    C66  108   3.591   2.780   2.113
    2OCB    C67  109   3.697   2.795   2.025
    2OCB    C68  110   3.779   2.573   2.082
    2OCB    O13  111   3.928   3.363   3.023
    2OCB    O14  112   4.185   2.526   2.962
    2OCB    O15  113   4.113   2.383   2.503
    2OCB    O16  114   3.731   3.558   2.619
    2OCB    O17  115   3.722   3.324   2.211
    2OCB    O18  116   3.889   2.485   2.084
    2OCB    O19  117   3.717   2.911   1.945
    2OCB    C69  118   4.144   2.600   3.065
    2OCB    C70  119   4.103   2.744   3.295
    2OCB    C71  120   4.130   2.737   3.057
    2OCB    C72  121   4.126   2.537   3.188
    2OCB    C73  122   4.110   2.606   3.308
    2OCB    C74  123   4.114   2.807   3.172
    2OCB    O20  124   4.106   2.941   3.173
    2OCB    C75  125   3.739   3.544   2.756
    2OCB    C76  126   3.730   3.499   3.032
    2OCB    C77  127   3.646   3.607   2.834
    2OCB    C78  128   3.828   3.450   2.818
    2OCB    C79  129   3.828   3.435   2.955
    2OCB    C80  130   3.640   3.584   2.969
    2OCB    C81  131   4.031   2.348   2.396
    2OCB    C82  132   3.851   2.274   2.198
    2OCB    C83  133   3.969   2.225   2.402
    2OCB    C84  134   4.001   2.437   2.291
    2OCB    C85  135   3.912   2.402   2.191
    2OCB    C86  136   3.880   2.181   2.299
    2OCB    C87  137   3.810   2.052   2.304
    2OCB    O21  138   3.705   2.030   2.249
    2OCB    C88  139   3.376   3.271   1.872
    2OCB    O22  140   3.338   3.383   1.894
    2OCB    C89  141   3.529   3.644   3.052
    2OCB    O23  142   3.471   3.746   3.031
    2OCB    O24  143   2.854   2.414   2.314
    2OCB    O25  144   3.373   2.113   3.076
    2OCB    O26  145   2.870   2.852   3.251
    2OCB    C90  146   4.104   2.538   3.440
    2OCB    O27  147   4.161   2.433   3.460
    2OCB    O28  148   3.322   3.205   1.786
    2OCB    O29  149   3.860   1.960   2.366
    2OCB    O30  150   4.041   2.595   3.527
    2OCB    O31  151   3.492   3.577   3.145
    2OCB    O32  152   2.675   3.149   2.763
    2OCB    C91  153   3.666   3.238   2.119
    2OCB    C92  154   3.558   3.090   1.904
    2OCB    C93  155   3.727   3.117   2.079
    2OCB    C94  156   3.552   3.286   2.051
    2OCB    C95  157   3.498   3.215   1.943
    2OCB    C96  158   3.672   3.041   1.978
    2OCB    C97  159   3.846   3.067   2.137
    2OCB    C98  160   3.938   3.386   2.732
    2OCB    C99  161   4.146   2.810   2.923
    2OCB      C  162   4.077   2.572   2.289
    2OCB     H1  163   3.142   2.884   2.924
    2OCB     H2  164   3.500   3.222   2.896
    2OCB     H3  165   3.116   3.150   2.636
    2OCB     H4  166   3.463   3.101   2.608
    2OCB     H5  167   3.094   2.781   2.638
    2OCB     H6  168   3.396   2.977   2.302
    2OCB     H7  169   3.188   2.564   2.353
    2OCB     H8  170   3.525   2.684   2.390
    2OCB     H9  171   3.361   2.911   3.202
    2OCB    H10  172   3.616   2.395   2.456
    2OCB    H11  173   3.741   2.667   3.066
    2OCB    H12  174   3.701   2.567   2.769
    2OCB    H13  175   3.267   2.640   2.963
    2OCB    H14  176   3.223   2.526   2.705
    2OCB    H15  177   3.454   2.320   2.909
    2OCB    H16  178   3.624   2.957   2.955
    2OCB    H17  179   3.065   2.439   2.507
    2OCB    H18  180   3.034   2.562   2.617
    2OCB    H19  181   2.849   2.599   2.513
    2OCB    H20  182   2.941   2.714   2.432
    2OCB    H21  183   2.977   2.922   2.769
    2OCB    H22  184   2.920   2.999   2.629
    2OCB    H23  185   2.976   3.154   2.877
    2OCB    H24  186   2.916   3.219   2.714
    2OCB    H25  187   3.102   2.778   3.094
    2OCB    H26  188   3.189   2.727   3.242
    2OCB    H27  189   3.171   2.955   3.333
    2OCB    H28  190   3.080   2.996   3.186
    2OCB    H29  191   3.188   2.456   2.902
    2OCB    H30  192   3.218   2.296   2.856
    2OCB    H31  193   3.296   2.362   3.138
    2OCB    H32  194   3.135   2.338   3.087
    2OCB    H33  195   3.803   3.495   2.369
    2OCB    H34  196   3.513   3.190   2.315
    2OCB    H35  197   3.528   3.402   2.690
    2OCB    H36  198   4.116   3.190   3.067
    2OCB    H37  199   3.863   2.846   3.140
    2OCB    H38  200   3.693   3.223   3.042
    2OCB    H39  201   4.251   2.415   2.721
    2OCB    H40  202   3.862   2.395   2.580
    2OCB    H41  203   3.924   2.496   2.991
    2OCB    H42  204   3.871   2.700   1.940
    2OCB    H43  205   3.669   2.484   2.240
    2OCB    H44  206   3.514   2.857   2.107
    2OCB    H45  207   4.074   2.804   3.381
    2OCB    H46  208   4.142   2.429   3.192
    2OCB    H47  209   3.724   3.482   3.139
    2OCB    H48  210   3.577   3.671   2.779
    2OCB    H49  211   3.783   2.241   2.120
    2OCB    H50  212   3.984   2.162   2.489
    2OCB    H51  213   3.513   3.034   1.822
    2OCB    H52  214   3.506   3.379   2.082
    2OCB    H53  215   3.916   3.024   2.066
    2OCB    H54  216   3.902   3.144   2.191
    2OCB    H55  217   3.817   2.996   2.215
    2OCB    H56  218   3.965   3.432   2.637
    2OCB    H57  219   4.027   3.386   2.795
    2OCB    H58  220   3.912   3.283   2.709
    2OCB    H59  221   4.089   2.903   2.930
    2OCB    H60  222   4.251   2.830   2.900
    2OCB    H61  223   4.115   2.751   2.836
    2OCB    H62  224   4.186   2.558   2.294
    2OCB    H63  225   4.062   2.643   2.207
    2OCB    H64  226   4.058   2.619   2.386
    3Na+    Na+  227   3.070   0.591   3.767
    4Na+    Na+  228   1.916   1.711   1.558
    5Na+    Na+  229   3.448   1.572   3.149
    6Na+    Na+  230   2.536   3.065   2.917
    7Na+    Na+  231   3.735   2.865   3.583
    8Na+    Na+  232   3.041   2.430   2.056
    9Na+    Na+  233   1.941   0.274   2.539
   10HOH      O  234   3.577   0.182   2.259
   10HOH     H1  235   3.498   0.142   2.223
   10HOH     H2  236   3.548   0.268   2.290
   11HOH      O  237   3.873   0.227   0.784
   11HOH     H1  238   3.909   0.284   0.852
   11HOH     H2  239   3.879   0.139   0.820
   12HOH      O  240   0.336   3.922   1.084
   12HOH     H1  241   0.276   3.849   1.069
   12HOH     H2  242   0.360   3.915   1.176
   13HOH      O  243   1.441   1.354   2.261
   13HOH     H1  244   1.460   1.299   2.338
   13HOH     H2  245   1.346   1.352   2.253
   14HOH      O  246   3.631   2.398   1.790
   14HOH     H1  247   3.701   2.462   1.781
   14HOH     H2  248   3.670   2.316   1.758
   15HOH      O  249   0.086   0.495   0.795
   15HOH     H1  250   0.164   0.445   0.770
   15HOH     H2  251   0.048   0.445   0.868
   16HOH      O  252   1.995   1.514   1.132
   16HOH     H1  253   1.903   1.487   1.142
   16HOH     H2  254   2.023   1.537   1.220
   17HOH      O  255   0.708   1.233   0.481
   17HOH     H1  256   0.682   1.323   0.460
   17HOH     H2  257   0.788   1.219   0.429
   18HOH      O  258   1.156   1.806   0.950
   18HOH     H1  259   1.162   1.827   0.857
   18HOH     H2  260   1.108   1.879   0.989
   19HOH      O  261   2.567   2.848   1.392
   19HOH     H1  262   2.491   2.867   1.337
   19HOH     H2  263   2.640   2.843   1.331
   20HOH      O  264   0.191   2.597   1.043
   20HOH     H1  265   0.182   2.538   0.969
   20HOH     H2  266   0.141   2.675   1.019
   21HOH      O  267   1.312   3.368   2.500
   21HOH     H1  268   1.369   3.441   2.479
   21HOH     H2  269   1.330   3.349   2.592
   22HOH      O  270   3.690   1.933   3.214
   22HOH     H1  271   3.767   1.931   3.270
   22HOH     H2  272   3.661   2.024   3.216
   23HOH      O  273   2.626   0.802   3.539
   23HOH     H1  274   2.554   0.849   3.579
   23HOH     H2  275   2.687   0.785   3.611
   24HOH      O  276   3.768   3.218   1.127
   24HOH     H1  277   3.850   3.261   1.152
   24HOH     H2  278   3.733   3.185   1.209
   25HOH      O  279   2.614   2.231   1.507
   25HOH     H1  280   2.644   2.199   1.422
   25HOH     H2  281   2.573   2.155   1.549
   26HOH      O  282   1.856   0.319   1.544
   26HOH     H1  283   1.844   0.364   1.628
   26HOH     H2  284   1.795   0.245   1.547
   27HOH      O  285   2.812   3.945   1.898
   27HOH     H1  286   2.905   3.953   1.877
   27HOH     H2  287   2.810   3.909   1.986
   28HOH      O  288   0.513   1.309   2.611
   28HOH     H1  289   0.427   1.300   2.650
   28HOH     H2  290   0.572   1.265   2.672
   29HOH      O  291   2.583   2.001   3.067
   29HOH     H1  292   2.587   1.993   2.972
   29HOH     H2  293   2.555   2.092   3.082
   30HOH      O  294   0.540   2.690   2.738
   30HOH     H1  295   0.464   2.663   2.687
   30HOH     H2  296   0.574   2.608   2.775
   31HOH      O  297   2.031   1.104   3.406
   31HOH     H1  298   1.983   1.032   3.365
   31HOH     H2  299   1.978   1.127   3.483
   32HOH      O  300   1.507   0.160   2.568
   32HOH     H1  301   1.426   0.138   2.613
   32HOH     H2  302   1.479   0.207   2.490
   33HOH      O  303   0.015  -0.035   2.077
   33HOH     H1  304  -0.020   0.042   2.032
   33HOH     H2  305   0.045  -0.001   2.161
   34HOH      O  306   3.531   0.991   3.701
   34HOH     H1  307   3.509   1.070   3.750
   34HOH     H2  308   3.539   1.020   3.611
   35HOH      O  309   3.594   0.921   0.307
   35HOH     H1  310   3.511   0.882   0.334
   35HOH     H2  311   3.657   0.894   0.375
   36HOH      O  312   0.335   1.751   3.117
   36HOH     H1  313   0.419   1.717   3.146
   36HOH     H2  314   0.352   1.843   3.097
   37HOH      O  315   0.091   3.313   1.815
   37HOH     H1  316   0.155   3.247   1.843
   37HOH     H2  317   0.013   3.262   1.792
   38HOH      O  318   0.148   3.817   3.714
   38HOH     H1  319   0.190   3.798   3.798
   38HOH     H2  320   0.151   3.734   3.667
   39HOH      O  321   0.399   1.188   3.373
   39HOH     H1  322   0.441   1.240   3.304
   39HOH     H2  323   0.327   1.244   3.403
   40HOH      O  324   4.004   0.228   3.490
   40HOH     H1  325   3.994   0.134   3.505
   40HOH     H2  326   4.081   0.235   3.434
   41HOH      O  327   1.049   2.445   2.170
   41HOH     H1  328   1.021   2.535   2.150
   41HOH     H2  329   1.138   2.440   2.136
   42HOH      O  330   1.706   0.550   2.827
   42HOH     H1  331   1.767   0.517   2.892
   42HOH     H2  332   1.644   0.478   2.813
   43HOH      O  333   0.165   1.212   0.361
   43HOH     H1  334   0.079   1.171   0.368
   43HOH     H2  335   0.163   1.283   0.425
   44HOH      O  336   2.290   0.330   2.394
   44HOH     H1  337   2.237   0.408   2.382
   44HOH     H2  338   2.226   0.260   2.409
   45HOH      O  339   1.074   2.788   2.648
   45HOH     H1  340   1.147   2.845   2.625
   45HOH     H2  341   1.074   2.721   2.580
   46HOH      O  342   0.418   3.986   0.832
   46HOH     H1  343   0.406   3.958   0.923
   46HOH     H2  344   0.330   4.008   0.802
   47HOH      O  345   0.880   2.486   1.654
   47HOH     H1  346   0.964   2.461   1.617
   47HOH     H2  347   0.845   2.552   1.593
   48HOH      O  348   2.381   2.581   0.482
   48HOH     H1  349   2.445   2.617   0.421
   48HOH     H2  350   2.313   2.543   0.427
   49HOH      O  351   0.514   3.512   1.768
   49HOH     H1  352   0.556   3.582   1.719
   49HOH     H2  353   0.421   3.534   1.767
   50HOH      O  354   3.349   2.656   1.472
   50HOH     H1  355   3.316   2.607   1.397
   50HOH     H2  356   3.408   2.595   1.517
   51HOH      O  357   0.723   0.182   0.419
   51HOH     H1  358   0.654   0.241   0.387
   51HOH     H2  359   0.766   0.151   0.339
   52HOH      O  360   1.421   3.726   3.292
   52HOH     H1  361   1.359   3.654   3.292
   52HOH     H2  362   1.489   3.699   3.230
   53HOH      O  363   1.876   2.649   1.935
   53HOH     H1  364   1.939   2.720   1.932
   53HOH     H2  365   1.877   2.612   1.847
   54HOH      O  366   1.570   0.765   2.904
   54HOH     H1  367   1.596   0.778   2.995
   54HOH     H2  368   1.607   0.679   2.881
   55HOH      O  369   3.288   3.294   0.626
   55HOH     H1  370   3.200   3.297   0.589
   55HOH     H2  371   3.335   3.230   0.572
   56HOH      O  372   3.143   0.399   0.960
   56HOH     H1  373   3.179   0.383   0.873
   56HOH     H2  374   3.065   0.343   0.964
   57HOH      O  375   3.890   4.045   0.514
   57HOH     H1  376   3.817   4.031   0.574
   57HOH     H2  377   3.965   4.007   0.558
   58HOH      O  378   1.972   2.894   3.363
   58HOH     H1  379   1.915   2.865   3.292
   58HOH     H2  380   2.007   2.813   3.400
   59HOH      O  381   2.375   1.595   3.344
   59HOH     H1  382   2.407   1.649   3.273
   59HOH     H2  383   2.298   1.641   3.377
   60HOH      O  384   2.139   2.353   1.862
   60HOH     H1  385   2.150   2.448   1.863
   60HOH     H2  386   2.225   2.319   1.888
   61HOH      O  387   2.136   0.836   0.484
   61HOH     H1  388   2.208   0.774   0.480
   61HOH     H2  389   2.123   0.851   0.578
   62HOH      O  390   2.625   3.425   2.721
   62HOH     H1  391   2.607   3.331   2.722
   62HOH     H2  392   2.719   3.431   2.701
   63HOH      O  393   3.688   2.046   0.212
   63HOH     H1  394   3.627   1.999   0.154
   63HOH     H2  395   3.633   2.110   0.257
   64HOH      O  396   0.208   1.431   1.778
   64HOH     H1  397   0.137   1.387   1.730
   64HOH     H2  398   0.219   1.378   1.857
   65HOH      O  399   1.176   0.441   3.846
   65HOH     H1  400   1.209   0.355   3.873
   65HOH     H2  401   1.095   0.421   3.798
   66HOH      O  402   1.866   0.667   3.616
   66HOH     H1  403   1.808   0.592   3.631
   66HOH     H2  404   1.857   0.720   3.696
   67HOH      O  405   0.870   1.505   3.458
   67HOH     H1  406   0.953   1.535   3.494
   67HOH     H2  407   0.809   1.509   3.532
   68HOH      O  408   0.613   0.951   0.983
   68HOH     H1  409   0.602   0.926   0.892
   68HOH     H2  410   0.612   0.868   1.031
   69HOH      O  411   1.668   0.983   1.313
   69HOH     H1  412   1.603   1.040   1.274
   69HOH     H2  413   1.619   0.906   1.342
   70HOH      O  414   1.215   1.463   2.921
   70HOH     H1  415   1.284   1.416   2.874
   70HOH     H2  416   1.185   1.401   2.987
   71HOH      O  417   2.160   1.540   4.035
   71HOH     H1  418   2.217   1.472   4.070
   71HOH     H2  419   2.211   1.580   3.965
   72HOH      O  420   3.411   2.861   0.755
   72HOH     H1  421   3.456   2.780   0.777
   72HOH     H2  422   3.475   2.912   0.705
   73HOH      O  423   0.233   2.383   3.698
   73HOH     H1  424   0.194   2.409   3.615
   73HOH     H2  425   0.320   2.351   3.674
   74HOH      O  426   1.361   0.974   1.371
   74HOH     H1  427   1.406   0.987   1.455
   74HOH     H2  428   1.394   1.045   1.316
   75HOH      O  429   0.095   1.303   2.344
   75HOH     H1  430   0.153   1.264   2.409
   75HOH     H2  431   0.152   1.320   2.269
   76HOH      O  432   2.678   0.919   3.300
   76HOH     H1  433   2.663   0.858   3.371
   76HOH     H2  434   2.599   0.972   3.296
   77HOH      O  435  -0.000   0.524   1.751
   77HOH     H1  436   0.047   0.592   1.799
   77HOH     H2  437   0.047   0.517   1.667
   78HOH      O  438   3.976   3.920   3.256
   78HOH     H1  439   3.989   3.942   3.164
   78HOH     H2  440   4.029   3.841   3.270
   79HOH      O  441   1.508   0.765   1.943
   79HOH     H1  442   1.453   0.730   2.013
   79HOH     H2  443   1.459   0.839   1.909
   80HOH      O  444   1.346   1.950   0.076
   80HOH     H1  445   1.262   1.940   0.122
   80HOH     H2  446   1.382   1.862   0.073
   81HOH      O  447   2.067   3.243   2.001
   81HOH     H1  448   2.012   3.188   1.946
   81HOH     H2  449   2.152   3.243   1.957
   82HOH      O  450   2.965   3.704   2.832
   82HOH     H1  451   2.942   3.796   2.848
   82HOH     H2  452   3.058   3.699   2.851
   83HOH      O  453   0.579   2.443   3.372
   83HOH     H1  454   0.491   2.427   3.338
   83HOH     H2  455   0.590   2.538   3.366
   84HOH      O  456   1.753   1.278   1.759
   84HOH     H1  457   1.843   1.258   1.735
   84HOH     H2  458   1.760   1.340   1.831
   85HOH      O  459   2.665   1.705   2.675
   85HOH     H1  460   2.698   1.683   2.589
   85HOH     H2  461   2.604   1.635   2.697
   86HOH      O  462   0.519   3.854   2.601
   86HOH     H1  463   0.527   3.783   2.664
   86HOH     H2  464   0.437   3.836   2.555
   87HOH      O  465   0.119   2.391   1.778
   87HOH     H1  466   0.158   2.414   1.693
   87HOH     H2  467   0.090   2.301   1.767
   88HOH      O  468   0.033   3.998   2.882
   88HOH     H1  469  -0.027   3.936   2.924
   88HOH     H2  470   0.037   4.072   2.941
   89HOH      O  471   0.538   0.256   1.854
   89HOH     H1  472   0.629   0.260   1.883
   89HOH     H2  473   0.510   0.348   1.848
   90HOH      O  474   1.350   0.715   2.585
   90HOH     H1  475   1.415   0.678   2.526
   90HOH     H2  476   1.300   0.640   2.617
   91HOH      O  477   2.930   1.179   0.246
   91HOH     H1  478   2.861   1.183   0.180
   91HOH     H2  479   2.898   1.116   0.311
   92HOH      O  480   2.680   0.118   2.022
   92HOH     H1  481   2.696   0.102   2.115
   92HOH     H2  482   2.715   0.041   1.978
   93HOH      O  483   2.958   1.029   3.874
   93HOH     H1  484   3.044   1.017   3.834
   93HOH     H2  485   2.928   0.941   3.894
   94HOH      O  486   1.405   1.273   2.775
   94HOH     H1  487   1.386   1.180   2.788
   94HOH     H2  488   1.490   1.286   2.816
   95HOH      O  489   3.551   2.495   1.548
   95HOH     H1  490   3.560   2.426   1.613
   95HOH     H2  491   3.615   2.473   1.480
   96HOH      O  492   3.831   3.063   2.789
   96HOH     H1  493   3.839   3.088   2.881
   96HOH     H2  494   3.799   2.973   2.791
   97HOH      O  495   1.268   1.096   3.526
   97HOH     H1  496   1.225   1.068   3.608
   97HOH     H2  497   1.347   1.042   3.522
   98HOH      O  498   3.893   1.129   1.412
   98HOH     H1  499   3.912   1.074   1.336
   98HOH     H2  500   3.975   1.175   1.429
   99HOH      O  501   3.981   2.713   2.605
   99HOH     H1  502   4.040   2.772   2.558
   99HOH     H2  503   4.035   2.676   2.675
  100HOH      O  504   3.889   2.062   3.379
  100HOH     H1  505   3.886   2.139   3.322
  100HOH     H2  506   3.965   2.076   3.435
  101HOH      O  507   1.062   3.252   0.983
  101HOH     H1  508   0.980   3.210   1.008
  101HOH     H2  509   1.093   3.294   1.064
  102HOH      O  510   3.264   3.701   2.871
  102HOH     H1  511   3.313   3.739   2.944
  102HOH     H2  512   3.271   3.607   2.885
  103HOH      O  513   2.474   0.230   1.511
  103HOH     H1  514   2.388   0.263   1.539
  103HOH     H2  515   2.471   0.136   1.531
  104HOH      O  516   1.356   3.763   1.705
  104HOH     H1  517   1.278   3.809   1.734
  104HOH     H2  518   1.383   3.710   1.780
  105HOH      O  519   0.174   2.581   0.745
  105HOH     H1  520   0.265   2.594   0.772
  105HOH     H2  521   0.169   2.618   0.657
  106HOH      O  522   3.210   1.005   3.743
  106HOH     H1  523   3.197   0.987   3.650
  106HOH     H2  524   3.254   0.928   3.777
  107HOH      O  525   2.600   1.317   4.017
  107HOH     H1  526   2.644   1.386   3.969
  107HOH     H2  527   2.670   1.261   4.051
  108HOH      O  528   2.138   1.650   0.648
  108HOH     H1  529   2.100   1.567   0.619
  108HOH     H2  530   2.106   1.714   0.585
  109HOH      O  531   0.345   2.639   1.247
  109HOH     H1  532   0.422   2.589   1.220
  109HOH     H2  533   0.279   2.618   1.180
  110HOH      O  534   3.232   0.145   0.256
  110HOH     H1  535   3.277   0.221   0.293
  110HOH     H2  536   3.301   0.081   0.242
  111HOH      O  537   2.027   2.357   3.947
  111HOH     H1  538   1.992   2.433   3.994
  111HOH     H2  539   2.099   2.326   4.002
  112HOH      O  540   0.942   3.765   0.356
  112HOH     H1  541   0.897   3.844   0.387
  112HOH     H2  542   0.959   3.715   0.436
  113HOH      O  543   3.716   1.923   2.030
  113HOH     H1  544   3.696   1.969   2.112
  113HOH     H2  545   3.683   1.834   2.045
  114HOH      O  546   0.960   1.917   1.959
  114HOH     H1  547   0.893   1.876   2.014
  114HOH     H2  548   1.043   1.890   1.998
  115HOH      O  549   2.129   2.094   1.713
  115HOH     H1  550   2.065   2.163   1.731
  115HOH     H2  551   2.202   2.114   1.771
  116HOH      O  552   3.224   0.705   2.866
  116HOH     H1  553   3.143   0.672   2.826
  116HOH     H2  554   3.194   0.762   2.937
  117HOH      O  555   1.060   1.182   3.351
  117HOH     H1  556   0.995   1.212   3.415
  117HOH     H2  557   1.128   1.140   3.403
  118HOH      O  558   1.902   2.555   3.101
  118HOH     H1  559   1.965   2.492   3.067
  118HOH     H2  560   1.873   2.604   3.024
  119HOH      O  561   1.427   1.710   1.435
  119HOH     H1  562   1.398   1.619   1.437
  119HOH     H2  563   1.459   1.723   1.345
  120HOH      O  564   1.990   1.805   3.896
  120HOH     H1  565   1.919   1.791   3.959
  120HOH     H2  566   1.980   1.735   3.832
  121HOH      O  567   3.587   2.378   3.449
  121HOH     H1  568   3.636   2.390   3.367
  121HOH     H2  569   3.644   2.415   3.516
  122HOH      O  570   0.808   2.871   1.128
  122HOH     H1  571   0.831   2.964   1.134
  122HOH     H2  572   0.775   2.849   1.216
  123HOH      O  573   0.265   2.768   2.155
  123HOH     H1  574   0.302   2.855   2.169
  123HOH     H2  575   0.316   2.710   2.211
  124HOH      O  576   3.343   3.352   0.931
  124HOH     H1  577   3.307   3.433   0.968
  124HOH     H2  578   3.332   3.362   0.837
  125HOH      O  579   1.682   3.039   0.634
  125HOH     H1  580   1.718   3.091   0.705
  125HOH     H2  581   1.680   3.099   0.559
  126HOH      O  582   3.303   0.864   0.065
  126HOH     H1  583   3.323   0.880   0.158
  126HOH     H2  584   3.336   0.942   0.020
  127HOH      O  585   2.616   3.450   3.682
  127HOH     H1  586   2.570   3.534   3.681
  127HOH     H2  587   2.587   3.406   3.602
  128HOH      O  588   3.837   3.615   2.076
  128HOH     H1  589   3.852   3.641   1.985
  128HOH     H2  590   3.823   3.521   2.072
  129HOH      O  591   3.623   0.867   1.369
  129HOH     H1  592   3.616   0.953   1.328
  129HOH     H2  593   3.684   0.881   1.443
  130HOH      O  594   1.165   2.255   2.738
  130HOH     H1  595   1.245   2.267   2.687
  130HOH     H2  596   1.095   2.251   2.673
  131HOH      O  597   2.435   1.183   3.827
  131HOH     H1  598   2.499   1.217   3.888
  131HOH     H2  599   2.417   1.255   3.767
  132HOH      O  600   3.072   1.313   3.116
  132HOH     H1  601   3.114   1.390   3.078
  132HOH     H2  602   3.018   1.278   3.045
  133HOH      O  603   2.645   0.781   2.982
  133HOH     H1  604   2.688   0.758   2.900
  133HOH     H2  605   2.704   0.845   3.023
  134HOH      O  606   1.748   3.717   2.847
  134HOH     H1  607   1.685   3.716   2.775
  134HOH     H2  608   1.831   3.740   2.806
  135HOH      O  609   1.660   1.379   0.236
  135HOH     H1  610   1.741   1.335   0.263
  135HOH     H2  611   1.627   1.420   0.316
  136HOH      O  612   2.676   2.218   2.163
  136HOH     H1  613   2.614   2.175   2.222
  136HOH     H2  614   2.719   2.285   2.216
  137HOH      O  615   1.773   0.808   3.844
  137HOH     H1  616   1.701   0.851   3.798
  137HOH     H2  617   1.829   0.881   3.873
  138HOH      O  618   2.103   0.510   3.275
  138HOH     H1  619   2.083   0.588   3.327
  138HOH     H2  620   2.018   0.465   3.267
  139HOH      O  621   2.237   2.056   1.049
  139HOH     H1  622   2.273   2.013   1.127
  139HOH     H2  623   2.229   1.985   0.985
  140HOH      O  624   1.565   2.182   3.819
  140HOH     H1  625   1.492   2.127   3.847
  140HOH     H2  626   1.630   2.120   3.786
  141HOH      O  627   1.344   2.383   1.185
  141HOH     H1  628   1.311   2.293   1.179
  141HOH     H2  629   1.438   2.375   1.173
  142HOH      O  630   1.917   3.016   2.336
  142HOH     H1  631   1.914   3.074   2.259
  142HOH     H2  632   1.911   2.928   2.299
  143HOH      O  633   1.746   0.911   3.438
  143HOH     H1  634   1.753   1.001   3.406
  143HOH     H2  635   1.765   0.918   3.532
  144HOH      O  636   0.183   3.325   3.364
  144HOH     H1  637   0.104   3.371   3.333
  144HOH     H2  638   0.149   3.258   3.423
  145HOH      O  639   0.210   3.831   2.022
  145HOH     H1  640   0.230   3.821   1.929
  145HOH     H2  641   0.154   3.908   2.027
  146HOH      O  642   2.573   3.726   2.366
  146HOH     H1  643   2.617   3.643   2.382
  146HOH     H2  644   2.508   3.732   2.437
  147HOH      O  645   1.270   0.595   3.060
  147HOH     H1  646   1.271   0.544   3.140
  147HOH     H2  647   1.326   0.671   3.079
  148HOH      O  648   2.222   0.354   2.811
  148HOH     H1  649   2.264   0.364   2.896
  148HOH     H2  650   2.280   0.296   2.762
  149HOH      O  651   0.888   3.887   0.125
  149HOH     H1  652   0.799   3.860   0.148
  149HOH     H2  653   0.944   3.829   0.177
  150HOH      O  654   2.929   0.595   3.955
  150HOH     H1  655   2.970   0.622   4.037
  150HOH     H2  656   2.873   0.521   3.979
  151HOH      O  657   1.979   1.932   3.336
  151HOH     H1  658   1.910   1.956   3.274
  151HOH     H2  659   2.032   2.012   3.346
  152HOH      O  660   2.751   2.334   1.739
  152HOH     H1  661   2.725   2.281   1.664
  152HOH     H2  662   2.808   2.402   1.702
  153HOH      O  663   2.670   1.484   1.218
  153HOH     H1  664   2.743   1.544   1.207
  153HOH     H2  665   2.629   1.511   1.301
  154HOH      O  666   2.692   1.207   1.402
  154HOH     H1  667   2.680   1.302   1.397
  154HOH     H2  668   2.762   1.189   1.339
  155HOH      O  669   3.212   1.503   1.641
  155HOH     H1  670   3.308   1.508   1.633
  155HOH     H2  671   3.180   1.580   1.594
  156HOH      O  672   0.113   3.034   0.904
  156HOH     H1  673   0.115   3.021   0.999
  156HOH     H2  674   0.189   3.089   0.886
  157HOH      O  675   1.897   2.244   1.116
  157HOH     H1  676   1.977   2.262   1.066
  157HOH     H2  677   1.918   2.165   1.166
  158HOH      O  678   2.208   3.785   2.666
  158HOH     H1  679   2.272   3.716   2.646
  158HOH     H2  680   2.200   3.782   2.761
  159HOH      O  681   0.442   2.044   3.301
  159HOH     H1  682   0.473   1.998   3.379
  159HOH     H2  683   0.521   2.076   3.258
  160HOH      O  684   2.709   1.807   3.959
  160HOH     H1  685   2.713   1.896   3.993
  160HOH     H2  686   2.675   1.817   3.870
  161HOH      O  687   1.161   3.104   3.489
  161HOH     H1  688   1.094   3.068   3.547
  161HOH     H2  689   1.125   3.092   3.401
  162HOH      O  690   1.235   3.034   3.887
  162HOH     H1  691   1.198   2.980   3.817
  162HOH     H2  692   1.159   3.078   3.927
  163HOH      O  693   2.924   2.431   1.527
  163HOH     H1  694   3.002   2.483   1.544
  163HOH     H2  695   2.908   2.442   1.433
  164HOH      O  696   3.189   3.341   3.998
  164HOH     H1  697   3.230   3.393   4.067
  164HOH     H2  698   3.139   3.274   4.045
  165HOH      O  699   1.851   0.677   0.756
  165HOH     H1  700   1.883   0.694   0.845
  165HOH     H2  701   1.927   0.641   0.710
  166HOH      O  702   2.667   2.003   0.654
  166HOH     H1  703   2.708   1.918   0.671
  166HOH     H2  704   2.590   1.982   0.601
  167HOH      O  705   1.490   1.626   2.945
  167HOH     H1  706   1.429   1.672   3.003
  167HOH     H2  707   1.459   1.648   2.857
  168HOH      O  708   0.682   1.954   0.612
  168HOH     H1  709   0.699   1.980   0.703
  168HOH     H2  710   0.766   1.920   0.582
  169HOH      O  711   0.354   3.801   0.622
  169HOH     H1  712   0.286   3.749   0.666
  169HOH     H2  713   0.393   3.854   0.692
  170HOH      O  714   3.746   0.928   0.751
  170HOH     H1  715   3.755   0.941   0.657
  170HOH     H2  716   3.816   0.867   0.774
  171HOH      O  717   3.803   1.425   0.363
  171HOH     H1  718   3.790   1.482   0.439
  171HOH     H2  719   3.744   1.460   0.297
  172HOH      O  720   1.587   1.803   0.652
  172HOH     H1  721   1.593   1.894   0.680
  172HOH     H2  722   1.677   1.778   0.631
  173HOH      O  723   3.218   1.878   0.191
  173HOH     H1  724   3.163   1.954   0.171
  173HOH     H2  725   3.160   1.803   0.179
  174HOH      O  726   1.636   1.927   3.737
  174HOH     H1  727   1.730   1.932   3.723
  174HOH     H2  728   1.620   1.837   3.765
  175HOH      O  729   0.897   0.366   1.406
  175HOH     H1  730   0.817   0.417   1.403
  175HOH     H2  731   0.967   0.431   1.396
  176HOH      O  732   0.908   2.190   2.120
  176HOH     H1  733   0.971   2.262   2.132
  176HOH     H2  734   0.956   2.125   2.069
  177HOH      O  735   1.715   2.163   2.996
  177HOH     H1  736   1.796   2.120   2.969
  177HOH     H2  737   1.718   2.161   3.091
  178HOH      O  738   1.093   2.865   3.727
  178HOH     H1  739   1.147   2.789   3.750
  178HOH     H2  740   1.005   2.830   3.715
  179HOH      O  741   0.940   1.414   1.820
  179HOH     H1  742   0.938   1.373   1.906
  179HOH     H2  743   0.848   1.421   1.794
  180HOH      O  744   1.382   0.464   0.286
  180HOH     H1  745   1.326   0.387   0.298
  180HOH     H2  746   1.321   0.534   0.264
  181HOH      O  747   1.129   2.155   3.329
  181HOH     H1  748   1.071   2.087   3.295
  181HOH     H2  749   1.212   2.141   3.284
  182HOH      O  750   2.194   2.117   3.922
  182HOH     H1  751   2.226   2.028   3.907
  182HOH     H2  752   2.145   2.111   4.004
  183HOH      O  753   2.910   3.491   1.396
  183HOH     H1  754   2.974   3.434   1.354
  183HOH     H2  755   2.871   3.436   1.464
  184HOH      O  756   1.970   1.524   0.448
  184HOH     H1  757   2.025   1.555   0.376
  184HOH     H2  758   1.944   1.436   0.421
  185HOH      O  759   3.198   0.401   1.612
  185HOH     H1  760   3.186   0.465   1.542
  185HOH     H2  761   3.196   0.453   1.692
  186HOH      O  762   3.614   0.339   3.358
  186HOH     H1  763   3.644   0.390   3.434
  186HOH     H2  764   3.670   0.261   3.358
  187HOH      O  765   2.309   2.968   2.911
  187HOH     H1  766   2.227   3.019   2.911
  187HOH     H2  767   2.281   2.877   2.918
  188HOH      O  768   0.216   0.373   1.561
  188HOH     H1  769   0.188   0.284   1.582
  188HOH     H2  770   0.233   0.372   1.467
  189HOH      O  771   3.128   3.518   3.460
  189HOH     H1  772   3.069   3.448   3.432
  189HOH     H2  773   3.078   3.566   3.526
  190HOH      O  774   3.068   1.355   3.969
  190HOH     H1  775   3.084   1.280   4.026
  190HOH     H2  776   3.068   1.431   4.028
  191HOH      O  777   2.505   1.907   2.083
  191HOH     H1  778   2.523   1.967   2.155
  191HOH     H2  779   2.410   1.904   2.077
  192HOH      O  780   2.762   2.878   2.037
  192HOH     H1  781   2.834   2.867   2.100
  192HOH     H2  782   2.782   2.815   1.967
  193HOH      O  783   2.998   3.731   1.055
  193HOH     H1  784   2.955   3.778   1.126
  193HOH     H2  785   3.052   3.797   1.012
  194HOH      O  786   0.687   3.801   3.239
  194HOH     H1  787   0.603   3.754   3.242
  194HOH     H2  788   0.722   3.780   3.153
  195HOH      O  789   1.819   3.758   0.804
  195HOH     H1  790   1.866   3.802   0.734
  195HOH     H2  791   1.847   3.803   0.884
  196HOH      O  792   0.191   3.733   2.772
  196HOH     H1  793   0.172   3.663   2.834
  196HOH     H2  794   0.113   3.739   2.717
  197HOH      O  795   3.896   3.117   1.775
  197HOH     H1  796   3.874   3.040   1.723
  197HOH     H2  797   3.848   3.105   1.857
  198HOH      O  798   3.623   0.118   1.991
  198HOH     H1  799   3.618   0.096   2.084
  198HOH     H2  800   3.581   0.044   1.947
  199HOH      O  801   2.509   1.529   1.466
  199HOH     H1  802   2.588   1.523   1.518
  199HOH     H2  803   2.440   1.494   1.523
  200HOH      O  804   3.438   3.157   0.438
  200HOH     H1  805   3.523   3.191   0.464
  200HOH     H2  806   3.456   3.068   0.407
  201HOH      O  807   1.352   0.382   2.477
  201HOH     H1  808   1.308   0.421   2.553
  201HOH     H2  809   1.400   0.455   2.438
  202HOH      O  810   1.076   0.214   2.930
  202HOH     H1  811   1.039   0.126   2.921
  202HOH     H2  812   1.036   0.264   2.858
  203HOH      O  813   2.073   1.659   0.206
  203HOH     H1  814   1.986   1.691   0.184
  203HOH     H2  815   2.111   1.633   0.122
  204HOH      O  816   3.748   0.893   3.032
  204HOH     H1  817   3.733   0.951   3.107
  204HOH     H2  818   3.772   0.952   2.961
  205HOH      O  819   1.294   3.000   2.863
  205HOH     H1  820   1.246   3.061   2.807
  205HOH     H2  821   1.231   2.930   2.882
  206HOH      O  822   0.716   3.873   2.376
  206HOH     H1  823   0.678   3.927   2.306
  206HOH     H2  824   0.647   3.866   2.441
  207HOH      O  825   0.549   3.689   1.354
  207HOH     H1  826   0.567   3.783   1.359
  207HOH     H2  827   0.564   3.666   1.263
  208HOH      O  828   0.570   1.815   3.427
  208HOH     H1  829   0.623   1.813   3.507
  208HOH     H2  830   0.528   1.730   3.424
  209HOH      O  831   3.166   2.018   1.761
  209HOH     H1  832   3.172   1.926   1.789
  209HOH     H2  833   3.253   2.038   1.726
  210HOH      O  834   2.209   0.078   0.199
  210HOH     H1  835   2.147   0.023   0.247
  210HOH     H2  836   2.183   0.069   0.107
  211HOH      O  837   1.202   1.831   2.041
  211HOH     H1  838   1.196   1.802   1.951
  211HOH     H2  839   1.166   1.759   2.093
  212HOH      O  840   3.186   1.593   2.676
  212HOH     H1  841   3.100   1.555   2.696
  212HOH     H2  842   3.168   1.664   2.615
  213HOH      O  843   0.956   0.985   3.160
  213HOH     H1  844   0.991   1.048   3.223
  213HOH     H2  845   1.025   0.977   3.093
  214HOH      O  846   0.687   2.911   3.584
  214HOH     H1  847   0.670   2.881   3.673
  214HOH     H2  848   0.755   2.978   3.594
  215HOH      O  849   0.910   1.263   2.289
  215HOH     H1  850   0.816   1.278   2.291
  215HOH     H2  851   0.932   1.233   2.377
  216HOH      O  852   0.805   3.317   1.656
  216HOH     H1  853   0.860   3.364   1.720
  216HOH     H2  854   0.832   3.226   1.665
  217HOH      O  855   1.730   0.094   1.028
  217HOH     H1  856   1.637   0.092   1.050
  217HOH     H2  857   1.732   0.094   0.933
  218HOH      O  858   2.412   0.565   1.191
  218HOH     H1  859   2.473   0.580   1.263
  218HOH     H2  860   2.414   0.470   1.178
  219HOH      O  861   1.537   0.341   2.793
  219HOH     H1  862   1.517   0.257   2.752
  219HOH     H2  863   1.456   0.366   2.838
  220HOH      O  864   2.590   2.058   3.891
  220HOH     H1  865   2.530   2.129   3.868
  220HOH     H2  866   2.587   1.999   3.815
  221HOH      O  867   1.509   3.238   2.037
  221HOH     H1  868   1.458   3.162   2.063
  221HOH     H2  869   1.566   3.256   2.112
  222HOH      O  870   1.173   1.716   0.245
  222HOH     H1  871   1.131   1.635   0.215
  222HOH     H2  872   1.110   1.785   0.223
  223HOH      O  873   0.152   0.948   0.769
  223HOH     H1  874   0.215   1.017   0.789
  223HOH     H2  875   0.189   0.869   0.809
  224HOH      O  876   2.148   3.404   0.334
  224HOH     H1  877   2.135   3.497   0.352
  224HOH     H2  878   2.242   3.397   0.315
  225HOH      O  879   3.410   2.345   0.080
  225HOH     H1  880   3.386   2.269   0.132
  225HOH     H2  881   3.407   2.419   0.141
  226HOH      O  882   0.722   2.016   3.886
  226HOH     H1  883   0.676   1.947   3.838
  226HOH     H2  884   0.767   2.066   3.818
  227HOH      O  885   1.880   3.681   1.903
  227HOH     H1  886   1.973   3.664   1.915
  227HOH     H2  887   1.842   3.595   1.883
  228HOH      O  888   0.706   2.129   2.711
  228HOH     H1  889   0.681   2.046   2.752
  228HOH     H2  890   0.787   2.109   2.665
  229HOH      O  891   1.560   1.757   0.299
  229HOH     H1  892   1.511   1.751   0.217
  229HOH     H2  893   1.544   1.846   0.330
  230HOH      O  894   0.600   1.601   2.870
  230HOH     H1  895   0.684   1.569   2.836
  230HOH     H2  896   0.611   1.600   2.965
  231HOH      O  897   0.626   2.803   2.208
  231HOH     H1  898   0.712   2.781   2.246
  231HOH     H2  899   0.567   2.737   2.243
  232HOH      O  900   2.272   3.316   1.001
  232HOH     H1  901   2.253   3.248   0.937
  232HOH     H2  902   2.366   3.310   1.015
  233HOH      O  903   3.273   2.079   0.655
  233HOH     H1  904   3.238   2.128   0.580
  233HOH     H2  905   3.213   2.101   0.727
  234HOH      O  906   2.605   0.775   0.354
  234HOH     H1  907   2.589   0.866   0.328
  234HOH     H2  908   2.663   0.781   0.429
  235HOH      O  909   2.395   1.050   0.594
  235HOH     H1  910   2.349   0.985   0.647
  235HOH     H2  911   2.328   1.114   0.570
  236HOH      O  912   1.513   1.569   2.015
  236HOH     H1  913   1.546   1.646   2.062
  236HOH     H2  914   1.466   1.519   2.081
  237HOH      O  915   3.009   3.245   0.580
  237HOH     H1  916   2.995   3.154   0.553
  237HOH     H2  917   2.974   3.249   0.669
  238HOH      O  918   2.014   1.365   2.658
  238HOH     H1  919   2.087   1.426   2.644
  238HOH     H2  920   2.042   1.285   2.615
  239HOH      O  921   3.258   2.552   2.072
  239HOH     H1  922   3.326   2.601   2.119
  239HOH     H2  923   3.295   2.537   1.985
  240HOH      O  924   2.079   0.395   2.087
  240HOH     H1  925   2.105   0.438   2.005
  240HOH     H2  926   2.125   0.311   2.085
  241HOH      O  927   0.157   2.016   2.596
  241HOH     H1  928   0.113   1.991   2.514
  241HOH     H2  929   0.229   2.073   2.568
  242HOH      O  930   0.330   1.748   3.670
  242HOH     H1  931   0.295   1.721   3.755
  242HOH     H2  932   0.299   1.838   3.660
  243HOH      O  933   2.133   1.361   0.956
  243HOH     H1  934   2.216   1.334   0.996
  243HOH     H2  935   2.090   1.414   1.023
  244HOH      O  936   2.862   2.395   0.246
  244HOH     H1  937   2.790   2.385   0.184
  244HOH     H2  938   2.824   2.446   0.319
  245HOH      O  939   1.239   1.300   3.836
  245HOH     H1  940   1.150   1.336   3.831
  245HOH     H2  941   1.227   1.206   3.823
  246HOH      O  942   0.287   1.532   2.460
  246HOH     H1  943   0.243   1.581   2.529
  246HOH     H2  944   0.321   1.454   2.504
  247HOH      O  945   0.573   3.313   1.531
  247HOH     H1  946   0.531   3.389   1.571
  247HOH     H2  947   0.656   3.304   1.578
  248HOH      O  948   3.502   0.476   1.366
  248HOH     H1  949   3.576   0.512   1.317
  248HOH     H2  950   3.539   0.447   1.449
  249HOH      O  951   0.174   1.363   2.776
  249HOH     H1  952   0.093   1.409   2.798
  249HOH     H2  953   0.243   1.429   2.791
  250HOH      O  954   0.355   1.606   0.235
  250HOH     H1  955   0.360   1.511   0.229
  250HOH     H2  956   0.263   1.625   0.254
  251HOH      O  957   1.196   3.240   0.720
  251HOH     H1  958   1.144   3.222   0.798
  251HOH     H2  959   1.267   3.296   0.750
  252HOH      O  960   3.017   1.815   4.017
  252HOH     H1  961   2.941   1.816   3.959
  252HOH     H2  962   3.048   1.905   4.019
  253HOH      O  963   2.984   1.909   2.907
  253HOH     H1  964   3.048   1.962   2.955
  253HOH     H2  965   2.928   1.973   2.863
  254HOH      O  966   0.559   1.451   0.473
  254HOH     H1  967   0.525   1.531   0.511
  254HOH     H2  968   0.530   1.382   0.533
  255HOH      O  969   1.538   1.743   2.203
  255HOH     H1  970   1.503   1.781   2.284
  255HOH     H2  971   1.544   1.817   2.142
  256HOH      O  972   1.636   0.712   1.403
  256HOH     H1  973   1.684   0.651   1.347
  256HOH     H2  974   1.687   0.717   1.483
  257HOH      O  975   0.900   3.085   2.248
  257HOH     H1  976   0.876   3.048   2.333
  257HOH     H2  977   0.953   3.162   2.270
  258HOH      O  978   1.511   1.403   3.474
  258HOH     H1  979   1.433   1.422   3.526
  258HOH     H2  980   1.478   1.355   3.398
  259HOH      O  981   3.784   2.110   1.116
  259HOH     H1  982   3.870   2.120   1.075
  259HOH     H2  983   3.729   2.175   1.073
  260HOH      O  984   2.063   2.374   0.716
  260HOH     H1  985   2.076   2.343   0.806
  260HOH     H2  986   1.969   2.390   0.710
  261HOH      O  987   1.086   2.508   3.328
  261HOH     H1  988   1.047   2.505   3.416
  261HOH     H2  989   1.033   2.448   3.276
  262HOH      O  990   1.543   2.605   1.058
  262HOH     H1  991   1.570   2.517   1.085
  262HOH     H2  992   1.503   2.593   0.973
  263HOH      O  993   2.471   0.309   1.172
  263HOH     H1  994   2.393   0.254   1.167
  263HOH     H2  995   2.528   0.264   1.234
  264HOH      O  996   3.589   2.100   3.752
  264HOH     H1  997   3.639   2.122   3.830
  264HOH     H2  998   3.618   2.011   3.729
  265HOH      O  999   1.387   1.762   3.527
  265HOH     H1 1000   1.390   1.679   3.575
  265HOH     H2 1001   1.323   1.815   3.575
  266HOH      O 1002   2.242   0.390   3.741
  266HOH     H1 1003   2.233   0.323   3.673
  266HOH     H2 1004   2.304   0.453   3.704
  267HOH      O 1005   0.857   2.086   2.383
  267HOH     H1 1006   0.914   2.013   2.404
  267HOH     H2 1007   0.873   2.104   2.290
  268HOH      O 1008   1.813   3.522   0.415
  268HOH     H1 1009   1.838   3.605   0.454
  268HOH     H2 1010   1.865   3.456   0.460
  269HOH      O 1011   2.305   0.472   0.387
  269HOH     H1 1012   2.329   0.554   0.429
  269HOH     H2 1013   2.387   0.440   0.348
  270HOH      O 1014   1.090   1.927   1.367
  270HOH     H1 1015   1.009   1.965   1.333
  270HOH     H2 1016   1.086   1.941   1.462
  271HOH      O 1017   2.363   0.711   0.521
  271HOH     H1 1018   2.427   0.746   0.459
  271HOH     H2 1019   2.397   0.736   0.607
  272HOH      O 1020   3.633   1.328   2.138
  272HOH     H1 1021   3.543   1.351   2.158
  272HOH     H2 1022   3.635   1.233   2.138
  273HOH      O 1023   3.670   0.311   0.657
  273HOH     H1 1024   3.747   0.267   0.693
  273HOH     H2 1025   3.620   0.338   0.734
  274HOH      O 1026   1.778   0.691   2.608
  274HOH     H1 1027   1.868   0.722   2.606
  274HOH     H2 1028   1.766   0.658   2.698
  275HOH      O 1029   0.741   2.303   3.537
  275HOH     H1 1030   0.810   2.370   3.534
  275HOH     H2 1031   0.668   2.342   3.489
  276HOH      O 1032   1.036   2.048   1.063
  276HOH     H1 1033   0.978   2.035   1.138
  276HOH     H2 1034   0.995   2.117   1.012
  277HOH      O 1035   0.917   2.110   1.760
  277HOH     H1 1036   0.919   2.064   1.844
  277HOH     H2 1037   0.951   2.046   1.698
  278HOH      O 1038   0.357   1.403   1.446
  278HOH     H1 1039   0.388   1.428   1.533
  278HOH     H2 1040   0.405   1.322   1.426
  279HOH      O 1041   3.906   1.699   1.877
  279HOH     H1 1042   3.818   1.687   1.912
  279HOH     H2 1043   3.948   1.760   1.938
  280HOH      O 1044   2.259   3.184   2.567
  280HOH     H1 1045   2.288   3.184   2.658
  280HOH     H2 1046   2.244   3.276   2.547
  281HOH      O 1047   1.693   3.406   1.231
  281HOH     H1 1048   1.699   3.496   1.265
  281HOH     H2 1049   1.671   3.353   1.307
  282HOH      O 1050   3.553   2.989   3.678
  282HOH     H1 1051   3.574   3.025   3.764
  282HOH     H2 1052   3.465   3.023   3.659
  283HOH      O 1053   2.115   3.043   0.567
  283HOH     H1 1054   2.072   2.959   0.585
  283HOH     H2 1055   2.158   3.066   0.650
  284HOH      O 1056   0.703   2.427   0.763
  284HOH     H1 1057   0.732   2.336   0.759
  284HOH     H2 1058   0.767   2.471   0.819
  285HOH      O 1059   2.283   2.694   2.966
  285HOH     H1 1060   2.263   2.674   2.874
  285HOH     H2 1061   2.204   2.668   3.013
  286HOH      O 1062   1.341   3.868   2.795
  286HOH     H1 1063   1.340   3.958   2.763
  286HOH     H2 1064   1.433   3.844   2.796
  287HOH      O 1065   1.723   0.241   2.037
  287HOH     H1 1066   1.747   0.208   2.123
  287HOH     H2 1067   1.763   0.180   1.975
  288HOH      O 1068   2.157   1.979   3.599
  288HOH     H1 1069   2.130   2.019   3.516
  288HOH     H2 1070   2.253   1.985   3.598
  289HOH      O 1071   2.836   1.240   3.516
  289HOH     H1 1072   2.869   1.244   3.606
  289HOH     H2 1073   2.914   1.224   3.463
  290HOH      O 1074   2.791   2.572   3.947
  290HOH     H1 1075   2.871   2.539   3.905
  290HOH     H2 1076   2.748   2.493   3.982
  291HOH      O 1077   3.081   1.711   1.974
  291HOH     H1 1078   3.031   1.792   1.968
  291HOH     H2 1079   3.170   1.735   1.950
  292HOH      O 1080   3.567   2.232   3.227
  292HOH     H1 1081   3.514   2.176   3.170
  292HOH     H2 1082   3.526   2.226   3.313
  293HOH      O 1083   3.942   2.606   0.681
  293HOH     H1 1084   3.895   2.592   0.763
  293HOH     H2 1085   4.034   2.596   0.704
  294HOH      O 1086   3.580   1.770   3.818
  294HOH     H1 1087   3.503   1.796   3.869
  294HOH     H2 1088   3.653   1.812   3.863
  295HOH      O 1089   2.852   2.621   0.756
  295HOH     H1 1090   2.813   2.694   0.803
  295HOH     H2 1091   2.947   2.632   0.769
  296HOH      O 1092   0.406   0.305   0.913
  296HOH     H1 1093   0.458   0.269   0.984
  296HOH     H2 1094   0.325   0.254   0.913
  297HOH      O 1095   3.520   4.005   0.527
  297HOH     H1 1096   3.503   3.924   0.479
  297HOH     H2 1097   3.533   4.071   0.458
  298HOH      O 1098   0.303   2.027  -0.009
  298HOH     H1 1099   0.361   1.980   0.051
  298HOH     H2 1100   0.229   1.969  -0.022
  299HOH      O 1101   0.696   2.765   3.834
  299HOH     H1 1102   0.707   2.822   3.910
  299HOH     H2 1103   0.612   2.721   3.849
  300HOH      O 1104   1.574   1.072   1.877
  300HOH     H1 1105   1.507   1.046   1.815
  300HOH     H2 1106   1.637   1.122   1.825
  301HOH      O 1107   3.949   1.221   3.080
  301HOH     H1 1108   3.938   1.306   3.038
  301HOH     H2 1109   3.996   1.240   3.161
  302HOH      O 1110   1.194   0.799   2.376
  302HOH     H1 1111   1.166   0.888   2.398
  302HOH     H2 1112   1.228   0.764   2.459
  303HOH      O 1113   3.986   2.473   0.270
  303HOH     H1 1114   3.892   2.454   0.260
  303HOH     H2 1115   4.024   2.448   0.186
  304HOH      O 1116   3.303   3.706   2.584
  304HOH     H1 1117   3.299   3.718   2.679
  304HOH     H2 1118   3.268   3.618   2.569
  305HOH      O 1119   3.258   0.595   3.633
  305HOH     H1 1120   3.334   0.538   3.623
  305HOH     H2 1121   3.231   0.617   3.543
  306HOH      O 1122   1.942   3.555   3.542
  306HOH     H1 1123   1.873   3.489   3.532
  306HOH     H2 1124   1.984   3.534   3.626
  307HOH      O 1125   0.460   1.157   1.441
  307HOH     H1 1126   0.409   1.079   1.464
  307HOH     H2 1127   0.475   1.148   1.346
  308HOH      O 1128   1.795   0.030   2.215
  308HOH     H1 1129   1.801   0.056   2.307
  308HOH     H2 1130   1.711  -0.016   2.208
  309HOH      O 1131   2.392   3.763   0.275
  309HOH     H1 1132   2.339   3.701   0.325
  309HOH     H2 1133   2.358   3.758   0.186
  310HOH      O 1134   0.559   3.553   3.891
  310HOH     H1 1135   0.595   3.479   3.843
  310HOH     H2 1136   0.584   3.630   3.839
  311HOH      O 1137   1.807   1.665   2.438
  311HOH     H1 1138   1.799   1.676   2.533
  311HOH     H2 1139   1.752   1.590   2.417
  312HOH      O 1140   3.358   1.070   1.280
  312HOH     H1 1141   3.441   1.073   1.327
  312HOH     H2 1142   3.320   1.157   1.294
  313HOH      O 1143   2.706   2.740   1.620
  313HOH     H1 1144   2.773   2.775   1.562
  313HOH     H2 1145   2.627   2.790   1.599
  314HOH      O 1146   1.386   2.809   1.212
  314HOH     H1 1147   1.461   2.751   1.196
  314HOH     H2 1148   1.355   2.832   1.125
  315HOH      O 1149   1.260   3.829   1.116
  315HOH     H1 1150   1.309   3.825   1.198
  315HOH     H2 1151   1.324   3.809   1.048
  316HOH      O 1152   2.659   3.133   2.045
  316HOH     H1 1153   2.699   3.177   2.120
  316HOH     H2 1154   2.697   3.045   2.046
  317HOH      O 1155   2.116   2.144   3.359
  317HOH     H1 1156   2.069   2.222   3.388
  317HOH     H2 1157   2.208   2.171   3.358
  318HOH      O 1158   2.869   3.919   1.232
  318HOH     H1 1159   2.798   3.975   1.198
  318HOH     H2 1160   2.942   3.979   1.247
  319HOH      O 1161   1.553   3.910   3.448
  319HOH     H1 1162   1.531   3.856   3.524
  319HOH     H2 1163   1.505   3.870   3.375
  320HOH      O 1164   1.633   3.507   2.056
  320HOH     H1 1165   1.663   3.451   2.127
  320HOH     H2 1166   1.698   3.495   1.987
  321HOH      O 1167   1.831   3.442   0.806
  321HOH     H1 1168   1.911   3.401   0.839
  321HOH     H2 1169   1.846   3.536   0.818
  322HOH      O 1170   0.061   2.304   0.561
  322HOH     H1 1171   0.075   2.399   0.567
  322HOH     H2 1172   0.077   2.283   0.469
  323HOH      O 1173   3.694   1.098   0.503
  323HOH     H1 1174   3.694   1.044   0.424
  323HOH     H2 1175   3.603   1.127   0.511
  324HOH      O 1176   2.177   0.047   3.059
  324HOH     H1 1177   2.240  -0.021   3.080
  324HOH     H2 1178   2.229   0.125   3.044
  325HOH      O 1179   1.327   2.826   2.494
  325HOH     H1 1180   1.392   2.829   2.563
  325HOH     H2 1181   1.326   2.915   2.458
  326HOH      O 1182   1.407   3.291   3.002
  326HOH     H1 1183   1.395   3.198   2.986
  326HOH     H2 1184   1.499   3.299   3.029
  327HOH      O 1185   0.418   1.330   0.938
  327HOH     H1 1186   0.450   1.303   0.852
  327HOH     H2 1187   0.491   1.379   0.977
  328HOH      O 1188   2.281   0.835   1.716
  328HOH     H1 1189   2.198   0.787   1.724
  328HOH     H2 1190   2.323   0.799   1.638
  329HOH      O 1191   2.165   2.436   2.912
  329HOH     H1 1192   2.260   2.440   2.920
  329HOH     H2 1193   2.139   2.365   2.970
  330HOH      O 1194   1.464   2.237   2.028
  330HOH     H1 1195   1.538   2.269   1.975
  330HOH     H2 1196   1.468   2.288   2.108
  331HOH      O 1197   3.320   1.627   2.969
  331HOH     H1 1198   3.331   1.717   2.939
  331HOH     H2 1199   3.284   1.580   2.894
  332HOH      O 1200   0.259   2.592   1.920
  332HOH     H1 1201   0.209   2.622   1.996
  332HOH     H2 1202   0.213   2.514   1.890
  333HOH      O 1203   0.159   2.994   0.498
  333HOH     H1 1204   0.071   3.029   0.512
  333HOH     H2 1205   0.154   2.950   0.413
  334HOH      O 1206   3.832   0.697   2.857
  334HOH     H1 1207   3.826   0.768   2.921
  334HOH     H2 1208   3.754   0.707   2.803
  335HOH      O 1209   3.304   3.702   1.597
  335HOH     H1 1210   3.215   3.703   1.562
  335HOH     H2 1211   3.297   3.657   1.680
  336HOH      O 1212   0.437   2.755   0.563
  336HOH     H1 1213   0.393   2.764   0.478
  336HOH     H2 1214   0.383   2.806   0.624
  337HOH      O 1215   1.835   2.664   2.864
  337HOH     H1 1216   1.871   2.679   2.777
  337HOH     H2 1217   1.790   2.746   2.886
  338HOH      O 1218   2.082   1.298   3.050
  338HOH     H1 1219   2.104   1.288   3.143
  338HOH     H2 1220   2.050   1.212   3.023
  339HOH      O 1221   2.660   2.624   2.896
  339HOH     H1 1222   2.737   2.678   2.914
  339HOH     H2 1223   2.618   2.666   2.821
  340HOH      O 1224   0.886   0.422   2.229
  340HOH     H1 1225   0.850   0.435   2.317
  340HOH     H2 1226   0.937   0.502   2.213
  341HOH      O 1227   2.831   0.302   2.901
  341HOH     H1 1228   2.887   0.278   2.975
  341HOH     H2 1229   2.886   0.284   2.824
  342HOH      O 1230   1.416   0.979   3.994
  342HOH     H1 1231   1.468   1.043   4.043
  342HOH     H2 1232   1.398   0.910   4.058
  343HOH      O 1233   1.331   4.018   2.365
  343HOH     H1 1234   1.268   3.972   2.419
  343HOH     H2 1235   1.287   4.100   2.341
  344HOH      O 1236   1.894   2.771   2.219
  344HOH     H1 1237   1.855   2.759   2.132
  344HOH     H2 1238   1.987   2.753   2.206
  345HOH      O 1239   2.559   3.964   1.054
  345HOH     H1 1240   2.492   3.995   1.116
  345HOH     H2 1241   2.509   3.917   0.987
  346HOH      O 1242   3.476   3.237   1.580
  346HOH     H1 1243   3.421   3.224   1.658
  346HOH     H2 1244   3.495   3.331   1.579
  347HOH      O 1245   1.605   3.399   0.983
  347HOH     H1 1246   1.631   3.392   1.075
  347HOH     H2 1247   1.683   3.429   0.938
  348HOH      O 1248   1.444   1.356   1.717
  348HOH     H1 1249   1.367   1.300   1.726
  348HOH     H2 1250   1.504   1.327   1.786
  349HOH      O 1251   1.810   0.074   1.833
  349HOH     H1 1252   1.882   0.072   1.770
  349HOH     H2 1253   1.745   0.131   1.793
  350HOH      O 1254   2.761   3.735   0.681
  350HOH     H1 1255   2.781   3.665   0.742
  350HOH     H2 1256   2.722   3.691   0.605
  351HOH      O 1257   3.679   3.912   3.276
  351HOH     H1 1258   3.713   3.836   3.325
  351HOH     H2 1259   3.755   3.944   3.228
  352HOH      O 1260   1.586   1.769   3.352
  352HOH     H1 1261   1.502   1.765   3.398
  352HOH     H2 1262   1.595   1.683   3.311
  353HOH      O 1263   0.707   1.827   2.035
  353HOH     H1 1264   0.651   1.852   2.109
  353HOH     H2 1265   0.676   1.882   1.962
  354HOH      O 1266   0.346   3.008   2.196
  354HOH     H1 1267   0.404   3.032   2.268
  354HOH     H2 1268   0.323   3.091   2.155
  355HOH      O 1269   3.066   3.360   3.759
  355HOH     H1 1270   2.970   3.359   3.762
  355HOH     H2 1271   3.094   3.336   3.847
  356HOH      O 1272   3.581   0.101   0.997
  356HOH     H1 1273   3.611   0.039   0.930
  356HOH     H2 1274   3.623   0.183   0.975
  357HOH      O 1275   2.471   2.366   3.313
  357HOH     H1 1276   2.529   2.403   3.379
  357HOH     H2 1277   2.419   2.301   3.360
  358HOH      O 1278   2.753   3.992   3.203
  358HOH     H1 1279   2.702   3.912   3.189
  358HOH     H2 1280   2.705   4.059   3.155
  359HOH      O 1281   4.015   0.738   3.262
  359HOH     H1 1282   3.987   0.648   3.280
  359HOH     H2 1283   3.989   0.786   3.341
  360HOH      O 1284   3.082   1.502   3.586
  360HOH     H1 1285   3.047   1.420   3.550
  360HOH     H2 1286   3.134   1.474   3.661
  361HOH      O 1287   2.644   0.461   0.721
  361HOH     H1 1288   2.650   0.389   0.658
  361HOH     H2 1289   2.581   0.430   0.786
  362HOH      O 1290   4.007   3.885   1.650
  362HOH     H1 1291   4.024   3.802   1.606
  362HOH     H2 1292   3.928   3.919   1.607
  363HOH      O 1293   1.830   1.767   0.126
  363HOH     H1 1294   1.777   1.689   0.114
  363HOH     H2 1295   1.768   1.835   0.153
  364HOH      O 1296   3.963   0.635   0.085
  364HOH     H1 1297   3.941   0.585   0.164
  364HOH     H2 1298   3.921   0.587   0.014
  365HOH      O 1299   1.143   4.014   0.018
  365HOH     H1 1300   1.056   3.976   0.027
  365HOH     H2 1301   1.178   4.016   0.107
  366HOH      O 1302   0.624   0.536   0.596
  366HOH     H1 1303   0.589   0.450   0.620
  366HOH     H2 1304   0.692   0.554   0.661
  367HOH      O 1305   1.170   2.060   2.337
  367HOH     H1 1306   1.253   2.088   2.376
  367HOH     H2 1307   1.174   2.093   2.247
  368HOH      O 1308   1.331   0.192   1.723
  368HOH     H1 1309   1.273   0.268   1.732
  368HOH     H2 1310   1.417   0.230   1.706
  369HOH      O 1311   0.110   2.874   2.474
  369HOH     H1 1312   0.069   2.959   2.464
  369HOH     H2 1313   0.156   2.859   2.391
  370HOH      O 1314   1.187   0.295   1.047
  370HOH     H1 1315   1.153   0.307   0.958
  370HOH     H2 1316   1.281   0.310   1.038
  371HOH      O 1317   0.366   0.169   3.588
  371HOH     H1 1318   0.307   0.187   3.661
  371HOH     H2 1319   0.336   0.086   3.552
  372HOH      O 1320   1.401   3.807   0.779
  372HOH     H1 1321   1.320   3.763   0.752
  372HOH     H2 1322   1.429   3.759   0.857
  373HOH      O 1323   0.607   2.788   0.956
  373HOH     H1 1324   0.536   2.813   1.015
  373HOH     H2 1325   0.687   2.805   1.007
  374HOH      O 1326   3.516   3.339   3.236
  374HOH     H1 1327   3.424   3.314   3.248
  374HOH     H2 1328   3.512   3.428   3.201
  375HOH      O 1329   2.654   0.113   3.670
  375HOH     H1 1330   2.629   0.037   3.618
  375HOH     H2 1331   2.571   0.148   3.702
  376HOH      O 1332   1.332   2.284   0.637
  376HOH     H1 1333   1.248   2.327   0.624
  376HOH     H2 1334   1.369   2.277   0.549
  377HOH      O 1335   1.098   3.052   0.266
  377HOH     H1 1336   1.165   3.029   0.201
  377HOH     H2 1337   1.149   3.077   0.343
  378HOH      O 1338   0.987   3.995   0.744
  378HOH     H1 1339   1.013   4.073   0.791
  378HOH     H2 1340   0.965   3.932   0.813
  379HOH      O 1341   0.964   1.875   0.521
  379HOH     H1 1342   1.049   1.842   0.551
  379HOH     H2 1343   0.980   1.966   0.499
  380HOH      O 1344   3.171   2.627   0.066
  380HOH     H1 1345   3.211   2.710   0.038
  380HOH     H2 1346   3.140   2.587  -0.016
  381HOH      O 1347   3.187   1.273   1.022
  381HOH     H1 1348   3.104   1.298   0.980
  381HOH     H2 1349   3.211   1.350   1.074
  382HOH      O 1350   1.605   0.850   2.221
  382HOH     H1 1351   1.623   0.825   2.130
  382HOH     H2 1352   1.683   0.899   2.248
  383HOH      O 1353   1.388   1.434   1.448
  383HOH     H1 1354   1.294   1.453   1.449
  383HOH     H2 1355   1.410   1.417   1.540
  384HOH      O 1356   2.842   2.808   3.000
  384HOH     H1 1357   2.813   2.895   2.970
  384HOH     H2 1358   2.862   2.821   3.093
  385HOH      O 1359   3.408   2.835   3.985
  385HOH     H1 1360   3.386   2.802   3.898
  385HOH     H2 1361   3.404   2.930   3.977
  386HOH      O 1362   2.300   2.077   1.942
  386HOH     H1 1363   2.298   2.078   2.037
  386HOH     H2 1364   2.392   2.063   1.920
  387HOH      O 1365   0.358   2.739   0.312
  387HOH     H1 1366   0.269   2.752   0.276
  387HOH     H2 1367   0.408   2.702   0.239
  388HOH      O 1368   2.069   3.789   3.542
  388HOH     H1 1369   2.033   3.701   3.553
  388HOH     H2 1370   1.999   3.838   3.500
  389HOH      O 1371   3.930   2.731   0.401
  389HOH     H1 1372   3.957   2.651   0.356
  389HOH     H2 1373   3.935   2.711   0.494
  390HOH      O 1374   1.110   0.155   2.568
  390HOH     H1 1375   1.140   0.223   2.508
  390HOH     H2 1376   1.054   0.099   2.515
  391HOH      O 1377   3.003   2.308   4.043
  391HOH     H1 1378   2.910   2.316   4.064
  391HOH     H2 1379   3.007   2.318   3.948
  392HOH      O 1380   1.981   3.928   2.646
  392HOH     H1 1381   1.981   3.938   2.741
  392HOH     H2 1382   2.051   3.865   2.629
  393HOH      O 1383   3.703   3.184   3.876
  393HOH     H1 1384   3.639   3.255   3.871
  393HOH     H2 1385   3.750   3.188   3.793
  394HOH      O 1386   0.940   1.307   2.798
  394HOH     H1 1387   0.901   1.385   2.837
  394HOH     H2 1388   1.016   1.288   2.852
  395HOH      O 1389   3.789   1.166   1.824
  395HOH     H1 1390   3.728   1.165   1.897
  395HOH     H2 1391   3.810   1.074   1.808
  396HOH      O 1392   1.150   0.494   1.438
  396HOH     H1 1393   1.231   0.450   1.413
  396HOH     H2 1394   1.169   0.587   1.423
  397HOH      O 1395   0.121   0.265   2.393
  397HOH     H1 1396   0.097   0.312   2.473
  397HOH     H2 1397   0.203   0.306   2.365
  398HOH      O 1398   3.933   2.218   3.163
  398HOH     H1 1399   4.020   2.178   3.153
  398HOH     H2 1400   3.899   2.222   3.073
  399HOH      O 1401   2.744   0.369   3.636
  399HOH     H1 1402   2.720   0.277   3.624
  399HOH     H2 1403   2.838   0.372   3.619
  400HOH      O 1404   2.845   3.561   0.868
  400HOH     H1 1405   2.897   3.580   0.946
  400HOH     H2 1406   2.759   3.597   0.888
  401HOH      O 1407   0.384   3.984   1.634
  401HOH     H1 1408   0.346   4.031   1.560
  401HOH     H2 1409   0.360   4.036   1.711
  402HOH      O 1410   2.536   3.389   1.015
  402HOH     H1 1411   2.620   3.343   1.013
  402HOH     H2 1412   2.557   3.478   0.989
  403HOH      O 1413   0.769   2.879   2.999
  403HOH     H1 1414   0.840   2.892   3.062
  403HOH     H2 1415   0.804   2.816   2.936
  404HOH      O 1416   1.374   3.424   3.771
  404HOH     H1 1417   1.391   3.333   3.744
  404HOH     H2 1418   1.404   3.477   3.697
  405HOH      O 1419   2.967   2.856   1.575
  405HOH     H1 1420   2.951   2.939   1.620
  405HOH     H2 1421   2.978   2.881   1.483
  406HOH      O 1422   1.754   2.775   0.672
  406HOH     H1 1423   1.722   2.860   0.642
  406HOH     H2 1424   1.768   2.786   0.766
  407HOH      O 1425   3.592   2.691   0.521
  407HOH     H1 1426   3.554   2.614   0.479
  407HOH     H2 1427   3.576   2.678   0.614
  408HOH      O 1428   0.240   1.166   2.589
  408HOH     H1 1429   0.182   1.090   2.596
  408HOH     H2 1430   0.199   1.233   2.643
  409HOH      O 1431   1.805   1.272   0.813
  409HOH     H1 1432   1.731   1.325   0.786
  409HOH     H2 1433   1.772   1.220   0.887
  410HOH      O 1434   2.967   2.179   2.306
  410HOH     H1 1435   3.058   2.210   2.310
  410HOH     H2 1436   2.915   2.258   2.319
  411HOH      O 1437   3.808   2.407   1.494
  411HOH     H1 1438   3.792   2.316   1.469
  411HOH     H2 1439   3.872   2.401   1.565
  412HOH      O 1440   2.273   0.191   3.568
  412HOH     H1 1441   2.328   0.170   3.644
  412HOH     H2 1442   2.254   0.105   3.528
  413HOH      O 1443   1.712   1.922   2.409
  413HOH     H1 1444   1.787   1.980   2.397
  413HOH     H2 1445   1.750   1.834   2.414
  414HOH      O 1446   3.611   0.857   1.803
  414HOH     H1 1447   3.660   0.901   1.734
  414HOH     H2 1448   3.655   0.773   1.815
  415HOH      O 1449   1.513   1.693   1.168
  415HOH     H1 1450   1.439   1.650   1.125
  415HOH     H2 1451   1.587   1.678   1.109
  416HOH      O 1452   3.585   0.747   3.990
  416HOH     H1 1453   3.561   0.814   4.054
  416HOH     H2 1454   3.593   0.667   4.041
  417HOH      O 1455   3.049   0.603   1.104
  417HOH     H1 1456   2.974   0.634   1.053
  417HOH     H2 1457   3.083   0.530   1.054
  418HOH      O 1458   1.015   0.721   3.015
  418HOH     H1 1459   1.110   0.712   3.001
  418HOH     H2 1460   0.999   0.815   3.001
  419HOH      O 1461   2.851   3.287   0.812
  419HOH     H1 1462   2.854   3.383   0.804
  419HOH     H2 1463   2.891   3.269   0.897
  420HOH      O 1464   0.311   1.793   2.051
  420HOH     H1 1465   0.404   1.814   2.063
  420HOH     H2 1466   0.272   1.873   2.016
  421HOH      O 1467   1.906   1.151   1.377
  421HOH     H1 1468   1.835   1.094   1.347
  421HOH     H2 1469   1.862   1.231   1.407
  422HOH      O 1470   0.133   3.495   4.037
  422HOH     H1 1471   0.124   3.433   3.964
  422HOH     H2 1472   0.182   3.447   4.104
  423HOH      O 1473   0.669   0.499   3.801
  423HOH     H1 1474   0.634   0.540   3.722
  423HOH     H2 1475   0.749   0.548   3.821
  424HOH      O 1476   1.585   3.919   1.547
  424HOH     H1 1477   1.509   3.883   1.593
  424HOH     H2 1478   1.659   3.867   1.578
  425HOH      O 1479   0.924   0.404   3.220
  425HOH     H1 1480   0.892   0.457   3.147
  425HOH     H2 1481   0.871   0.430   3.295
  426HOH      O 1482   2.968   2.026   0.997
  426HOH     H1 1483   2.919   1.975   0.932
  426HOH     H2 1484   2.949   1.984   1.080
  427HOH      O 1485   1.254   2.421   2.443
  427HOH     H1 1486   1.319   2.429   2.513
  427HOH     H2 1487   1.303   2.385   2.369
  428HOH      O 1488   3.183   1.201   0.147
  428HOH     H1 1489   3.221   1.186   0.234
  428HOH     H2 1490   3.089   1.189   0.160
  429HOH      O 1491   0.187   2.876   1.860
  429HOH     H1 1492   0.234   2.888   1.943
  429HOH     H2 1493   0.200   2.783   1.839
  430HOH      O 1494   3.105   0.422   0.213
  430HOH     H1 1495   3.109   0.503   0.164
  430HOH     H2 1496   3.128   0.354   0.150
  431HOH      O 1497   3.078   3.961   1.653
  431HOH     H1 1498   3.120   4.046   1.667
  431HOH     H2 1499   3.151   3.899   1.650
  432HOH      O 1500   1.171   0.809   3.637
  432HOH     H1 1501   1.106   0.841   3.574
  432HOH     H2 1502   1.218   0.741   3.590
  433HOH      O 1503   2.542   2.285   1.023
  433HOH     H1 1504   2.467   2.345   1.029
  433HOH     H2 1505   2.553   2.269   0.929
  434HOH      O 1506   1.399   2.009   1.337
  434HOH     H1 1507   1.345   1.941   1.377
  434HOH     H2 1508   1.342   2.049   1.271
  435HOH      O 1509   2.467   3.974   4.021
  435HOH     H1 1510   2.411   3.905   4.058
  435HOH     H2 1511   2.556   3.941   4.032
  436HOH      O 1512   2.769   3.295   2.243
  436HOH     H1 1513   2.820   3.230   2.291
  436HOH     H2 1514   2.834   3.357   2.210
  437HOH      O 1515   3.164   0.531   3.377
  437HOH     H1 1516   3.120   0.475   3.312
  437HOH     H2 1517   3.257   0.511   3.365
  438HOH      O 1518   1.011   1.870   1.636
  438HOH     H1 1519   0.977   1.801   1.692
  438HOH     H2 1520   1.106   1.857   1.636
  439HOH      O 1521   0.249   3.019   0.092
  439HOH     H1 1522   0.193   2.962   0.144
  439HOH     H2 1523   0.195   3.043   0.016
  440HOH      O 1524   2.633   0.669   1.026
  440HOH     H1 1525   2.596   0.581   1.028
  440HOH     H2 1526   2.724   0.656   0.999
  441HOH      O 1527   1.484   0.331   1.002
  441HOH     H1 1528   1.470   0.420   1.035
  441HOH     H2 1529   1.579   0.318   1.011
  442HOH      O 1530   2.041   1.446   2.111
  442HOH     H1 1531   2.071   1.408   2.029
  442HOH     H2 1532   2.113   1.429   2.173
  443HOH      O 1533   3.342   0.040   3.783
  443HOH     H1 1534   3.298  -0.039   3.814
  443HOH     H2 1535   3.271   0.098   3.756
  444HOH      O 1536   4.036   2.509   1.238
  444HOH     H1 1537   4.087   2.516   1.157
  444HOH     H2 1538   3.954   2.469   1.211
  445HOH      O 1539   2.325   3.560   0.491
  445HOH     H1 1540   2.297   3.639   0.538
  445HOH     H2 1541   2.365   3.505   0.558
  446HOH      O 1542   2.935   1.511   2.507
  446HOH     H1 1543   2.843   1.537   2.521
  446HOH     H2 1544   2.930   1.438   2.446
  447HOH      O 1545   1.148   0.259   3.187
  447HOH     H1 1546   1.118   0.273   3.097
  447HOH     H2 1547   1.074   0.286   3.241
  448HOH      O 1548   1.149   3.104   2.650
  448HOH     H1 1549   1.137   3.196   2.673
  448HOH     H2 1550   1.061   3.065   2.659
  449HOH      O 1551   0.096   1.140   0.988
  449HOH     H1 1552   0.026   1.120   0.926
  449HOH     H2 1553   0.065   1.215   1.038
  450HOH      O 1554   2.239   1.512   2.965
  450HOH     H1 1555   2.165   1.451   2.970
  450HOH     H2 1556   2.210   1.578   2.902
  451HOH      O 1557   1.333   2.857   2.179
  451HOH     H1 1558   1.317   2.942   2.137
  451HOH     H2 1559   1.282   2.861   2.260
  452HOH      O 1560   2.829   2.053   0.045
  452HOH     H1 1561   2.849   2.094   0.129
  452HOH     H2 1562   2.849   2.120  -0.020
  453HOH      O 1563   0.600   3.701   0.541
  453HOH     H1 1564   0.518   3.750   0.541
  453HOH     H2 1565   0.641   3.722   0.625
  454HOH      O 1566   2.940   2.137   0.268
  454HOH     H1 1567   2.941   2.232   0.257
  454HOH     H2 1568   2.938   2.124   0.363
  455HOH      O 1569   1.992   1.057   2.006
  455HOH     H1 1570   1.984   0.996   2.079
  455HOH     H2 1571   1.904   1.093   1.994
  456HOH      O 1572   2.430   1.384   2.036
  456HOH     H1 1573   2.512   1.423   2.008
  456HOH     H2 1574   2.450   1.342   2.120
  457HOH      O 1575   2.645   2.568   3.472
  457HOH     H1 1576   2.589   2.634   3.430
  457HOH     H2 1577   2.714   2.619   3.515
  458HOH      O 1578   2.166   3.500   3.125
  458HOH     H1 1579   2.154   3.534   3.213
  458HOH     H2 1580   2.245   3.446   3.131
  459HOH      O 1581   1.175   3.038   0.546
  459HOH     H1 1582   1.108   2.997   0.601
  459HOH     H2 1583   1.196   3.120   0.590
  460HOH      O 1584   0.663   1.531   0.245
  460HOH     H1 1585   0.736   1.586   0.274
  460HOH     H2 1586   0.624   1.499   0.326
  461HOH      O 1587   1.194   3.918   2.144
  461HOH     H1 1588   1.261   3.949   2.205
  461HOH     H2 1589   1.241   3.858   2.085
  462HOH      O 1590   3.171   1.154   2.395
  462HOH     H1 1591   3.201   1.189   2.479
  462HOH     H2 1592   3.234   1.087   2.373
  463HOH      O 1593   2.022   1.308   3.965
  463HOH     H1 1594   2.056   1.391   3.999
  463HOH     H2 1595   2.074   1.241   4.008
  464HOH      O 1596   0.743   1.888   1.113
  464HOH     H1 1597   0.686   1.914   1.040
  464HOH     H2 1598   0.690   1.826   1.163
  465HOH      O 1599   1.237   0.215   2.314
  465HOH     H1 1600   1.255   0.223   2.220
  465HOH     H2 1601   1.295   0.278   2.355
  466HOH      O 1602   1.414   3.578   1.915
  466HOH     H1 1603   1.502   3.562   1.948
  466HOH     H2 1604   1.379   3.491   1.894
  467HOH      O 1605   1.251   1.495  -0.003
  467HOH     H1 1606   1.272   1.402  -0.008
  467HOH     H2 1607   1.183   1.500   0.065
  468HOH      O 1608   2.726   0.216   0.583
  468HOH     H1 1609   2.717   0.124   0.606
  468HOH     H2 1610   2.697   0.221   0.491
  469HOH      O 1611   0.246   1.101   3.612
  469HOH     H1 1612   0.262   1.033   3.547
  469HOH     H2 1613   0.156   1.129   3.597
  470HOH      O 1614   3.788   2.018   2.618
  470HOH     H1 1615   3.815   2.002   2.527
  470HOH     H2 1616   3.695   2.041   2.611
  471HOH      O 1617   1.438   3.716   0.434
  471HOH     H1 1618   1.344   3.721   0.451
  471HOH     H2 1619   1.445   3.695   0.341
  472HOH      O 1620   1.511   0.175   1.330
  472HOH     H1 1621   1.567   0.139   1.261
  472HOH     H2 1622   1.563   0.246   1.368
  473HOH      O 1623   4.014   1.828   3.246
  473HOH     H1 1624   4.091   1.818   3.301
  473HOH     H2 1625   4.004   1.922   3.234
  474HOH      O 1626   1.656   0.911   0.952
  474HOH     H1 1627   1.561   0.901   0.958
  474HOH     H2 1628   1.677   0.886   0.862
  475HOH      O 1629   3.381   1.596   0.070
  475HOH     H1 1630   3.382   1.629  -0.020
  475HOH     H2 1631   3.288   1.589   0.093
  476HOH      O 1632   3.483   2.370   3.867
  476HOH     H1 1633   3.449   2.355   3.955
  476HOH     H2 1634   3.523   2.287   3.842
  477HOH      O 1635   0.912   2.767   3.456
  477HOH     H1 1636   0.954   2.797   3.375
  477HOH     H2 1637   0.833   2.820   3.463
  478HOH      O 1638   3.788   3.780   0.116
  478HOH     H1 1639   3.832   3.860   0.088
  478HOH     H2 1640   3.847   3.710   0.088
  479HOH      O 1641   1.169   0.788   1.531
  479HOH     H1 1642   1.104   0.858   1.527
  479HOH     H2 1643   1.129   0.721   1.587
  480HOH      O 1644   1.375   3.026   0.175
  480HOH     H1 1645   1.456   3.052   0.217
  480HOH     H2 1646   1.402   2.989   0.091
  481HOH      O 1647   2.927   0.966   2.639
  481HOH     H1 1648   2.917   1.039   2.701
  481HOH     H2 1649   2.857   0.905   2.663
  482HOH      O 1650   1.623   1.948   2.813
  482HOH     H1 1651   1.677   1.990   2.880
  482HOH     H2 1652   1.534   1.974   2.833
  483HOH      O 1653   2.130   3.664   2.910
  483HOH     H1 1654   2.074   3.738   2.930
  483HOH     H2 1655   2.143   3.620   2.994
  484HOH      O 1656   2.617   0.845   0.738
  484HOH     H1 1657   2.617   0.888   0.823
  484HOH     H2 1658   2.542   0.785   0.741
  485HOH      O 1659   1.654   1.554   0.026
  485HOH     H1 1660   1.688   1.485  -0.031
  485HOH     H2 1661   1.643   1.511   0.111
  486HOH      O 1662   2.621   3.918   0.383
  486HOH     H1 1663   2.690   3.866   0.342
  486HOH     H2 1664   2.539   3.877   0.353
  487HOH      O 1665   3.851   3.293   1.582
  487HOH     H1 1666   3.815   3.255   1.502
  487HOH     H2 1667   3.844   3.223   1.647
  488HOH      O 1668   0.745   2.327   1.861
  488HOH     H1 1669   0.774   2.390   1.795
  488HOH     H2 1670   0.794   2.247   1.842
  489HOH      O 1671   0.152   3.539   2.941
  489HOH     H1 1672   0.218   3.477   2.972
  489HOH     H2 1673   0.068   3.496   2.959
  490HOH      O 1674   1.750   0.425   1.065
  490HOH     H1 1675   1.747   0.511   1.106
  490HOH     H2 1676   1.792   0.439   0.981
  491HOH      O 1677   0.707   2.506   2.824
  491HOH     H1 1678   0.743   2.498   2.736
  491HOH     H2 1679   0.769   2.562   2.871
  492HOH      O 1680   0.304   4.004   3.303
  492HOH     H1 1681   0.375   3.983   3.242
  492HOH     H2 1682   0.307   3.933   3.368
  493HOH      O 1683   1.152   3.456   3.927
  493HOH     H1 1684   1.234   3.434   3.883
  493HOH     H2 1685   1.139   3.385   3.990
  494HOH      O 1686   1.967   0.383   2.330
  494HOH     H1 1687   2.001   0.363   2.243
  494HOH     H2 1688   1.984   0.476   2.341
  495HOH      O 1689   0.552   3.973   1.363
  495HOH     H1 1690   0.636   3.944   1.326
  495HOH     H2 1691   0.557   4.069   1.361
  496HOH      O 1692   1.949   0.280   2.768
  496HOH     H1 1693   2.043   0.290   2.783
  496HOH     H2 1694   1.908   0.311   2.849
  497HOH      O 1695   3.460   2.146   3.506
  497HOH     H1 1696   3.474   2.239   3.485
  497HOH     H2 1697   3.515   2.130   3.582
  498HOH      O 1698   0.337   2.725   3.713
  498HOH     H1 1699   0.343   2.692   3.803
  498HOH     H2 1700   0.367   2.653   3.658
  499HOH      O 1701   0.660   1.065   1.580
  499HOH     H1 1702   0.591   1.122   1.613
  499HOH     H2 1703   0.637   1.052   1.488
  500HOH      O 1704   1.515   2.028   0.403
  500HOH     H1 1705   1.497   2.114   0.440
  500HOH     H2 1706   1.609   2.028   0.386
  501HOH      O 1707   3.983   2.122   1.395
  501HOH     H1 1708   3.891   2.107   1.373
  501HOH     H2 1709   4.030   2.107   1.313
  502HOH      O 1710   3.289   2.412   3.689
  502HOH     H1 1711   3.367   2.410   3.744
  502HOH     H2 1712   3.321   2.440   3.603
  503HOH      O 1713   3.359   1.756   1.902
  503HOH     H1 1714   3.379   1.761   1.995
  503HOH     H2 1715   3.419   1.689   1.869
  504HOH      O 1716   3.397   1.397   2.246
  504HOH     H1 1717   3.302   1.389   2.259
  504HOH     H2 1718   3.419   1.483   2.280
  505HOH      O 1719   1.779   2.837   1.615
  505HOH     H1 1720   1.828   2.767   1.659
  505HOH     H2 1721   1.734   2.793   1.543
  506HOH      O 1722   0.149   3.995   2.635
  506HOH     H1 1723   0.162   3.910   2.595
  506HOH     H2 1724   0.078   3.981   2.698
  507HOH      O 1725   2.884   3.471   2.685
  507HOH     H1 1726   2.947   3.443   2.618
  507HOH     H2 1727   2.909   3.562   2.705
  508HOH      O 1728   1.283   3.491   3.181
  508HOH     H1 1729   1.347   3.438   3.134
  508HOH     H2 1730   1.289   3.461   3.271
  509HOH      O 1731   0.801   0.003   3.168
  509HOH     H1 1732   0.762  -0.058   3.231
  509HOH     H2 1733   0.762   0.087   3.191
  510HOH      O 1734   1.081   3.359   2.715
  510HOH     H1 1735   1.019   3.403   2.774
  510HOH     H2 1736   1.167   3.389   2.745
  511HOH      O 1737   4.043   4.075   3.733
  511HOH     H1 1738   4.109   4.007   3.723
  511HOH     H2 1739   3.965   4.039   3.691
  512HOH      O 1740   3.618   0.018   3.715
  512HOH     H1 1741   3.677   0.010   3.790
  512HOH     H2 1742   3.532   0.037   3.753
  513HOH      O 1743   0.037   3.635   1.545
  513HOH     H1 1744   0.112   3.638   1.485
  513HOH     H2 1745  -0.036   3.607   1.490
  514HOH      O 1746   2.995   2.834   2.209
  514HOH     H1 1747   2.985   2.738   2.209
  514HOH     H2 1748   3.085   2.849   2.180
  515HOH      O 1749   2.421   0.531   3.979
  515HOH     H1 1750   2.361   0.457   3.968
  515HOH     H2 1751   2.506   0.498   3.949
  516HOH      O 1752   3.390   1.638   2.375
  516HOH     H1 1753   3.296   1.648   2.392
  516HOH     H2 1754   3.432   1.693   2.441
  517HOH      O 1755   2.008   2.375   3.426
  517HOH     H1 1756   1.996   2.331   3.511
  517HOH     H2 1757   1.941   2.443   3.425
  518HOH      O 1758   1.071   2.149   3.770
  518HOH     H1 1759   1.047   2.173   3.860
  518HOH     H2 1760   0.995   2.101   3.737
  519HOH      O 1761   1.672   2.510   0.598
  519HOH     H1 1762   1.580   2.521   0.576
  519HOH     H2 1763   1.704   2.599   0.614
  520HOH      O 1764   1.445   1.633   1.771
  520HOH     H1 1765   1.426   1.553   1.722
  520HOH     H2 1766   1.474   1.603   1.857
  521HOH      O 1767   0.617   1.647   3.986
  521HOH     H1 1768   0.700   1.636   4.032
  521HOH     H2 1769   0.566   1.570   4.009
  522HOH      O 1770   1.686   1.711   2.694
  522HOH     H1 1771   1.676   1.799   2.731
  522HOH     H2 1772   1.597   1.681   2.679
  523HOH      O 1773   1.733   2.108   3.511
  523HOH     H1 1774   1.644   2.075   3.528
  523HOH     H2 1775   1.787   2.068   3.579
  524HOH      O 1776   0.069   3.408   0.916
  524HOH     H1 1777   0.120   3.392   0.995
  524HOH     H2 1778   0.006   3.335   0.913
  525HOH      O 1779   1.246   0.179   3.919
  525HOH     H1 1780   1.187   0.113   3.956
  525HOH     H2 1781   1.329   0.132   3.907
  526HOH      O 1782   2.739   3.054   0.702
  526HOH     H1 1783   2.819   3.022   0.660
  526HOH     H2 1784   2.768   3.132   0.750
  527HOH      O 1785   3.103   4.007   3.658
  527HOH     H1 1786   3.109   4.102   3.659
  527HOH     H2 1787   3.164   3.979   3.589
  528HOH      O 1788   3.463   1.521   0.910
  528HOH     H1 1789   3.431   1.610   0.895
  528HOH     H2 1790   3.492   1.491   0.824
  529HOH      O 1791   1.899   0.878   0.166
  529HOH     H1 1792   1.877   0.842   0.252
  529HOH     H2 1793   1.988   0.912   0.177
  530HOH      O 1794   0.309   0.107   0.161
  530HOH     H1 1795   0.288   0.014   0.146
  530HOH     H2 1796   0.322   0.114   0.255
  531HOH      O 1797   1.692   1.574   0.996
  531HOH     H1 1798   1.723   1.514   1.064
  531HOH     H2 1799   1.683   1.520   0.918
  532HOH      O 1800   2.191   3.895   1.827
  532HOH     H1 1801   2.202   3.838   1.903
  532HOH     H2 1802   2.272   3.946   1.822
  533HOH      O 1803   2.424   2.963   4.020
  533HOH     H1 1804   2.391   2.881   3.983
  533HOH     H2 1805   2.356   2.991   4.081
  534HOH      O 1806   0.862   0.028   1.668
  534HOH     H1 1807   0.786   0.078   1.641
  534HOH     H2 1808   0.932   0.056   1.610
  535HOH      O 1809   2.479   1.154   2.855
  535HOH     H1 1810   2.485   1.226   2.918
  535HOH     H2 1811   2.385   1.139   2.844
  536HOH      O 1812   1.597   1.040   3.135
  536HOH     H1 1813   1.622   0.953   3.166
  536HOH     H2 1814   1.640   1.050   3.050
  537HOH      O 1815   2.523   0.542   3.571
  537HOH     H1 1816   2.542   0.635   3.565
  537HOH     H2 1817   2.609   0.500   3.574
  538HOH      O 1818   1.699   2.944   2.525
  538HOH     H1 1819   1.764   2.945   2.454
  538HOH     H2 1820   1.629   3.002   2.494
  539HOH      O 1821   1.236   3.139   1.695
  539HOH     H1 1822   1.186   3.181   1.764
  539HOH     H2 1823   1.235   3.046   1.719
  540HOH      O 1824   2.601   3.961   3.460
  540HOH     H1 1825   2.516   3.933   3.426
  540HOH     H2 1826   2.647   3.996   3.383
  541HOH      O 1827   0.481   0.311   0.388
  541HOH     H1 1828   0.420   0.377   0.420
  541HOH     H2 1829   0.443   0.228   0.415
  542HOH      O 1830   1.346   0.969   2.107
  542HOH     H1 1831   1.300   0.952   2.189
  542HOH     H2 1832   1.434   0.935   2.121
  543HOH      O 1833   1.113   1.473   1.473
  543HOH     H1 1834   1.038   1.426   1.508
  543HOH     H2 1835   1.076   1.548   1.427
  544HOH      O 1836   3.215   1.016   3.435
  544HOH     H1 1837   3.306   1.044   3.431
  544HOH     H2 1838   3.201   0.965   3.356
  545HOH      O 1839   0.712   1.593   1.411
  545HOH     H1 1840   0.687   1.517   1.359
  545HOH     H2 1841   0.807   1.588   1.419
  546HOH      O 1842   2.163   1.273   1.925
  546HOH     H1 1843   2.255   1.279   1.954
  546HOH     H2 1844   2.132   1.191   1.962
  547HOH      O 1845   1.206   2.102   2.018
  547HOH     H1 1846   1.296   2.135   2.020
  547HOH     H2 1847   1.214   2.007   2.022
  548HOH      O 1848   2.051   2.242   3.082
  548HOH     H1 1849   2.034   2.177   3.014
  548HOH     H2 1850   1.980   2.229   3.146
  549HOH      O 1851   2.594   0.559   3.126
  549HOH     H1 1852   2.674   0.510   3.104
  549HOH     H2 1853   2.595   0.635   3.068
  550HOH      O 1854   3.011   0.401   3.605
  550HOH     H1 1855   3.018   0.467   3.536
  550HOH     H2 1856   3.099   0.362   3.610
  551HOH      O 1857   3.733   2.458   0.189
  551HOH     H1 1858   3.698   2.393   0.128
  551HOH     H2 1859   3.694   2.541   0.160
  552HOH      O 1860   2.501   0.342   0.906
  552HOH     H1 1861   2.478   0.361   0.997
  552HOH     H2 1862   2.447   0.266   0.884
  553HOH      O 1863   2.024   0.810   1.868
  553HOH     H1 1864   2.049   0.898   1.895
  553HOH     H2 1865   1.935   0.798   1.900
  554HOH      O 1866   2.438   1.013   1.894
  554HOH     H1 1867   2.391   0.944   1.848
  554HOH     H2 1868   2.447   0.980   1.984
  555HOH      O 1869   0.229   3.328   3.817
  555HOH     H1 1870   0.317   3.348   3.785
  555HOH     H2 1871   0.241   3.247   3.867
  556HOH      O 1872   3.844   3.534   3.612
  556HOH     H1 1873   3.754   3.556   3.587
  556HOH     H2 1874   3.859   3.581   3.693
  557HOH      O 1875   0.869   1.313   1.502
  557HOH     H1 1876   0.793   1.316   1.444
  557HOH     H2 1877   0.832   1.327   1.589
  558HOH      O 1878   2.709   1.273   2.676
  558HOH     H1 1879   2.658   1.354   2.677
  558HOH     H2 1880   2.715   1.247   2.769
  559HOH      O 1881   1.663   3.332   3.145
  559HOH     H1 1882   1.709   3.406   3.185
  559HOH     H2 1883   1.675   3.260   3.207
  560HOH      O 1884   0.960   3.211   3.856
  560HOH     H1 1885   0.932   3.232   3.945
  560HOH     H2 1886   1.012   3.287   3.830
  561HOH      O 1887   3.405   2.127   1.668
  561HOH     H1 1888   3.426   2.048   1.617
  561HOH     H2 1889   3.459   2.120   1.746
  562HOH      O 1890   1.511   2.309   3.431
  562HOH     H1 1891   1.426   2.280   3.466
  562HOH     H2 1892   1.542   2.235   3.379
  563HOH      O 1893   3.327   2.140   0.241
  563HOH     H1 1894   3.309   2.048   0.258
  563HOH     H2 1895   3.261   2.187   0.292
  564HOH      O 1896   1.960   2.059   2.912
  564HOH     H1 1897   1.968   1.965   2.927
  564HOH     H2 1898   1.968   2.069   2.817
  565HOH      O 1899   0.576   0.541   2.824
  565HOH     H1 1900   0.543   0.564   2.737
  565HOH     H2 1901   0.562   0.447   2.831
  566HOH      O 1902   2.988   3.733   3.581
  566HOH     H1 1903   2.893   3.743   3.583
  566HOH     H2 1904   3.022   3.822   3.587
  567HOH      O 1905   2.625   4.009   1.378
  567HOH     H1 1906   2.703   3.984   1.428
  567HOH     H2 1907   2.655   4.078   1.319
  568HOH      O 1908   2.077   0.786   2.548
  568HOH     H1 1909   2.053   0.879   2.545
  568HOH     H2 1910   2.159   0.784   2.598
  569HOH      O 1911   3.603   0.501   0.093
  569HOH     H1 1912   3.675   0.439   0.103
  569HOH     H2 1913   3.580   0.526   0.182
  570HOH      O 1914   3.951   0.971   1.164
  570HOH     H1 1915   4.035   0.982   1.119
  570HOH     H2 1916   3.885   0.981   1.095
  571HOH      O 1917   2.294   0.303   0.022
  571HOH     H1 1918   2.244   0.321   0.102
  571HOH     H2 1919   2.270   0.213  -0.001
  572HOH      O 1920   0.344   2.220   1.466
  572HOH     H1 1921   0.406   2.279   1.422
  572HOH     H2 1922   0.261   2.267   1.464
  573HOH      O 1923   0.677   3.762   1.123
  573HOH     H1 1924   0.768   3.737   1.135
  573HOH     H2 1925   0.681   3.852   1.091
  574HOH      O 1926   2.706   3.683   1.263
  574HOH     H1 1927   2.761   3.614   1.301
  574HOH     H2 1928   2.749   3.765   1.289
  575HOH      O 1929   2.644   2.278   3.100
  575HOH     H1 1930   2.712   2.346   3.100
  575HOH     H2 1931   2.580   2.309   3.164
  576HOH      O 1932   1.761   1.380   3.883
  576HOH     H1 1933   1.735   1.334   3.803
  576HOH     H2 1934   1.850   1.348   3.900
  577HOH      O 1935   3.234   2.838   1.972
  577HOH     H1 1936   3.213   2.744   1.967
  577HOH     H2 1937   3.284   2.855   1.893
  578HOH      O 1938   0.267   1.286   2.045
  578HOH     H1 1939   0.288   1.379   2.059
  578HOH     H2 1940   0.347   1.240   2.070
  579HOH      O 1941   2.430   3.269   2.880
  579HOH     H1 1942   2.394   3.311   2.958
  579HOH     H2 1943   2.484   3.337   2.839
  580HOH      O 1944   1.349   2.551   1.419
  580HOH     H1 1945   1.342   2.462   1.453
  580HOH     H2 1946   1.382   2.540   1.330
  581HOH      O 1947   3.482   1.453   0.395
  581HOH     H1 1948   3.509   1.541   0.368
  581HOH     H2 1949   3.491   1.454   0.491
  582HOH      O 1950   3.188   1.980   3.282
  582HOH     H1 1951   3.166   2.056   3.336
  582HOH     H2 1952   3.196   2.014   3.193
  583HOH      O 1953   2.835   2.690   1.858
  583HOH     H1 1954   2.904   2.624   1.860
  583HOH     H2 1955   2.805   2.692   1.767
  584HOH      O 1956   3.502   0.184   2.600
  584HOH     H1 1957   3.497   0.089   2.611
  584HOH     H2 1958   3.510   0.196   2.506
  585HOH      O 1959   0.617   3.973   0.200
  585HOH     H1 1960   0.563   4.033   0.251
  585HOH     H2 1961   0.642   4.023   0.122
  586HOH      O 1962   3.981   0.286   0.517
  586HOH     H1 1963   3.977   0.290   0.612
  586HOH     H2 1964   3.960   0.195   0.496
  587HOH      O 1965   1.830   0.356   0.143
  587HOH     H1 1966   1.794   0.398   0.064
  587HOH     H2 1967   1.908   0.406   0.163
  588HOH      O 1968   1.520   3.247   1.765
  588HOH     H1 1969   1.448   3.302   1.733
  588HOH     H2 1970   1.504   3.240   1.859
  589HOH      O 1971   1.404   0.816   0.186
  589HOH     H1 1972   1.493   0.783   0.174
  589HOH     H2 1973   1.387   0.806   0.279
  590HOH      O 1974   3.762   1.862   1.658
  590HOH     H1 1975   3.704   1.786   1.649
  590HOH     H2 1976   3.838   1.828   1.705
  591HOH      O 1977   3.288   1.682   3.631
  591HOH     H1 1978   3.209   1.629   3.630
  591HOH     H2 1979   3.257   1.772   3.625
  592HOH      O 1980   3.602   2.075   1.847
  592HOH     H1 1981   3.662   2.079   1.774
  592HOH     H2 1982   3.633   2.003   1.901
  593HOH      O 1983   3.998   0.437   0.279
  593HOH     H1 1984   3.996   0.402   0.368
  593HOH     H2 1985   4.091   0.448   0.259
  594HOH      O 1986   2.768   1.676   1.631
  594HOH     H1 1987   2.744   1.703   1.720
  594HOH     H2 1988   2.794   1.584   1.640
  595HOH      O 1989   2.025   0.657   2.291
  595HOH     H1 1990   2.056   0.683   2.378
  595HOH     H2 1991   2.105   0.632   2.244
  596HOH      O 1992   0.052   2.434   4.055
  596HOH     H1 1993   0.000   2.463   3.979
  596HOH     H2 1994   0.094   2.353   4.025
  597HOH      O 1995   0.382   3.387   2.946
  597HOH     H1 1996   0.428   3.386   3.030
  597HOH     H2 1997   0.391   3.298   2.913
  598HOH      O 1998   2.559   2.114   2.764
  598HOH     H1 1999   2.598   2.201   2.775
  598HOH     H2 2000   2.507   2.121   2.684
  599HOH      O 2001   3.442   1.005   2.757
  599HOH     H1 2002   3.494   0.958   2.823
  599HOH     H2 2003   3.431   0.943   2.686
  600HOH      O 2004   0.902   1.639   0.388
  600HOH     H1 2005   0.895   1.570   0.453
  600HOH     H2 2006   0.913   1.719   0.439
  601HOH      O 2007   2.587   0.606   2.721
  601HOH     H1 2008   2.582   0.523   2.768
  601HOH     H2 2009   2.624   0.582   2.636
  602HOH      O 2010   3.986   3.631   3.171
  602HOH     H1 2011   4.054   3.625   3.238
  602HOH     H2 2012   3.935   3.551   3.182
  603HOH      O 2013   0.628   0.201   3.227
  603HOH     H1 2014   0.584   0.264   3.170
  603HOH     H2 2015   0.619   0.237   3.315
  604HOH      O 2016   1.431   0.559   3.847
  604HOH     H1 2017   1.461   0.505   3.919
  604HOH     H2 2018   1.340   0.580   3.869
  605HOH      O 2019   3.969   3.325   1.264
  605HOH     H1 2020   4.012   3.283   1.339
  605HOH     H2 2021   3.955   3.416   1.292
  606HOH      O 2022   0.259   0.482   3.853
  606HOH     H1 2023   0.301   0.422   3.915
  606HOH     H2 2024   0.170   0.449   3.844
  607HOH      O 2025   2.958   0.711   3.593
  607HOH     H1 2026   2.883   0.741   3.643
  607HOH     H2 2027   2.921   0.685   3.508
  608HOH      O 2028   0.869   3.977   0.492
  608HOH     H1 2029   0.831   4.060   0.462
  608HOH     H2 2030   0.900   3.995   0.580
  609HOH      O 2031   0.260   0.661   3.459
  609HOH     H1 2032   0.243   0.598   3.388
  609HOH     H2 2033   0.227   0.744   3.425
  610HOH      O 2034   1.853   1.437   3.142
  610HOH     H1 2035   1.881   1.486   3.219
  610HOH     H2 2036   1.935   1.408   3.101
  611HOH      O 2037   1.459   3.950   0.147
  611HOH     H1 2038   1.427   3.986   0.064
  611HOH     H2 2039   1.422   4.008   0.213
  612HOH      O 2040   1.756   2.720   3.584
  612HOH     H1 2041   1.745   2.626   3.569
  612HOH     H2 2042   1.849   2.735   3.572
  613HOH      O 2043   3.027   0.196   4.023
  613HOH     H1 2044   2.977   0.177   4.102
  613HOH     H2 2045   3.013   0.121   3.966
  614HOH      O 2046   3.477   1.735   0.282
  614HOH     H1 2047   3.429   1.816   0.302
  614HOH     H2 2048   3.441   1.707   0.198
  615HOH      O 2049   2.138   2.502   0.339
  615HOH     H1 2050   2.125   2.427   0.281
  615HOH     H2 2051   2.059   2.504   0.393
  616HOH      O 2052   0.557   2.175   2.414
  616HOH     H1 2053   0.608   2.123   2.477
  616HOH     H2 2054   0.586   2.265   2.428
  617HOH      O 2055   1.106   2.280   1.424
  617HOH     H1 2056   1.101   2.192   1.387
  617HOH     H2 2057   1.195   2.286   1.459
  618HOH      O 2058   0.392   3.184   3.466
  618HOH     H1 2059   0.327   3.237   3.420
  618HOH     H2 2060   0.399   3.224   3.552
  619HOH      O 2061   3.925   3.893   3.539
  619HOH     H1 2062   3.981   3.817   3.554
  619HOH     H2 2063   3.929   3.909   3.445
  620HOH      O 2064   0.939   0.291   4.047
  620HOH     H1 2065   0.856   0.323   4.012
  620HOH     H2 2066   0.974   0.234   3.978
  621HOH      O 2067   1.735   3.275   3.871
  621HOH     H1 2068   1.755   3.270   3.964
  621HOH     H2 2069   1.700   3.188   3.849
  622HOH      O 2070   1.360   1.985   2.818
  622HOH     H1 2071   1.301   2.016   2.886
  622HOH     H2 2072   1.303   1.941   2.755
  623HOH      O 2073   2.904   2.259   2.000
  623HOH     H1 2074   2.827   2.242   2.054
  623HOH     H2 2075   2.869   2.268   1.911
  624HOH      O 2076   1.943   2.313   2.260
  624HOH     H1 2077   1.910   2.333   2.173
  624HOH     H2 2078   2.024   2.363   2.268
  625HOH      O 2079   2.149   3.821   2.314
  625HOH     H1 2080   2.078   3.859   2.262
  625HOH     H2 2081   2.228   3.859   2.277
  626HOH      O 2082   0.944   2.621   0.714
  626HOH     H1 2083   0.877   2.642   0.649
  626HOH     H2 2084   0.962   2.704   0.758
  627HOH      O 2085   2.205   3.444   2.542
  627HOH     H1 2086   2.228   3.475   2.454
  627HOH     H2 2087   2.125   3.492   2.564
  628HOH      O 2088   2.680   1.537   3.877
  628HOH     H1 2089   2.743   1.529   3.805
  628HOH     H2 2090   2.697   1.624   3.914
  629HOH      O 2091   3.660   1.132   1.261
  629HOH     H1 2092   3.687   1.087   1.181
  629HOH     H2 2093   3.741   1.167   1.298
  630HOH      O 2094   0.016   1.486   0.209
  630HOH     H1 2095  -0.060   1.467   0.264
  630HOH     H2 2096   0.090   1.487   0.269
  631HOH      O 2097   1.695   3.864   1.877
  631HOH     H1 2098   1.753   3.793   1.906
  631HOH     H2 2099   1.754   3.933   1.847
  632HOH      O 2100   3.272   3.440   2.964
  632HOH     H1 2101   3.212   3.386   3.016
  632HOH     H2 2102   3.339   3.380   2.933
  633HOH      O 2103   1.044   1.104   0.691
  633HOH     H1 2104   0.964   1.139   0.730
  633HOH     H2 2105   1.049   1.014   0.723
  634HOH      O 2106   1.226   3.349   0.327
  634HOH     H1 2107   1.285   3.399   0.384
  634HOH     H2 2108   1.142   3.396   0.334
  635HOH      O 2109   0.975   2.783   0.259
  635HOH     H1 2110   0.892   2.780   0.307
  635HOH     H2 2111   1.000   2.875   0.261
  636HOH      O 2112   0.427   3.405   0.065
  636HOH     H1 2113   0.426   3.462   0.142
  636HOH     H2 2114   0.483   3.450   0.002
  637HOH      O 2115   3.678   1.284   3.416
  637HOH     H1 2116   3.647   1.369   3.385
  637HOH     H2 2117   3.753   1.305   3.472
  638HOH      O 2118   2.011   3.404   1.041
  638HOH     H1 2119   2.105   3.393   1.024
  638HOH     H2 2120   1.988   3.331   1.099
  639HOH      O 2121   0.041   3.335   2.225
  639HOH     H1 2122  -0.011   3.393   2.170
  639HOH     H2 2123   0.121   3.320   2.175
  640HOH      O 2124   1.944   0.446   0.461
  640HOH     H1 2125   1.874   0.418   0.519
  640HOH     H2 2126   1.908   0.435   0.373
  641HOH      O 2127   3.571   0.386   1.890
  641HOH     H1 2128   3.603   0.296   1.897
  641HOH     H2 2129   3.565   0.416   1.981
  642HOH      O 2130   0.168   2.114   3.195
  642HOH     H1 2131   0.195   2.164   3.118
  642HOH     H2 2132   0.247   2.066   3.220
  643HOH      O 2133   0.268   2.411   0.202
  643HOH     H1 2134   0.223   2.433   0.120
  643HOH     H2 2135   0.220   2.336   0.236
  644HOH      O 2136   1.408   2.602   0.565
  644HOH     H1 2137   1.420   2.690   0.528
  644HOH     H2 2138   1.335   2.566   0.516
  645HOH      O 2139   1.594   3.418   0.581
  645HOH     H1 2140   1.684   3.440   0.603
  645HOH     H2 2141   1.559   3.497   0.539
  646HOH      O 2142   1.880   0.345   3.254
  646HOH     H1 2143   1.939   0.325   3.327
  646HOH     H2 2144   1.811   0.279   3.259
  647HOH      O 2145   0.797   2.442   2.313
  647HOH     H1 2146   0.879   2.431   2.264
  647HOH     H2 2147   0.731   2.457   2.246
  648HOH      O 2148   1.562   2.454   1.631
  648HOH     H1 2149   1.494   2.520   1.646
  648HOH     H2 2150   1.609   2.449   1.715
  649HOH      O 2151   2.201   2.120   2.197
  649HOH     H1 2152   2.163   2.047   2.150
  649HOH     H2 2153   2.128   2.159   2.244
  650HOH      O 2154   3.650   1.057   2.042
  650HOH     H1 2155   3.600   0.987   2.002
  650HOH     H2 2156   3.722   1.012   2.087
  651HOH      O 2157   0.643   2.849   1.624
  651HOH     H1 2158   0.693   2.806   1.693
  651HOH     H2 2159   0.645   2.787   1.551
  652HOH      O 2160   2.722   0.716   2.434
  652HOH     H1 2161   2.785   0.645   2.434
  652HOH     H2 2162   2.751   0.775   2.364
  653HOH      O 2163   1.586   0.410   2.275
  653HOH     H1 2164   1.655   0.383   2.336
  653HOH     H2 2165   1.563   0.498   2.302
  654HOH      O 2166   3.613   3.778   1.111
  654HOH     H1 2167   3.622   3.684   1.091
  654HOH     H2 2168   3.537   3.782   1.169
  655HOH      O 2169   3.149   1.455   1.907
  655HOH     H1 2170   3.123   1.547   1.909
  655HOH     H2 2171   3.202   1.447   1.827
  656HOH      O 2172   3.393   1.085   0.577
  656HOH     H1 2173   3.366   1.155   0.637
  656HOH     H2 2174   3.394   1.006   0.632
  657HOH      O 2175   0.102   2.991   1.187
  657HOH     H1 2176   0.058   3.034   1.260
  657HOH     H2 2177   0.042   2.922   1.159
  658HOH      O 2178   2.353   1.325   1.143
  658HOH     H1 2179   2.366   1.284   1.229
  658HOH     H2 2180   2.423   1.288   1.089
  659HOH      O 2181   3.340   0.954   1.835
  659HOH     H1 2182   3.348   0.999   1.751
  659HOH     H2 2183   3.422   0.905   1.843
  660HOH      O 2184   1.758   0.122   3.311
  660HOH     H1 2185   1.784   0.036   3.346
  660HOH     H2 2186   1.665   0.130   3.332
  661HOH      O 2187   3.323   3.974   1.223
  661HOH     H1 2188   3.390   4.039   1.245
  661HOH     H2 2189   3.272   4.015   1.153
  662HOH      O 2190   2.710   3.616   4.026
  662HOH     H1 2191   2.768   3.642   3.954
  662HOH     H2 2192   2.742   3.530   4.052
  663HOH      O 2193   3.476   2.410   1.235
  663HOH     H1 2194   3.531   2.364   1.299
  663HOH     H2 2195   3.398   2.354   1.227
  664HOH      O 2196   3.611   1.054   0.081
  664HOH     H1 2197   3.600   1.009   0.164
  664HOH     H2 2198   3.558   1.134   0.091
  665HOH      O 2199   3.557   3.792   2.245
  665HOH     H1 2200   3.497   3.839   2.303
  665HOH     H2 2201   3.639   3.789   2.293
  666HOH      O 2202   2.860   2.525   1.263
  666HOH     H1 2203   2.816   2.598   1.220
  666HOH     H2 2204   2.865   2.457   1.196
  667HOH      O 2205   3.569   3.590   3.610
  667HOH     H1 2206   3.524   3.674   3.620
  667HOH     H2 2207   3.516   3.527   3.658
  668HOH      O 2208   3.880   3.786   2.961
  668HOH     H1 2209   3.825   3.712   2.937
  668HOH     H2 2210   3.939   3.752   3.028
  669HOH      O 2211   2.944   3.265   3.491
  669HOH     H1 2212   2.888   3.249   3.416
  669HOH     H2 2213   2.972   3.178   3.519
  670HOH      O 2214   3.453   3.113   3.398
  670HOH     H1 2215   3.376   3.164   3.423
  670HOH     H2 2216   3.474   3.142   3.310
  671HOH      O 2217   0.809   2.978   2.001
  671HOH     H1 2218   0.758   2.938   2.071
  671HOH     H2 2219   0.855   3.050   2.043
  672HOH      O 2220   0.403   0.497   3.147
  672HOH     H1 2221   0.321   0.486   3.194
  672HOH     H2 2222   0.377   0.516   3.057
  673HOH      O 2223   1.827   0.467   1.328
  673HOH     H1 2224   1.788   0.407   1.265
  673HOH     H2 2225   1.836   0.416   1.409
  674HOH      O 2226   1.502   2.039   2.276
  674HOH     H1 2227   1.531   2.023   2.187
  674HOH     H2 2228   1.580   2.025   2.330
  675HOH      O 2229   1.405   2.880   0.477
  675HOH     H1 2230   1.319   2.914   0.502
  675HOH     H2 2231   1.467   2.939   0.520
  676HOH      O 2232   0.442   3.469   0.726
  676HOH     H1 2233   0.518   3.521   0.701
  676HOH     H2 2234   0.463   3.380   0.697
  677HOH      O 2235   1.128   1.608   3.527
  677HOH     H1 2236   1.193   1.576   3.465
  677HOH     H2 2237   1.149   1.563   3.609
  678HOH      O 2238   2.480   1.751   3.139
  678HOH     H1 2239   2.515   1.685   3.079
  678HOH     H2 2240   2.542   1.824   3.135
  679HOH      O 2241   3.852   2.774   1.204
  679HOH     H1 2242   3.828   2.727   1.284
  679HOH     H2 2243   3.777   2.831   1.186
  680HOH      O 2244   3.860   1.833   3.861
  680HOH     H1 2245   3.873   1.760   3.922
  680HOH     H2 2246   3.866   1.793   3.774
  681HOH      O 2247   2.912   3.524   3.054
  681HOH     H1 2248   2.885   3.567   2.973
  681HOH     H2 2249   2.991   3.572   3.081
  682HOH      O 2250   2.913   2.058   1.686
  682HOH     H1 2251   2.999   2.026   1.715
  682HOH     H2 2252   2.918   2.153   1.698
  683HOH      O 2253   2.154   3.620   1.649
  683HOH     H1 2254   2.238   3.665   1.655
  683HOH     H2 2255   2.096   3.682   1.606
  684HOH      O 2256   0.740   0.261   0.676
  684HOH     H1 2257   0.646   0.254   0.662
  684HOH     H2 2258   0.778   0.261   0.588
  685HOH      O 2259   2.277   0.118   1.123
  685HOH     H1 2260   2.253   0.062   1.196
  685HOH     H2 2261   2.200   0.174   1.109
  686HOH      O 2262   2.822   2.728   3.613
  686HOH     H1 2263   2.857   2.751   3.527
  686HOH     H2 2264   2.899   2.701   3.663
  687HOH      O 2265   1.532   3.759   1.015
  687HOH     H1 2266   1.616   3.738   0.975
  687HOH     H2 2267   1.550   3.764   1.109
  688HOH      O 2268   1.324   2.101   3.890
  688HOH     H1 2269   1.231   2.112   3.870
  688HOH     H2 2270   1.325   2.042   3.965
  689HOH      O 2271   2.335   1.423   1.675
  689HOH     H1 2272   2.340   1.328   1.691
  689HOH     H2 2273   2.246   1.437   1.644
  690HOH      O 2274   3.260   2.963   1.698
  690HOH     H1 2275   3.276   2.986   1.606
  690HOH     H2 2276   3.278   3.043   1.747
  691HOH      O 2277   2.678   2.814   0.874
  691HOH     H1 2278   2.681   2.870   0.797
  691HOH     H2 2279   2.585   2.799   0.889
  692HOH      O 2280   1.263   0.116   1.346
  692HOH     H1 2281   1.357   0.129   1.331
  692HOH     H2 2282   1.228   0.096   1.259
  693HOH      O 2283   3.217   0.149   1.663
  693HOH     H1 2284   3.204   0.240   1.638
  693HOH     H2 2285   3.306   0.128   1.633
  694HOH      O 2286   2.585   3.053   1.783
  694HOH     H1 2287   2.545   2.969   1.803
  694HOH     H2 2288   2.597   3.095   1.868
  695HOH      O 2289   2.217   3.028   2.108
  695HOH     H1 2290   2.164   3.106   2.124
  695HOH     H2 2291   2.188   2.965   2.174
  696HOH      O 2292   0.091   1.084   1.566
  696HOH     H1 2293   0.050   1.126   1.642
  696HOH     H2 2294   0.108   1.156   1.505
  697HOH      O 2295   1.768   3.023   3.732
  697HOH     H1 2296   1.705   2.952   3.717
  697HOH     H2 2297   1.811   3.035   3.647
  698HOH      O 2298   1.931   2.954   1.426
  698HOH     H1 2299   1.960   3.042   1.448
  698HOH     H2 2300   1.898   2.917   1.508
  699HOH      O 2301   2.073   1.799   0.437
  699HOH     H1 2302   2.049   1.783   0.345
  699HOH     H2 2303   2.062   1.893   0.449
  700HOH      O 2304   0.393   0.044   0.416
  700HOH     H1 2305   0.394   0.035   0.511
  700HOH     H2 2306   0.360  -0.040   0.385
  701HOH      O 2307   3.277   3.267   0.248
  701HOH     H1 2308   3.319   3.348   0.218
  701HOH     H2 2309   3.342   3.227   0.307
  702HOH      O 2310   1.853   1.062   3.926
  702HOH     H1 2311   1.820   1.039   4.012
  702HOH     H2 2312   1.930   1.117   3.944
  703HOH      O 2313   1.973   2.656   2.574
  703HOH     H1 2314   1.913   2.632   2.504
  703HOH     H2 2315   2.003   2.572   2.609
  704HOH      O 2316   0.345   1.996   1.879
  704HOH     H1 2317   0.424   1.956   1.843
  704HOH     H2 2318   0.369   2.088   1.893
  705HOH      O 2319   1.812   3.105   1.774
  705HOH     H1 2320   1.791   3.166   1.703
  705HOH     H2 2321   1.852   3.030   1.730
  706HOH      O 2322   1.815   2.968   0.286
  706HOH     H1 2323   1.732   3.003   0.318
  706HOH     H2 2324   1.876   3.042   0.291
  707HOH      O 2325   0.050   0.756   1.296
  707HOH     H1 2326   0.023   0.758   1.388
  707HOH     H2 2327  -0.013   0.813   1.252
  708HOH      O 2328   2.451   2.956   0.279
  708HOH     H1 2329   2.521   2.998   0.229
  708HOH     H2 2330   2.463   2.862   0.263
  709HOH      O 2331   0.188   3.569   3.623
  709HOH     H1 2332   0.167   3.485   3.664
  709HOH     H2 2333   0.281   3.562   3.601
  710HOH      O 2334   1.772   2.019   0.316
  710HOH     H1 2335   1.788   2.076   0.391
  710HOH     H2 2336   1.856   2.016   0.270
  711HOH      O 2337   1.958   0.411   0.873
  711HOH     H1 2338   1.994   0.489   0.830
  711HOH     H2 2339   1.988   0.338   0.819
  712HOH      O 2340   3.516   1.935   0.057
  712HOH     H1 2341   3.486   1.848   0.029
  712HOH     H2 2342   3.436   1.985   0.070
  713HOH      O 2343   0.728   1.270   3.268
  713HOH     H1 2344   0.740   1.192   3.323
  713HOH     H2 2345   0.745   1.343   3.327
  714HOH      O 2346   2.237   2.674   2.666
  714HOH     H1 2347   2.288   2.611   2.615
  714HOH     H2 2348   2.160   2.693   2.612
  715HOH      O 2349   0.833   2.073   3.638
  715HOH     H1 2350   0.853   2.019   3.562
  715HOH     H2 2351   0.789   2.150   3.603
  716HOH      O 2352   0.692   3.843   3.890
  716HOH     H1 2353   0.749   3.771   3.920
  716HOH     H2 2354   0.723   3.919   3.939
  717HOH      O 2355   0.659   1.511   2.499
  717HOH     H1 2356   0.621   1.596   2.522
  717HOH     H2 2357   0.607   1.448   2.548
  718HOH      O 2358   0.675   2.903   0.657
  718HOH     H1 2359   0.592   2.886   0.613
  718HOH     H2 2360   0.662   2.871   0.747
  719HOH      O 2361   2.971   1.954   2.016
  719HOH     H1 2362   2.961   2.048   2.002
  719HOH     H2 2363   2.931   1.938   2.101
  720HOH      O 2364   0.932   1.207   3.998
  720HOH     H1 2365   0.995   1.138   4.018
  720HOH     H2 2366   0.942   1.270   4.070
  721HOH      O 2367   3.082   0.697   0.137
  721HOH     H1 2368   3.143   0.765   0.106
  721HOH     H2 2369   3.026   0.743   0.199
  722HOH      O 2370   2.201   2.252   2.543
  722HOH     H1 2371   2.189   2.317   2.474
  722HOH     H2 2372   2.280   2.280   2.589
  723HOH      O 2373   2.524   2.778   1.816
  723HOH     H1 2374   2.607   2.732   1.821
  723HOH     H2 2375   2.464   2.717   1.774
  724HOH      O 2376   1.602   1.414   0.686
  724HOH     H1 2377   1.521   1.445   0.727
  724HOH     H2 2378   1.616   1.474   0.613
  725HOH      O 2379   2.856   1.380   2.915
  725HOH     H1 2380   2.793   1.389   2.986
  725HOH     H2 2381   2.899   1.465   2.909
  726HOH      O 2382   0.044   2.734   1.664
  726HOH     H1 2383   0.076   2.739   1.574
  726HOH     H2 2384   0.080   2.812   1.706
  727HOH      O 2385   3.333   1.758   0.776
  727HOH     H1 2386   3.262   1.766   0.713
  727HOH     H2 2387   3.409   1.794   0.732
  728HOH      O 2388   0.992   0.927   2.730
  728HOH     H1 2389   1.026   0.962   2.813
  728HOH     H2 2390   0.919   0.870   2.756
  729HOH      O 2391   0.455   3.508   0.341
  729HOH     H1 2392   0.502   3.589   0.325
  729HOH     H2 2393   0.520   3.449   0.378
  730HOH      O 2394   2.337   2.409   0.668
  730HOH     H1 2395   2.243   2.388   0.673
  730HOH     H2 2396   2.345   2.461   0.588
  731HOH      O 2397   3.172   0.625   0.645
  731HOH     H1 2398   3.208   0.543   0.679
  731HOH     H2 2399   3.190   0.622   0.551
  732HOH      O 2400   0.950   2.641   3.799
  732HOH     H1 2401   0.861   2.675   3.798
  732HOH     H2 2402   0.973   2.636   3.892
  733HOH      O 2403   0.523   2.311   2.784
  733HOH     H1 2404   0.534   2.355   2.869
  733HOH     H2 2405   0.609   2.272   2.766
  734HOH      O 2406   1.012   1.287   2.553
  734HOH     H1 2407   1.021   1.380   2.534
  734HOH     H2 2408   0.979   1.283   2.642
  735HOH      O 2409   0.434   2.220   2.012
  735HOH     H1 2410   0.359   2.190   2.063
  735HOH     H2 2411   0.509   2.203   2.069
  736HOH      O 2412   2.032   2.028   2.603
  736HOH     H1 2413   2.104   2.092   2.600
  736HOH     H2 2414   2.067   1.956   2.656
  737HOH      O 2415   2.099   0.545   3.933
  737HOH     H1 2416   2.109   0.494   4.013
  737HOH     H2 2417   2.143   0.492   3.865
  738HOH      O 2418   3.172   2.311   0.505
  738HOH     H1 2419   3.185   2.388   0.560
  738HOH     H2 2420   3.174   2.345   0.416
  739HOH      O 2421   2.316   2.721   1.972
  739HOH     H1 2422   2.404   2.752   1.951
  739HOH     H2 2423   2.315   2.629   1.943
  740HOH      O 2424   1.198   1.016   3.800
  740HOH     H1 2425   1.184   0.931   3.758
  740HOH     H2 2426   1.266   1.000   3.865
  741HOH      O 2427   2.061   0.502   0.196
  741HOH     H1 2428   2.128   0.471   0.257
  741HOH     H2 2429   2.097   0.582   0.159
  742HOH      O 2430   0.830   2.514   2.579
  742HOH     H1 2431   0.822   2.510   2.484
  742HOH     H2 2432   0.890   2.443   2.601
  743HOH      O 2433   1.767   2.330   1.512
  743HOH     H1 2434   1.707   2.392   1.553
  743HOH     H2 2435   1.716   2.291   1.441
  744HOH      O 2436   2.194   0.073   3.952
  744HOH     H1 2437   2.202  -0.014   3.911
  744HOH     H2 2438   2.110   0.106   3.921
  745HOH      O 2439   2.887   3.093   1.698
  745HOH     H1 2440   2.924   3.143   1.771
  745HOH     H2 2441   2.810   3.051   1.736
  746HOH      O 2442   1.535   3.824   3.744
  746HOH     H1 2443   1.612   3.767   3.748
  746HOH     H2 2444   1.467   3.775   3.790
  747HOH      O 2445   2.011   3.824   3.942
  747HOH     H1 2446   1.949   3.865   3.882
  747HOH     H2 2447   1.998   3.869   4.025
  748HOH      O 2448   0.224   1.395   3.285
  748HOH     H1 2449   0.134   1.365   3.269
  748HOH     H2 2450   0.219   1.490   3.280
  749HOH      O 2451   2.260   3.364   3.392
  749HOH     H1 2452   2.281   3.295   3.329
  749HOH     H2 2453   2.240   3.317   3.473
  750HOH      O 2454   1.033   4.038   3.614
  750HOH     H1 2455   1.120   4.070   3.640
  750HOH     H2 2456   1.043   3.942   3.611
  751HOH      O 2457   0.957   2.812   0.903
  751HOH     H1 2458   0.890   2.823   0.971
  751HOH     H2 2459   1.039   2.840   0.946
  752HOH      O 2460   2.569   0.870   2.105
  752HOH     H1 2461   2.521   0.907   2.179
  752HOH     H2 2462   2.553   0.776   2.110
  753HOH      O 2463   2.414   3.702   1.854
  753HOH     H1 2464   2.461   3.730   1.933
  753HOH     H2 2465   2.484   3.682   1.792
  754HOH      O 2466   0.014   0.929   0.509
  754HOH     H1 2467  -0.000   1.022   0.494
  754HOH     H2 2468   0.040   0.924   0.602
  755HOH      O 2469   1.727   0.054   0.741
  755HOH     H1 2470   1.642   0.013   0.732
  755HOH     H2 2471   1.786   0.001   0.686
  756HOH      O 2472   1.997   2.934   2.647
  756HOH     H1 2473   1.957   2.984   2.575
  756HOH     H2 2474   2.002   2.845   2.614
  757HOH      O 2475   2.124   0.142   2.487
  757HOH     H1 2476   2.212   0.103   2.491
  757HOH     H2 2477   2.066   0.073   2.520
  758HOH      O 2478   1.755   3.532   0.154
  758HOH     H1 2479   1.784   3.532   0.245
  758HOH     H2 2480   1.698   3.609   0.147
  759HOH      O 2481   1.146   3.352   1.258
  759HOH     H1 2482   1.079   3.317   1.317
  759HOH     H2 2483   1.203   3.278   1.241
  760HOH      O 2484   2.724   3.846   3.714
  760HOH     H1 2485   2.709   3.882   3.626
  760HOH     H2 2486   2.636   3.822   3.745
  761HOH      O 2487   3.843   3.027   3.428
  761HOH     H1 2488   3.846   2.969   3.352
  761HOH     H2 2489   3.805   3.108   3.394
  762HOH      O 2490   3.574   0.337   1.587
  762HOH     H1 2491   3.545   0.328   1.678
  762HOH     H2 2492   3.532   0.263   1.542
  763HOH      O 2493   2.629   2.753   2.457
  763HOH     H1 2494   2.632   2.841   2.494
  763HOH     H2 2495   2.714   2.715   2.478
  764HOH      O 2496   0.586   1.822   3.779
  764HOH     H1 2497   0.594   1.764   3.855
  764HOH     H2 2498   0.510   1.789   3.731
  765HOH      O 2499   2.081   2.119   1.422
  765HOH     H1 2500   2.085   2.078   1.508
  765HOH     H2 2501   2.172   2.129   1.396
  766HOH      O 2502   2.909   2.200   2.932
  766HOH     H1 2503   2.836   2.212   2.993
  766HOH     H2 2504   2.981   2.170   2.986
  767HOH      O 2505   2.393   2.160   0.487
  767HOH     H1 2506   2.359   2.140   0.575
  767HOH     H2 2507   2.400   2.074   0.445
  768HOH      O 2508   3.795   0.545   0.962
  768HOH     H1 2509   3.827   0.623   0.917
  768HOH     H2 2510   3.870   0.485   0.960
  769HOH      O 2511   1.047   1.348   0.888
  769HOH     H1 2512   1.076   1.281   0.949
  769HOH     H2 2513   1.089   1.429   0.919
  770HOH      O 2514   2.931   0.512   0.392
  770HOH     H1 2515   2.986   0.464   0.330
  770HOH     H2 2516   2.944   0.467   0.475
  771HOH      O 2517   0.795   1.116   0.805
  771HOH     H1 2518   0.824   1.056   0.874
  771HOH     H2 2519   0.765   1.059   0.734
  772HOH      O 2520   3.946   1.625   1.340
  772HOH     H1 2521   3.990   1.684   1.401
  772HOH     H2 2522   4.015   1.568   1.307
  773HOH      O 2523   0.173   0.457   3.288
  773HOH     H1 2524   0.187   0.363   3.278
  773HOH     H2 2525   0.129   0.484   3.207
  774HOH      O 2526   3.095   3.784   4.041
  774HOH     H1 2527   3.035   3.731   3.988
  774HOH     H2 2528   3.154   3.823   3.977
  775HOH      O 2529   0.801   1.952   0.129
  775HOH     H1 2530   0.747   1.988   0.057
  775HOH     H2 2531   0.806   2.024   0.192
  776HOH      O 2532   2.961   0.381   2.186
  776HOH     H1 2533   2.884   0.371   2.130
  776HOH     H2 2534   3.009   0.454   2.147
  777HOH      O 2535   1.114   1.650   0.675
  777HOH     H1 2536   1.102   1.573   0.619
  777HOH     H2 2537   1.208   1.649   0.696
  778HOH      O 2538   2.672   1.690   2.942
  778HOH     H1 2539   2.671   1.694   2.846
  778HOH     H2 2540   2.760   1.659   2.964
  779HOH      O 2541   1.027   2.308   2.535
  779HOH     H1 2542   0.988   2.244   2.475
  779HOH     H2 2543   1.106   2.338   2.491
  780HOH      O 2544   2.427   0.395   1.808
  780HOH     H1 2545   2.437   0.385   1.903
  780HOH     H2 2546   2.516   0.401   1.775
  781HOH      O 2547   2.008   2.732   3.676
  781HOH     H1 2548   2.097   2.743   3.643
  781HOH     H2 2549   2.004   2.789   3.753
  782HOH      O 2550   2.985   0.053   0.493
  782HOH     H1 2551   2.989   0.014   0.406
  782HOH     H2 2552   3.014   0.144   0.479
  783HOH      O 2553   1.816   0.097   0.294
  783HOH     H1 2554   1.822   0.164   0.227
  783HOH     H2 2555   1.730   0.111   0.335
  784HOH      O 2556   2.064   3.178   1.237
  784HOH     H1 2557   2.007   3.239   1.283
  784HOH     H2 2558   2.148   3.183   1.283
  785HOH      O 2559   0.730   1.050   3.890
  785HOH     H1 2560   0.813   1.096   3.900
  785HOH     H2 2561   0.705   1.067   3.799
  786HOH      O 2562   0.273   0.837   2.730
  786HOH     H1 2563   0.254   0.830   2.823
  786HOH     H2 2564   0.369   0.838   2.725
  787HOH      O 2565   1.764   2.404   2.663
  787HOH     H1 2566   1.856   2.405   2.687
  787HOH     H2 2567   1.735   2.316   2.685
  788HOH      O 2568   1.780   1.899   3.157
  788HOH     H1 2569   1.718   1.919   3.087
  788HOH     H2 2570   1.733   1.840   3.216
  789HOH      O 2571   0.823   3.010   1.442
  789HOH     H1 2572   0.867   3.034   1.524
  789HOH     H2 2573   0.752   2.952   1.469
  790HOH      O 2574   1.498   1.154   1.206
  790HOH     H1 2575   1.547   1.224   1.249
  790HOH     H2 2576   1.491   1.181   1.115
  791HOH      O 2577   3.711   0.956   1.025
  791HOH     H1 2578   3.711   0.965   0.930
  791HOH     H2 2579   3.638   0.896   1.043
  792HOH      O 2580   1.459   2.966   1.451
  792HOH     H1 2581   1.496   2.930   1.371
  792HOH     H2 2582   1.449   2.890   1.509
  793HOH      O 2583   1.878   0.777   0.409
  793HOH     H1 2584   1.959   0.815   0.443
  793HOH     H2 2585   1.892   0.682   0.415
  794HOH      O 2586   0.023   0.631   0.566
  794HOH     H1 2587   0.052   0.593   0.649
  794HOH     H2 2588   0.098   0.684   0.538
  795HOH      O 2589   0.189   0.119   1.359
  795HOH     H1 2590   0.224   0.030   1.354
  795HOH     H2 2591   0.094   0.108   1.365
  796HOH      O 2592   0.629   0.674   2.358
  796HOH     H1 2593   0.597   0.627   2.281
  796HOH     H2 2594   0.723   0.683   2.343
  797HOH      O 2595   3.076   1.600   0.909
  797HOH     H1 2596   3.055   1.642   0.825
  797HOH     H2 2597   3.069   1.506   0.891
  798HOH      O 2598   1.098   3.326   2.309
  798HOH     H1 2599   1.150   3.363   2.381
  798HOH     H2 2600   1.097   3.394   2.242
  799HOH      O 2601   0.083   1.780   0.622
  799HOH     H1 2602   0.109   1.818   0.706
  799HOH     H2 2603  -0.012   1.785   0.622
  800HOH      O 2604   3.780   0.102   1.753
  800HOH     H1 2605   3.834   0.176   1.781
  800HOH     H2 2606   3.731   0.077   1.831
  801HOH      O 2607   1.974   3.467   2.142
  801HOH     H1 2608   1.999   3.388   2.093
  801HOH     H2 2609   2.032   3.535   2.108
  802HOH      O 2610   1.162   0.969   2.957
  802HOH     H1 2611   1.216   0.945   2.882
  802HOH     H2 2612   1.221   0.966   3.032
  803HOH      O 2613   0.313   2.920   3.351
  803HOH     H1 2614   0.251   2.899   3.281
  803HOH     H2 2615   0.274   2.995   3.396
  804HOH      O 2616   0.602   0.655   3.284
  804HOH     H1 2617   0.550   0.581   3.253
  804HOH     H2 2618   0.549   0.732   3.264
  805HOH      O 2619   2.410   3.894   1.523
  805HOH     H1 2620   2.464   3.895   1.602
  805HOH     H2 2621   2.466   3.933   1.456
  806HOH      O 2622   0.506   0.548   2.159
  806HOH     H1 2623   0.473   0.459   2.150
  806HOH     H2 2624   0.523   0.576   2.069
  807HOH      O 2625   1.172   3.248   0.071
  807HOH     H1 2626   1.197   3.157   0.088
  807HOH     H2 2627   1.205   3.296   0.147
  808HOH      O 2628   2.276   1.501   2.569
  808HOH     H1 2629   2.280   1.487   2.474
  808HOH     H2 2630   2.236   1.587   2.578
  809HOH      O 2631   3.903   0.422   2.849
  809HOH     H1 2632   3.848   0.370   2.789
  809HOH     H2 2633   3.865   0.510   2.845
  810HOH      O 2634   1.311   1.317   0.510
  810HOH     H1 2635   1.322   1.268   0.429
  810HOH     H2 2636   1.319   1.409   0.484
  811HOH      O 2637   0.463   0.968   1.833
  811HOH     H1 2638   0.394   1.004   1.888
  811HOH     H2 2639   0.419   0.938   1.753
  812HOH      O 2640   1.949   3.407   1.380
  812HOH     H1 2641   1.972   3.482   1.326
  812HOH     H2 2642   2.032   3.377   1.417
  813HOH      O 2643   0.685   0.073   3.995
  813HOH     H1 2644   0.622   0.117   3.939
  813HOH     H2 2645   0.770   0.089   3.952
  814HOH      O 2646   3.433   0.553   3.388
  814HOH     H1 2647   3.491   0.486   3.353
  814HOH     H2 2648   3.490   0.627   3.407
  815HOH      O 2649   0.906   0.671   3.875
  815HOH     H1 2650   0.999   0.651   3.884
  815HOH     H2 2651   0.894   0.686   3.781
  816HOH      O 2652   3.645   2.974   2.409
  816HOH     H1 2653   3.717   2.914   2.392
  816HOH     H2 2654   3.599   2.937   2.484
  817HOH      O 2655   3.428   1.476   2.698
  817HOH     H1 2656   3.476   1.551   2.732
  817HOH     H2 2657   3.337   1.506   2.691
  818HOH      O 2658   0.713   1.358   1.238
  818HOH     H1 2659   0.795   1.318   1.209
  818HOH     H2 2660   0.647   1.289   1.226
  819HOH      O 2661   3.063   1.476   1.239
  819HOH     H1 2662   3.019   1.528   1.172
  819HOH     H2 2663   3.156   1.493   1.225
  820HOH      O 2664   2.334   2.171   1.342
  820HOH     H1 2665   2.425   2.154   1.368
  820HOH     H2 2666   2.332   2.266   1.326
  821HOH      O 2667   2.202   2.735   0.691
  821HOH     H1 2668   2.119   2.751   0.648
  821HOH     H2 2669   2.246   2.672   0.634
  822HOH      O 2670   0.897   1.318   3.749
  822HOH     H1 2671   0.931   1.403   3.777
  822HOH     H2 2672   0.885   1.269   3.831
  823HOH      O 2673   0.766   3.397   3.505
  823HOH     H1 2674   0.827   3.398   3.431
  823HOH     H2 2675   0.784   3.479   3.552
  824HOH      O 2676   2.177   1.337   1.391
  824HOH     H1 2677   2.251   1.280   1.410
  824HOH     H2 2678   2.166   1.331   1.296
  825HOH      O 2679   2.012   1.718   1.332
  825HOH     H1 2680   1.971   1.719   1.245
  825HOH     H2 2681   2.087   1.777   1.323
  826HOH      O 2682   1.161   1.936   2.631
  826HOH     H1 2683   1.072   1.914   2.604
  826HOH     H2 2684   1.184   2.012   2.577
  827HOH      O 2685   1.262   4.013   1.859
  827HOH     H1 2686   1.173   3.990   1.831
  827HOH     H2 2687   1.285   4.088   1.805
  828HOH      O 2688   0.341   2.008   0.416
  828HOH     H1 2689   0.398   1.978   0.344
  828HOH     H2 2690   0.255   1.970   0.395
  829HOH      O 2691   2.391   1.789   2.832
  829HOH     H1 2692   2.460   1.723   2.820
  829HOH     H2 2693   2.405   1.823   2.920
  830HOH      O 2694   3.841   3.858   2.344
  830HOH     H1 2695   3.837   3.798   2.270
  830HOH     H2 2696   3.843   3.945   2.304
  831HOH      O 2697   3.719   0.095   3.426
  831HOH     H1 2698   3.703   0.069   3.516
  831HOH     H2 2699   3.692   0.019   3.374
  832HOH      O 2700   0.543   0.185   3.783
  832HOH     H1 2701   0.494   0.161   3.704
  832HOH     H2 2702   0.537   0.280   3.788
  833HOH      O 2703   2.056   3.124   0.324
  833HOH     H1 2704   2.084   3.215   0.329
  833HOH     H2 2705   2.104   3.081   0.395
  834HOH      O 2706   3.350   0.046   2.208
  834HOH     H1 2707   3.257   0.047   2.183
  834HOH     H2 2708   3.353  -0.009   2.286
  835HOH      O 2709   3.463   1.112   3.365
  835HOH     H1 2710   3.421   1.130   3.281
  835HOH     H2 2711   3.523   1.187   3.377
  836HOH      O 2712   0.133   2.403   1.495
  836HOH     H1 2713   0.109   2.495   1.490
  836HOH     H2 2714   0.094   2.364   1.417
  837HOH      O 2715   0.342   1.925   1.022
  837HOH     H1 2716   0.342   1.849   1.081
  837HOH     H2 2717   0.394   1.990   1.068
  838HOH      O 2718   0.850   3.404   1.395
  838HOH     H1 2719   0.855   3.400   1.490
  838HOH     H2 2720   0.784   3.339   1.372
  839HOH      O 2721   2.585   0.169   3.130
  839HOH     H1 2722   2.528   0.235   3.091
  839HOH     H2 2723   2.651   0.220   3.177
  840HOH      O 2724   1.537   0.476   0.072
  840HOH     H1 2725   1.489   0.456   0.152
  840HOH     H2 2726   1.567   0.566   0.084
  841HOH      O 2727   1.779   3.343   3.604
  841HOH     H1 2728   1.757   3.338   3.697
  841HOH     H2 2729   1.812   3.256   3.583
  842HOH      O 2730   1.338   2.292   1.561
  842HOH     H1 2731   1.430   2.294   1.588
  842HOH     H2 2732   1.289   2.306   1.642
  843HOH      O 2733   0.458   2.332   1.039
  843HOH     H1 2734   0.452   2.408   0.982
  843HOH     H2 2735   0.508   2.268   0.988
  844HOH      O 2736   1.656   2.678   1.399
  844HOH     H1 2737   1.659   2.627   1.318
  844HOH     H2 2738   1.581   2.643   1.446
  845HOH      O 2739   4.018   1.602   1.646
  845HOH     H1 2740   4.110   1.620   1.663
  845HOH     H2 2741   3.972   1.640   1.720
  846HOH      O 2742   1.633   3.662   3.092
  846HOH     H1 2743   1.716   3.669   3.139
  846HOH     H2 2744   1.651   3.703   3.007
  847HOH      O 2745   0.487   0.930   3.300
  847HOH     H1 2746   0.466   1.019   3.328
  847HOH     H2 2747   0.571   0.938   3.255
  848HOH      O 2748   1.166   2.569   0.415
  848HOH     H1 2749   1.238   2.608   0.365
  848HOH     H2 2750   1.091   2.626   0.398
  849HOH      O 2751   1.903   1.756   0.913
  849HOH     H1 2752   1.834   1.689   0.917
  849HOH     H2 2753   1.865   1.831   0.960
  850HOH      O 2754   0.974   2.762   3.176
  850HOH     H1 2755   1.022   2.812   3.110
  850HOH     H2 2756   1.029   2.686   3.192
  851HOH      O 2757   1.295   1.187   0.770
  851HOH     H1 2758   1.308   1.261   0.711
  851HOH     H2 2759   1.202   1.164   0.760
  852HOH      O 2760   1.171   0.454   0.068
  852HOH     H1 2761   1.180   0.461  -0.027
  852HOH     H2 2762   1.123   0.373   0.082
  853HOH      O 2763   2.130   3.588   1.943
  853HOH     H1 2764   2.129   3.574   1.848
  853HOH     H2 2765   2.220   3.568   1.969
  854HOH      O 2766   3.772   2.967   1.570
  854HOH     H1 2767   3.825   2.908   1.516
  854HOH     H2 2768   3.695   2.915   1.593
  855HOH      O 2769   3.270   0.553   0.393
  855HOH     H1 2770   3.207   0.503   0.342
  855HOH     H2 2771   3.336   0.490   0.421
  856HOH      O 2772   1.316   2.658   1.977
  856HOH     H1 2773   1.412   2.654   1.977
  856HOH     H2 2774   1.293   2.696   2.062
  857HOH      O 2775   2.336   3.996   2.503
  857HOH     H1 2776   2.313   3.917   2.551
  857HOH     H2 2777   2.336   3.970   2.411
  858HOH      O 2778   1.440   3.342   0.785
  858HOH     H1 2779   1.492   3.367   0.862
  858HOH     H2 2780   1.499   3.354   0.711
  859HOH      O 2781   2.725   3.898   0.050
  859HOH     H1 2782   2.801   3.909   0.108
  859HOH     H2 2783   2.726   3.805   0.027
  860HOH      O 2784   1.534   0.306   3.111
  860HOH     H1 2785   1.527   0.254   3.031
  860HOH     H2 2786   1.491   0.252   3.178
  861HOH      O 2787   2.134   1.820   2.749
  861HOH     H1 2788   2.071   1.795   2.816
  861HOH     H2 2789   2.219   1.800   2.787
  862HOH      O 2790   4.026   1.102   2.035
  862HOH     H1 2791   3.949   1.050   2.060
  862HOH     H2 2792   4.007   1.190   2.068
  863HOH      O 2793   0.202   0.683   1.917
  863HOH     H1 2794   0.186   0.631   1.995
  863HOH     H2 2795   0.212   0.773   1.950
  864HOH      O 2796   0.924   1.982   0.810
  864HOH     H1 2797   1.010   1.994   0.771
  864HOH     H2 2798   0.913   2.057   0.868
  865HOH      O 2799   3.982   3.548   1.810
  865HOH     H1 2800   4.040   3.472   1.819
  865HOH     H2 2801   4.026   3.604   1.746
  866HOH      O 2802   2.751   0.566   0.209
  866HOH     H1 2803   2.821   0.543   0.270
  866HOH     H2 2804   2.700   0.632   0.255
  867HOH      O 2805   1.255   2.663   3.769
  867HOH     H1 2806   1.259   2.671   3.865
  867HOH     H2 2807   1.264   2.569   3.753
  868HOH      O 2808   1.413   0.959   0.837
  868HOH     H1 2809   1.345   0.939   0.901
  868HOH     H2 2810   1.384   1.039   0.795
  869HOH      O 2811   0.015   2.568   3.788
  869HOH     H1 2812   0.007   2.581   3.694
  869HOH     H2 2813   0.075   2.494   3.797
  870HOH      O 2814   2.203   0.247   0.491
  870HOH     H1 2815   2.199   0.333   0.448
  870HOH     H2 2816   2.282   0.207   0.456
  871HOH      O 2817   3.153   0.934   0.472
  871HOH     H1 2818   3.076   0.989   0.459
  871HOH     H2 2819   3.146   0.904   0.563
  872HOH      O 2820   3.156   0.974   2.059
  872HOH     H1 2821   3.220   0.963   2.129
  872HOH     H2 2822   3.207   0.969   1.978
  873HOH      O 2823   1.905   0.458   2.991
  873HOH     H1 2824   1.886   0.420   3.077
  873HOH     H2 2825   1.982   0.512   3.006
  874HOH      O 2826   1.771   1.138   1.060
  874HOH     H1 2827   1.859   1.119   1.027
  874HOH     H2 2828   1.717   1.064   1.032
  875HOH      O 2829   1.374   0.661   3.574
  875HOH     H1 2830   1.428   0.672   3.651
  875HOH     H2 2831   1.362   0.566   3.565
  876HOH      O 2832   0.777   2.747   1.828
  876HOH     H1 2833   0.801   2.816   1.889
  876HOH     H2 2834   0.706   2.699   1.872
  877HOH      O 2835   2.235   3.097   3.201
  877HOH     H1 2836   2.155   3.061   3.163
  877HOH     H2 2837   2.240   3.058   3.288
  878HOH      O 2838   0.667   3.138   2.779
  878HOH     H1 2839   0.579   3.107   2.754
  878HOH     H2 2840   0.666   3.136   2.875
  879HOH      O 2841   1.582   3.783   2.647
  879HOH     H1 2842   1.596   3.831   2.566
  879HOH     H2 2843   1.545   3.699   2.619
  880HOH      O 2844   2.360   1.887   0.565
  880HOH     H1 2845   2.344   1.807   0.615
  880HOH     H2 2846   2.430   1.863   0.503
  881HOH      O 2847   2.585   0.272   0.012
  881HOH     H1 2848   2.593   0.177   0.025
  881HOH     H2 2849   2.503   0.295   0.056
  882HOH      O 2850   0.915   3.657   1.240
  882HOH     H1 2851   0.998   3.649   1.194
  882HOH     H2 2852   0.908   3.576   1.292
  883HOH      O 2853   3.814   0.342   0.087
  883HOH     H1 2854   3.889   0.357   0.146
  883HOH     H2 2855   3.849   0.285   0.018
  884HOH      O 2856   2.397   1.713   0.216
  884HOH     H1 2857   2.418   1.765   0.138
  884HOH     H2 2858   2.303   1.727   0.229
  885HOH      O 2859   1.627   2.153   1.348
  885HOH     H1 2860   1.669   2.116   1.271
  885HOH     H2 2861   1.552   2.096   1.364
  886HOH      O 2862   1.174   3.638   0.567
  886HOH     H1 2863   1.191   3.598   0.652
  886HOH     H2 2864   1.079   3.633   0.557
  887HOH      O 2865   0.353   0.810   1.246
  887HOH     H1 2866   0.265   0.804   1.283
  887HOH     H2 2867   0.339   0.830   1.153
  888HOH      O 2868   0.974   3.529   0.147
  888HOH     H1 2869   0.996   3.445   0.107
  888HOH     H2 2870   0.900   3.509   0.204
  889HOH      O 2871   0.528   0.333   3.465
  889HOH     H1 2872   0.480   0.415   3.472
  889HOH     H2 2873   0.466   0.266   3.494
  890HOH      O 2874   0.284   1.691   1.758
  890HOH     H1 2875   0.287   1.717   1.850
  890HOH     H2 2876   0.254   1.600   1.760
  891HOH      O 2877   3.535   1.639   1.282
  891HOH     H1 2878   3.563   1.731   1.292
  891HOH     H2 2879   3.617   1.591   1.273
  892HOH      O 2880   0.394   1.400   3.079
  892HOH     H1 2881   0.363   1.429   2.993
  892HOH     H2 2882   0.314   1.372   3.125
  893HOH      O 2883   2.599   1.859   1.229
  893HOH     H1 2884   2.606   1.855   1.325
  893HOH     H2 2885   2.517   1.813   1.210
  894HOH      O 2886   3.417   3.631   0.829
  894HOH     H1 2887   3.386   3.619   0.919
  894HOH     H2 2888   3.345   3.598   0.775
  895HOH      O 2889   2.692   2.384   2.564
  895HOH     H1 2890   2.769   2.354   2.612
  895HOH     H2 2891   2.720   2.389   2.473
  896HOH      O 2892   2.014   1.273   1.694
  896HOH     H1 2893   2.055   1.275   1.780
  896HOH     H2 2894   2.055   1.200   1.648
  897HOH      O 2895   3.133   3.107   1.972
  897HOH     H1 2896   3.194   3.151   1.912
  897HOH     H2 2897   3.142   3.014   1.951
  898HOH      O 2898   2.089   1.420   3.597
  898HOH     H1 2899   2.056   1.371   3.522
  898HOH     H2 2900   2.083   1.358   3.670
  899HOH      O 2901   1.951   0.051   0.503
  899HOH     H1 2902   2.023   0.112   0.517
  899HOH     H2 2903   1.912   0.078   0.420
  900HOH      O 2904   0.588   2.470   1.247
  900HOH     H1 2905   0.621   2.398   1.301
  900HOH     H2 2906   0.547   2.428   1.172
  901HOH      O 2907   1.000   0.250   0.830
  901HOH     H1 2908   1.000   0.314   0.758
  901HOH     H2 2909   0.909   0.221   0.835
  902HOH      O 2910   2.406   3.643   2.977
  902HOH     H1 2911   2.328   3.610   2.933
  902HOH     H2 2912   2.460   3.681   2.907
  903HOH      O 2913   1.989   3.918   2.929
  903HOH     H1 2914   2.044   3.975   2.984
  903HOH     H2 2915   1.900   3.949   2.944
  904HOH      O 2916   3.014   3.017   3.605
  904HOH     H1 2917   3.022   2.979   3.693
  904HOH     H2 2918   2.994   2.942   3.549
  905HOH      O 2919   1.195   3.857   0.245
  905HOH     H1 2920   1.265   3.793   0.238
  905HOH     H2 2921   1.118   3.805   0.271
  906HOH      O 2922   1.680   1.544   0.450
  906HOH     H1 2923   1.656   1.628   0.411
  906HOH     H2 2924   1.772   1.554   0.473
  907HOH      O 2925   0.550   0.506   4.043
  907HOH     H1 2926   0.482   0.440   4.054
  907HOH     H2 2927   0.585   0.491   3.955
  908HOH      O 2928   1.163   0.710   0.200
  908HOH     H1 2929   1.246   0.755   0.183
  908HOH     H2 2930   1.164   0.634   0.141
  909HOH      O 2931   0.076   2.888   3.660
  909HOH     H1 2932   0.118   2.802   3.666
  909HOH     H2 2933  -0.012   2.874   3.695
  910HOH      O 2934   1.301   0.093   2.740
  910HOH     H1 2935   1.219   0.125   2.704
  910HOH     H2 2936   1.298   0.117   2.833
  911HOH      O 2937   1.034   3.915   1.748
  911HOH     H1 2938   0.986   3.843   1.789
  911HOH     H2 2939   0.967   3.976   1.718
  912HOH      O 2940   3.775   1.759   0.268
  912HOH     H1 2941   3.748   1.717   0.187
  912HOH     H2 2942   3.695   1.798   0.303
  913HOH      O 2943   0.364   1.653   0.778
  913HOH     H1 2944   0.348   1.679   0.688
  913HOH     H2 2945   0.449   1.610   0.776
  914HOH      O 2946   0.892   3.648   0.601
  914HOH     H1 2947   0.799   3.660   0.582
  914HOH     H2 2948   0.900   3.665   0.695
  915HOH      O 2949   1.209   3.586   3.480
  915HOH     H1 2950   1.229   3.493   3.492
  915HOH     H2 2951   1.294   3.629   3.485
  916HOH      O 2952   2.911   1.130   1.260
  916HOH     H1 2953   2.967   1.202   1.289
  916HOH     H2 2954   2.968   1.072   1.210
  917HOH      O 2955   0.566   1.875   0.894
  917HOH     H1 2956   0.583   1.782   0.882
  917HOH     H2 2957   0.472   1.884   0.881
  918HOH      O 2958   3.544   1.755   2.764
  918HOH     H1 2959   3.467   1.807   2.788
  918HOH     H2 2960   3.570   1.788   2.678
  919HOH      O 2961   2.799   0.923   2.258
  919HOH     H1 2962   2.740   0.941   2.184
  919HOH     H2 2963   2.781   0.993   2.321
  920HOH      O 2964   3.711   0.659   2.352
  920HOH     H1 2965   3.771   0.618   2.414
  920HOH     H2 2966   3.722   0.753   2.367
  921HOH      O 2967   1.128   2.321   1.760
  921HOH     H1 2968   1.157   2.320   1.851
  921HOH     H2 2969   1.046   2.271   1.760
  922HOH      O 2970   1.152   0.650   1.999
  922HOH     H1 2971   1.236   0.645   2.045
  922HOH     H2 2972   1.087   0.658   2.068
  923HOH      O 2973   0.676   0.967   0.606
  923HOH     H1 2974   0.605   0.915   0.568
  923HOH     H2 2975   0.689   1.039   0.545
  924HOH      O 2976   2.932   2.134   0.529
  924HOH     H1 2977   2.978   2.215   0.550
  924HOH     H2 2978   2.845   2.146   0.567
  925HOH      O 2979   1.808   3.343   2.899
  925HOH     H1 2980   1.754   3.335   2.821
  925HOH     H2 2981   1.753   3.312   2.970
  926HOH      O 2982   3.000   3.126   1.433
  926HOH     H1 2983   2.997   3.160   1.522
  926HOH     H2 2984   2.912   3.142   1.399
  927HOH      O 2985   3.884   2.809   3.760
  927HOH     H1 2986   3.898   2.717   3.780
  927HOH     H2 2987   3.861   2.848   3.845
  928HOH      O 2988   1.770   4.025   3.037
  928HOH     H1 2989   1.787   4.079   3.114
  928HOH     H2 2990   1.676   4.006   3.042
  929HOH      O 2991   0.507   2.898   2.919
  929HOH     H1 2992   0.597   2.892   2.951
  929HOH     H2 2993   0.503   2.834   2.849
  930HOH      O 2994   2.958   2.965   0.541
  930HOH     H1 2995   3.028   2.934   0.597
  930HOH     H2 2996   2.978   2.929   0.454
  931HOH      O 2997   0.743   0.809   2.774
  931HOH     H1 2998   0.742   0.725   2.727
  931HOH     H2 2999   0.683   0.865   2.725
  932HOH      O 3000   2.729   3.177   1.350
  932HOH     H1 3001   2.734   3.271   1.335
  932HOH     H2 3002   2.637   3.155   1.333
  933HOH      O 3003   1.388   2.389   3.762
  933HOH     H1 3004   1.339   2.354   3.688
  933HOH     H2 3005   1.448   2.319   3.787
  934HOH      O 3006   0.557   1.595   3.176
  934HOH     H1 3007   0.501   1.520   3.158
  934HOH     H2 3008   0.573   1.590   3.270
  935HOH      O 3009   3.259   3.573   1.079
  935HOH     H1 3010   3.177   3.621   1.066
  935HOH     H2 3011   3.299   3.614   1.156
  936HOH      O 3012   4.027   0.199   3.010
  936HOH     H1 3013   4.021   0.292   2.991
  936HOH     H2 3014   3.937   0.168   3.010
  937HOH      O 3015   2.133   0.337   1.509
  937HOH     H1 3016   2.137   0.381   1.424
  937HOH     H2 3017   2.040   0.315   1.520
  938HOH      O 3018   4.060   0.920   3.039
  938HOH     H1 3019   4.015   1.004   3.037
  938HOH     H2 3020   3.994   0.858   3.070
  939HOH      O 3021   1.122   2.494   2.886
  939HOH     H1 3022   1.178   2.474   2.961
  939HOH     H2 3023   1.110   2.410   2.842
  940HOH      O 3024   1.028   1.862   3.500
  940HOH     H1 3025   1.063   1.775   3.486
  940HOH     H2 3026   1.011   1.896   3.413
  941HOH      O 3027   1.100   1.044   2.482
  941HOH     H1 3028   1.077   1.021   2.572
  941HOH     H2 3029   1.074   1.136   2.474
  942HOH      O 3030   3.554   2.863   3.411
  942HOH     H1 3031   3.598   2.847   3.327
  942HOH     H2 3032   3.527   2.954   3.407
  943HOH      O 3033   2.123   2.709   3.187
  943HOH     H1 3034   2.060   2.644   3.220
  943HOH     H2 3035   2.071   2.788   3.174
  944HOH      O 3036   1.342   0.896   3.157
  944HOH     H1 3037   1.417   0.955   3.148
  944HOH     H2 3038   1.328   0.890   3.252
  945HOH      O 3039   3.881   0.369   3.689
  945HOH     H1 3040   3.962   0.415   3.709
  945HOH     H2 3041   3.899   0.322   3.607
  946HOH      O 3042   2.375   2.641   3.339
  946HOH     H1 3043   2.396   2.560   3.293
  946HOH     H2 3044   2.304   2.680   3.288
  947HOH      O 3045   2.370   3.897   3.101
  947HOH     H1 3046   2.375   3.880   3.195
  947HOH     H2 3047   2.362   3.811   3.061
  948HOH      O 3048   2.343   0.773   3.894
  948HOH     H1 3049   2.266   0.760   3.949
  948HOH     H2 3050   2.387   0.688   3.894
  949HOH      O 3051   1.585   2.635   2.031
  949HOH     H1 3052   1.661   2.683   1.999
  949HOH     H2 3053   1.585   2.650   2.125
  950HOH      O 3054   2.300   1.824   1.283
  950HOH     H1 3055   2.315   1.811   1.377
  950HOH     H2 3056   2.321   1.739   1.244
  951HOH      O 3057   3.634   2.276   0.931
  951HOH     H1 3058   3.655   2.246   0.843
  951HOH     H2 3059   3.538   2.279   0.933
  952HOH      O 3060   0.984   3.650   3.926
  952HOH     H1 3061   1.045   3.576   3.923
  952HOH     H2 3062   0.980   3.674   4.018
  953HOH      O 3063   2.785   1.948   2.695
  953HOH     H1 3064   2.704   1.999   2.693
  953HOH     H2 3065   2.757   1.857   2.685
  954HOH      O 3066   3.208   3.479   2.096
  954HOH     H1 3067   3.261   3.537   2.152
  954HOH     H2 3068   3.272   3.436   2.039
  955HOH      O 3069   1.514   3.524   3.553
  955HOH     H1 3070   1.569   3.594   3.588
  955HOH     H2 3071   1.573   3.449   3.544
  956HOH      O 3072   0.338   3.827   3.515
  956HOH     H1 3073   0.314   3.785   3.598
  956HOH     H2 3074   0.416   3.879   3.536
  957HOH      O 3075   1.332   0.067   0.334
  957HOH     H1 3076   1.281   0.138   0.295
  957HOH     H2 3077   1.286   0.046   0.415
  958HOH      O 3078   1.690   0.314   0.665
  958HOH     H1 3079   1.650   0.295   0.580
  958HOH     H2 3080   1.708   0.228   0.703
  959HOH      O 3081   3.806   1.065   2.815
  959HOH     H1 3082   3.760   1.060   2.731
  959HOH     H2 3083   3.854   1.148   2.812
  960HOH      O 3084   0.107   1.637   3.500
  960HOH     H1 3085   0.135   1.719   3.460
  960HOH     H2 3086   0.181   1.610   3.555
  961HOH      O 3087   3.029   0.085   3.136
  961HOH     H1 3088   2.949   0.057   3.181
  961HOH     H2 3089   3.056   0.009   3.085
  962HOH      O 3090   2.310   2.874   1.317
  962HOH     H1 3091   2.294   2.966   1.341
  962HOH     H2 3092   2.234   2.827   1.351
  963HOH      O 3093   2.515   2.699   0.210
  963HOH     H1 3094   2.561   2.618   0.190
  963HOH     H2 3095   2.439   2.699   0.152
  964HOH      O 3096   3.775   2.795   2.754
  964HOH     H1 3097   3.711   2.828   2.691
  964HOH     H2 3098   3.841   2.752   2.700
  965HOH      O 3099   2.474   1.340   3.378
  965HOH     H1 3100   2.426   1.422   3.370
  965HOH     H2 3101   2.407   1.272   3.378
  966HOH      O 3102   3.440   1.283   1.472
  966HOH     H1 3103   3.439   1.366   1.520
  966HOH     H2 3104   3.531   1.269   1.449
  967HOH      O 3105   3.452   1.995   2.547
  967HOH     H1 3106   3.366   2.002   2.589
  967HOH     H2 3107   3.451   2.062   2.479
  968HOH      O 3108   2.421   1.202   1.402
  968HOH     H1 3109   2.511   1.235   1.408
  968HOH     H2 3110   2.403   1.164   1.488
  969HOH      O 3111   0.978   1.949   3.232
  969HOH     H1 3112   0.948   1.980   3.146
  969HOH     H2 3113   1.023   1.867   3.214
  970HOH      O 3114   2.113   1.073   1.181
  970HOH     H1 3115   2.039   1.105   1.233
  970HOH     H2 3116   2.143   0.995   1.227
  971HOH      O 3117   0.511   3.010   1.807
  971HOH     H1 3118   0.541   2.958   1.732
  971HOH     H2 3119   0.528   2.955   1.883
  972HOH      O 3120   0.232   2.205   0.783
  972HOH     H1 3121   0.314   2.193   0.735
  972HOH     H2 3122   0.179   2.262   0.727
  973HOH      O 3123   3.387   0.789   0.376
  973HOH     H1 3124   3.324   0.718   0.362
  973HOH     H2 3125   3.342   0.849   0.435
  974HOH      O 3126   3.271   1.117   3.135
  974HOH     H1 3127   3.335   1.177   3.096
  974HOH     H2 3128   3.187   1.160   3.124
  975HOH      O 3129   3.518   3.389   3.876
  975HOH     H1 3130   3.427   3.389   3.846
  975HOH     H2 3131   3.526   3.468   3.930
  976HOH      O 3132   3.227   2.831   0.535
  976HOH     H1 3133   3.282   2.846   0.457
  976HOH     H2 3134   3.285   2.851   0.609
  977HOH      O 3135   0.459   3.549   3.572
  977HOH     H1 3136   0.501   3.467   3.598
  977HOH     H2 3137   0.530   3.601   3.532
  978HOH      O 3138   0.220   2.009   1.607
  978HOH     H1 3139   0.277   2.024   1.683
  978HOH     H2 3140   0.255   2.067   1.539
  979HOH      O 3141   3.838   3.807   3.831
  979HOH     H1 3142   3.853   3.841   3.744
  979HOH     H2 3143   3.880   3.869   3.890
  980HOH      O 3144   3.031   1.352   0.454
  980HOH     H1 3145   3.121   1.325   0.473
  980HOH     H2 3146   2.999   1.289   0.390
  981HOH      O 3147   2.810   3.138   0.211
  981HOH     H1 3148   2.773   3.078   0.146
  981HOH     H2 3149   2.798   3.093   0.295
  982HOH      O 3150   3.332   1.479   1.166
  982HOH     H1 3151   3.381   1.526   1.233
  982HOH     H2 3152   3.376   1.502   1.084
  983HOH      O 3153   0.639   1.410   2.252
  983HOH     H1 3154   0.655   1.438   2.342
  983HOH     H2 3155   0.684   1.475   2.198
  984HOH      O 3156   3.065   0.113   2.201
  984HOH     H1 3157   3.019   0.197   2.196
  984HOH     H2 3158   3.075   0.086   2.110
  985HOH      O 3159   1.897   3.994   3.741
  985HOH     H1 3160   1.860   4.082   3.741
  985HOH     H2 3161   1.892   3.965   3.650
  986HOH      O 3162   2.664   0.464   3.875
  986HOH     H1 3163   2.681   0.413   3.796
  986HOH     H2 3164   2.677   0.403   3.947
  987HOH      O 3165   2.128   3.451   0.676
  987HOH     H1 3166   2.217   3.420   0.658
  987HOH     H2 3167   2.136   3.546   0.683
  988HOH      O 3168   2.496   2.487   1.589
  988HOH     H1 3169   2.578   2.519   1.627
  988HOH     H2 3170   2.520   2.405   1.547
  989HOH      O 3171   3.599   3.594  -0.014
  989HOH     H1 3172   3.691   3.568  -0.010
  989HOH     H2 3173   3.589   3.660   0.054
  990HOH      O 3174   3.415   1.821   3.205
  990HOH     H1 3175   3.480   1.890   3.192
  990HOH     H2 3176   3.335   1.867   3.230
  991HOH      O 3177   2.006   3.934   0.177
  991HOH     H1 3178   1.947   4.010   0.169
  991HOH     H2 3179   1.947   3.859   0.175
  992HOH      O 3180   0.819   0.861   1.748
  992HOH     H1 3181   0.774   0.895   1.825
  992HOH     H2 3182   0.802   0.926   1.680
  993HOH      O 3183   1.991   0.287   3.886
  993HOH     H1 3184   2.073   0.301   3.837
  993HOH     H2 3185   1.960   0.375   3.906
  994HOH      O 3186   2.072   0.656   1.603
  994HOH     H1 3187   2.032   0.575   1.573
  994HOH     H2 3188   2.000   0.718   1.609
  995HOH      O 3189   2.164   3.225   3.620
  995HOH     H1 3190   2.131   3.291   3.681
  995HOH     H2 3191   2.208   3.161   3.676
  996HOH      O 3192   0.920   3.359   3.290
  996HOH     H1 3193   0.881   3.322   3.211
  996HOH     H2 3194   1.011   3.379   3.265
  997HOH      O 3195   1.249   3.094   2.045
  997HOH     H1 3196   1.253   3.045   1.963
  997HOH     H2 3197   1.248   3.186   2.017
  998HOH      O 3198   3.767   3.966   2.773
  998HOH     H1 3199   3.684   3.980   2.817
  998HOH     H2 3200   3.824   3.927   2.839
  999HOH      O 3201   2.733   3.276   3.890
  999HOH     H1 3202   2.727   3.195   3.839
  999HOH     H2 3203   2.694   3.343   3.834
 1000HOH      O 3204   1.412   0.956   2.791
 1000HOH     H1 3205   1.375   0.918   2.711
 1000HOH     H2 3206   1.471   0.888   2.824
 1001HOH      O 3207   2.013   3.979   2.091
 1001HOH     H1 3208   1.942   4.025   2.134
 1001HOH     H2 3209   1.982   3.965   2.001
 1002HOH      O 3210   0.977   0.351   2.686
 1002HOH     H1 3211   0.901   0.320   2.734
 1002HOH     H2 3212   1.023   0.271   2.659
 1003HOH      O 3213   1.003   1.403   0.550
 1003HOH     H1 3214   0.942   1.343   0.594
 1003HOH     H2 3215   1.086   1.355   0.549
 1004HOH      O 3216   2.013   2.419   1.415
 1004HOH     H1 3217   1.923   2.397   1.437
 1004HOH     H2 3218   2.047   2.340   1.373
 1005HOH      O 3219   2.166   2.632   1.349
 1005HOH     H1 3220   2.103   2.565   1.376
 1005HOH     H2 3221   2.237   2.583   1.308
 1006HOH      O 3222   0.762   3.183   3.133
 1006HOH     H1 3223   0.680   3.149   3.100
 1006HOH     H2 3224   0.753   3.182   3.228
 1007HOH      O 3225   3.864   0.483   3.257
 1007HOH     H1 3226   3.931   0.416   3.247
 1007HOH     H2 3227   3.828   0.468   3.344
 1008HOH      O 3228   2.473   0.850   2.457
 1008HOH     H1 3229   2.552   0.800   2.437
 1008HOH     H2 3230   2.505   0.931   2.497
 1009HOH      O 3231   0.545   1.878   2.229
 1009HOH     H1 3232   0.548   1.974   2.230
 1009HOH     H2 3233   0.541   1.853   2.321
 1010HOH      O 3234   3.992   3.912  -0.000
 1010HOH     H1 3235   4.070   3.875  -0.041
 1010HOH     H2 3236   4.022   3.947   0.084
 1011HOH      O 3237   2.406   0.098   0.846
 1011HOH     H1 3238   2.476   0.043   0.812
 1011HOH     H2 3239   2.383   0.060   0.931
 1012HOH      O 3240   1.450   2.444   2.624
 1012HOH     H1 3241   1.442   2.480   2.713
 1012HOH     H2 3242   1.544   2.443   2.607
 1013HOH      O 3243   3.429   1.331   1.851
 1013HOH     H1 3244   3.385   1.281   1.919
 1013HOH     H2 3245   3.414   1.281   1.771
 1014HOH      O 3246   2.521   2.771   2.729
 1014HOH     H1 3247   2.515   2.808   2.640
 1014HOH     H2 3248   2.446   2.807   2.775
 1015HOH      O 3249   1.084   2.468   1.255
 1015HOH     H1 3250   1.070   2.397   1.318
 1015HOH     H2 3251   1.172   2.453   1.221
 1016HOH      O 3252   1.050   3.743   3.331
 1016HOH     H1 3253   1.088   3.671   3.380
 1016HOH     H2 3254   0.992   3.786   3.393
 1017HOH      O 3255   1.637   1.852   1.771
 1017HOH     H1 3256   1.718   1.810   1.799
 1017HOH     H2 3257   1.572   1.782   1.771
 1018HOH      O 3258   3.191   0.916   0.782
 1018HOH     H1 3259   3.286   0.915   0.774
 1018HOH     H2 3260   3.166   0.824   0.777
 1019HOH      O 3261   1.150   0.649   0.944
 1019HOH     H1 3262   1.241   0.651   0.916
 1019HOH     H2 3263   1.112   0.573   0.898
 1020HOH      O 3264   1.722   0.696   1.155
 1020HOH     H1 3265   1.645   0.647   1.124
 1020HOH     H2 3266   1.693   0.787   1.158
 1021HOH      O 3267   3.989   0.877   1.834
 1021HOH     H1 3268   3.940   0.842   1.908
 1021HOH     H2 3269   4.047   0.943   1.871
 1022HOH      O 3270   3.271   2.886   0.959
 1022HOH     H1 3271   3.309   2.872   0.873
 1022HOH     H2 3272   3.344   2.873   1.020
 1023HOH      O 3273   0.927   0.143   3.808
 1023HOH     H1 3274   0.908   0.222   3.756
 1023HOH     H2 3275   0.966   0.082   3.745
 1024HOH      O 3276   2.707   1.749   3.445
 1024HOH     H1 3277   2.743   1.811   3.381
 1024HOH     H2 3278   2.721   1.663   3.405
 1025HOH      O 3279   2.179   0.535   1.858
 1025HOH     H1 3280   2.114   0.602   1.834
 1025HOH     H2 3281   2.240   0.534   1.784
 1026HOH      O 3282   1.360   1.839   2.405
 1026HOH     H1 3283   1.367   1.908   2.339
 1026HOH     H2 3284   1.268   1.812   2.402
 1027HOH      O 3285   0.529   2.759   1.962
 1027HOH     H1 3286   0.463   2.691   1.952
 1027HOH     H2 3287   0.526   2.781   2.055
 1028HOH      O 3288   2.743   1.802   1.878
 1028HOH     H1 3289   2.798   1.881   1.872
 1028HOH     H2 3290   2.701   1.809   1.964
 1029HOH      O 3291   2.890   0.383   1.274
 1029HOH     H1 3292   2.983   0.384   1.249
 1029HOH     H2 3293   2.887   0.431   1.357
 1030HOH      O 3294   2.726   2.800   0.426
 1030HOH     H1 3295   2.768   2.862   0.485
 1030HOH     H2 3296   2.660   2.852   0.380
 1031HOH      O 3297   0.285   3.898   1.371
 1031HOH     H1 3298   0.371   3.910   1.410
 1031HOH     H2 3299   0.274   3.803   1.365
 1032HOH      O 3300   2.271   2.761   3.928
 1032HOH     H1 3301   2.262   2.702   4.003
 1032HOH     H2 3302   2.234   2.711   3.855
 1033HOH      O 3303   2.454   3.095   1.537
 1033HOH     H1 3304   2.517   3.032   1.503
 1033HOH     H2 3305   2.478   3.108   1.628
 1034HOH      O 3306   1.426   1.696   4.045
 1034HOH     H1 3307   1.361   1.626   4.054
 1034HOH     H2 3308   1.498   1.655   3.996
 1035HOH      O 3309   0.470   1.716   0.470
 1035HOH     H1 3310   0.508   1.803   0.455
 1035HOH     H2 3311   0.433   1.691   0.386
 1036HOH      O 3312   3.896   0.502   2.496
 1036HOH     H1 3313   3.984   0.538   2.511
 1036HOH     H2 3314   3.905   0.409   2.518
 1037HOH      O 3315   2.330   1.031   0.975
 1037HOH     H1 3316   2.275   1.071   1.042
 1037HOH     H2 3317   2.415   1.020   1.018
 1038HOH      O 3318   2.818   2.845   3.915
 1038HOH     H1 3319   2.813   2.752   3.936
 1038HOH     H2 3320   2.911   2.859   3.894
 1039HOH      O 3321   0.640   3.337   0.489
 1039HOH     H1 3322   0.572   3.289   0.536
 1039HOH     H2 3323   0.708   3.272   0.472
 1040HOH      O 3324   3.570   0.063   1.272
 1040HOH     H1 3325   3.652   0.015   1.288
 1040HOH     H2 3326   3.580   0.097   1.183
 1041HOH      O 3327   0.284   0.562   2.346
 1041HOH     H1 3328   0.358   0.554   2.285
 1041HOH     H2 3329   0.322   0.543   2.432
 1042HOH      O 3330   0.465   1.517   3.407
 1042HOH     H1 3331   0.391   1.461   3.383
 1042HOH     H2 3332   0.477   1.504   3.501
 1043HOH      O 3333   2.692   1.052   1.824
 1043HOH     H1 3334   2.754   1.080   1.891
 1043HOH     H2 3335   2.611   1.033   1.872
 1044HOH      O 3336   2.469   2.070   2.327
 1044HOH     H1 3337   2.472   2.052   2.421
 1044HOH     H2 3338   2.378   2.093   2.309
 1045HOH      O 3339   1.018   0.667   1.745
 1045HOH     H1 3340   0.937   0.711   1.771
 1045HOH     H2 3341   1.074   0.672   1.822
 1046HOH      O 3342   0.216   3.813   1.751
 1046HOH     H1 3343   0.280   3.851   1.692
 1046HOH     H2 3344   0.132   3.822   1.705
 1047HOH      O 3345   2.981   1.857   0.446
 1047HOH     H1 3346   2.994   1.951   0.459
 1047HOH     H2 3347   2.947   1.849   0.357
 1048HOH      O 3348   2.704   2.531   0.420
 1048HOH     H1 3349   2.719   2.624   0.404
 1048HOH     H2 3350   2.666   2.528   0.508
 1049HOH      O 3351   3.912   3.462   0.720
 1049HOH     H1 3352   3.853   3.397   0.756
 1049HOH     H2 3353   3.993   3.452   0.771
 1050HOH      O 3354   0.093   2.842   0.254
 1050HOH     H1 3355   0.088   2.801   0.168
 1050HOH     H2 3356   0.025   2.800   0.305
 1051HOH      O 3357   2.216   0.166   2.079
 1051HOH     H1 3358   2.281   0.141   2.013
 1051HOH     H2 3359   2.164   0.087   2.092
 1052HOH      O 3360   2.920   0.622   2.864
 1052HOH     H1 3361   2.859   0.556   2.897
 1052HOH     H2 3362   2.894   0.635   2.773
 1053HOH      O 3363   1.747   3.118   0.889
 1053HOH     H1 3364   1.835   3.094   0.916
 1053HOH     H2 3365   1.727   3.197   0.938
 1054HOH      O 3366   3.135   3.810   0.521
 1054HOH     H1 3367   3.112   3.765   0.439
 1054HOH     H2 3368   3.065   3.873   0.533
 1055HOH      O 3369   3.250   0.711   3.882
 1055HOH     H1 3370   3.328   0.664   3.853
 1055HOH     H2 3371   3.275   0.751   3.965
 1056HOH      O 3372   2.428   0.071   1.935
 1056HOH     H1 3373   2.516   0.091   1.968
 1056HOH     H2 3374   2.438   0.069   1.840
 1057HOH      O 3375   1.493   3.567   2.455
 1057HOH     H1 3376   1.479   3.620   2.376
 1057HOH     H2 3377   1.588   3.567   2.467
 1058HOH      O 3378   1.797   3.832   1.306
 1058HOH     H1 3379   1.715   3.800   1.345
 1058HOH     H2 3380   1.865   3.798   1.364
 1059HOH      O 3381   3.121   2.673   3.592
 1059HOH     H1 3382   3.075   2.731   3.531
 1059HOH     H2 3383   3.164   2.609   3.536
 1060HOH      O 3384   1.409   0.582   2.127
 1060HOH     H1 3385   1.436   0.500   2.085
 1060HOH     H2 3386   1.432   0.571   2.219
 1061HOH      O 3387   2.161   3.941   0.899
 1061HOH     H1 3388   2.168   3.990   0.818
 1061HOH     H2 3389   2.085   3.979   0.944
 1062HOH      O 3390  -0.011   0.843   1.567
 1062HOH     H1 3391  -0.008   0.818   1.659
 1062HOH     H2 3392   0.046   0.920   1.561
 1063HOH      O 3393   0.335   2.334   2.281
 1063HOH     H1 3394   0.264   2.276   2.254
 1063HOH     H2 3395   0.353   2.310   2.372
 1064HOH      O 3396   1.476   4.044   3.890
 1064HOH     H1 3397   1.498   3.966   3.839
 1064HOH     H2 3398   1.561   4.080   3.916
 1065HOH      O 3399   0.802   0.820   4.074
 1065HOH     H1 3400   0.833   0.765   4.002
 1065HOH     H2 3401   0.778   0.903   4.033
 1066HOH      O 3402   0.431   1.505   1.165
 1066HOH     H1 3403   0.412   1.457   1.246
 1066HOH     H2 3404   0.363   1.478   1.104
 1067HOH      O 3405   1.173   3.068   1.434
 1067HOH     H1 3406   1.224   3.087   1.514
 1067HOH     H2 3407   1.171   2.972   1.430
 1068HOH      O 3408   1.853   1.943   1.533
 1068HOH     H1 3409   1.880   2.024   1.574
 1068HOH     H2 3410   1.760   1.933   1.557
 1069HOH      O 3411   2.373   2.438   2.018
 1069HOH     H1 3412   2.415   2.483   2.092
 1069HOH     H2 3413   2.439   2.376   1.987
 1070HOH      O 3414   1.358   1.459   2.549
 1070HOH     H1 3415   1.367   1.410   2.631
 1070HOH     H2 3416   1.363   1.392   2.481
 1071HOH      O 3417   1.191   1.594   1.092
 1071HOH     H1 3418   1.111   1.588   1.145
 1071HOH     H2 3419   1.181   1.675   1.042
 1072HOH      O 3420   3.144   2.367   0.242
 1072HOH     H1 3421   3.129   2.323   0.158
 1072HOH     H2 3422   3.074   2.431   0.249
 1073HOH      O 3423   2.542   2.252   1.933
 1073HOH     H1 3424   2.588   2.268   1.851
 1073HOH     H2 3425   2.611   2.239   1.998
 1074HOH      O 3426   1.373   2.912   3.471
 1074HOH     H1 3427   1.314   2.836   3.471
 1074HOH     H2 3428   1.317   2.986   3.492
 1075HOH      O 3429   2.909   1.104   2.027
 1075HOH     H1 3430   2.889   1.137   2.114
 1075HOH     H2 3431   2.990   1.055   2.038
 1076HOH      O 3432   1.332   1.577   0.422
 1076HOH     H1 3433   1.406   1.569   0.361
 1076HOH     H2 3434   1.273   1.640   0.381
 1077HOH      O 3435   3.264   0.128   3.300
 1077HOH     H1 3436   3.314   0.047   3.290
 1077HOH     H2 3437   3.190   0.117   3.241
 1078HOH      O 3438   3.225   1.308   2.866
 1078HOH     H1 3439   3.271   1.236   2.823
 1078HOH     H2 3440   3.148   1.323   2.812
 1079HOH      O 3441   3.840   0.585   1.526
 1079HOH     H1 3442   3.774   0.548   1.468
 1079HOH     H2 3443   3.891   0.644   1.470
 1080HOH      O 3444   1.846   1.679   1.784
 1080HOH     H1 3445   1.897   1.742   1.835
 1080HOH     H2 3446   1.817   1.614   1.847
 1081HOH      O 3447   1.420   0.879   1.637
 1081HOH     H1 3448   1.493   0.818   1.642
 1081HOH     H2 3449   1.355   0.835   1.581
 1082HOH      O 3450   0.286   2.206   2.971
 1082HOH     H1 3451   0.330   2.263   2.908
 1082HOH     H2 3452   0.194   2.212   2.949
 1083HOH      O 3453   1.792   2.842   0.051
 1083HOH     H1 3454   1.732   2.768   0.049
 1083HOH     H2 3455   1.772   2.886   0.134
 1084HOH      O 3456   0.407   2.587   0.898
 1084HOH     H1 3457   0.345   2.608   0.967
 1084HOH     H2 3458   0.487   2.634   0.923
 1085HOH      O 3459   3.634   1.664   3.037
 1085HOH     H1 3460   3.654   1.754   3.065
 1085HOH     H2 3461   3.595   1.675   2.950
 1086HOH      O 3462   3.965   1.564   0.904
 1086HOH     H1 3463   3.911   1.593   0.978
 1086HOH     H2 3464   4.054   1.589   0.929
 1087HOH      O 3465   1.473   2.827   2.755
 1087HOH     H1 3466   1.568   2.837   2.757
 1087HOH     H2 3467   1.440   2.898   2.811
 1088HOH      O 3468   0.688   3.443   3.050
 1088HOH     H1 3469   0.685   3.519   3.109
 1088HOH     H2 3470   0.658   3.370   3.104
 1089HOH      O 3471   1.239   2.236   3.565
 1089HOH     H1 3472   1.186   2.205   3.638
 1089HOH     H2 3473   1.181   2.230   3.489
 1090HOH      O 3474   1.435   3.874   2.003
 1090HOH     H1 3475   1.523   3.896   1.972
 1090HOH     H2 3476   1.377   3.926   1.948
 1091HOH      O 3477   2.559   2.724   3.731
 1091HOH     H1 3478   2.642   2.713   3.684
 1091HOH     H2 3479   2.580   2.707   3.822
 1092HOH      O 3480   1.425   0.798   0.478
 1092HOH     H1 3481   1.384   0.876   0.516
 1092HOH     H2 3482   1.515   0.801   0.509
 1093HOH      O 3483   0.312   1.521   2.193
 1093HOH     H1 3484   0.329   1.610   2.163
 1093HOH     H2 3485   0.293   1.530   2.286
 1094HOH      O 3486   0.873   3.158   0.444
 1094HOH     H1 3487   0.872   3.098   0.518
 1094HOH     H2 3488   0.949   3.131   0.392
 1095HOH      O 3489   3.645   0.285   0.374
 1095HOH     H1 3490   3.660   0.296   0.468
 1095HOH     H2 3491   3.730   0.305   0.334
 1096HOH      O 3492   3.632   2.919   1.156
 1096HOH     H1 3493   3.590   2.998   1.121
 1096HOH     H2 3494   3.589   2.905   1.240
 1097HOH      O 3495   1.582   0.135   3.530
 1097HOH     H1 3496   1.497   0.176   3.539
 1097HOH     H2 3497   1.563   0.042   3.518
 1098HOH      O 3498   3.517   0.408   2.948
 1098HOH     H1 3499   3.580   0.475   2.920
 1098HOH     H2 3500   3.527   0.405   3.043
 1099HOH      O 3501   1.070   1.642   2.203
 1099HOH     H1 3502   1.090   1.549   2.200
 1099HOH     H2 3503   1.040   1.657   2.293
 1100HOH      O 3504   0.238   0.737   3.020
 1100HOH     H1 3505   0.168   0.799   3.040
 1100HOH     H2 3506   0.318   0.783   3.046
 1101HOH      O 3507   1.422   2.029   3.439
 1101HOH     H1 3508   1.438   1.953   3.494
 1101HOH     H2 3509   1.338   2.063   3.469
 1102HOH      O 3510   2.892   1.642   1.127
 1102HOH     H1 3511   2.873   1.729   1.162
 1102HOH     H2 3512   2.953   1.657   1.055
 1103HOH      O 3513   3.607   1.747   2.490
 1103HOH     H1 3514   3.564   1.830   2.468
 1103HOH     H2 3515   3.688   1.748   2.439
 1104HOH      O 3516   1.420   0.673   0.852
 1104HOH     H1 3517   1.493   0.636   0.803
 1104HOH     H2 3518   1.395   0.752   0.803
 1105HOH      O 3519   0.530   2.311   0.395
 1105HOH     H1 3520   0.515   2.353   0.311
 1105HOH     H2 3521   0.549   2.382   0.456
 1106HOH      O 3522   3.663   3.880   2.527
 1106HOH     H1 3523   3.741   3.870   2.474
 1106HOH     H2 3524   3.693   3.868   2.617
 1107HOH      O 3525   0.337   2.628   3.959
 1107HOH     H1 3526   0.402   2.644   4.028
 1107HOH     H2 3527   0.264   2.685   3.982
 1108HOH      O 3528   3.894   0.076   2.593
 1108HOH     H1 3529   3.842   0.025   2.656
 1108HOH     H2 3530   3.985   0.058   2.618
 1109HOH      O 3531   0.397   3.694   3.233
 1109HOH     H1 3532   0.368   3.728   3.149
 1109HOH     H2 3533   0.338   3.734   3.297
 1110HOH      O 3534   3.304   2.851   3.696
 1110HOH     H1 3535   3.255   2.775   3.666
 1110HOH     H2 3536   3.294   2.916   3.626
 1111HOH      O 3537   2.546   3.029   2.560
 1111HOH     H1 3538   2.599   3.083   2.619
 1111HOH     H2 3539   2.529   3.084   2.484
 1112HOH      O 3540   0.593   1.074   3.646
 1112HOH     H1 3541   0.578   0.981   3.633
 1112HOH     H2 3542   0.506   1.113   3.643
 1113HOH      O 3543   3.286   3.099   1.462
 1113HOH     H1 3544   3.361   3.146   1.497
 1113HOH     H2 3545   3.210   3.152   1.486
 1114HOH      O 3546   2.764   0.762   3.792
 1114HOH     H1 3547   2.789   0.698   3.859
 1114HOH     H2 3548   2.717   0.830   3.841
 1115HOH      O 3549   3.240   3.879   3.477
 1115HOH     H1 3550   3.329   3.895   3.509
 1115HOH     H2 3551   3.247   3.798   3.427
 1116HOH      O 3552   0.501   0.241   1.370
 1116HOH     H1 3553   0.470   0.331   1.358
 1116HOH     H2 3554   0.566   0.247   1.440
 1117HOH      O 3555   0.842   2.370   0.152
 1117HOH     H1 3556   0.852   2.344   0.244
 1117HOH     H2 3557   0.748   2.381   0.141
 1118HOH      O 3558   0.056   1.866   1.445
 1118HOH     H1 3559   0.116   1.896   1.514
 1118HOH     H2 3560   0.008   1.945   1.419
 1119HOH      O 3561   0.315   0.083   1.844
 1119HOH     H1 3562   0.390   0.142   1.845
 1119HOH     H2 3563   0.242   0.138   1.813
 1120HOH      O 3564   2.537   3.774   2.112
 1120HOH     H1 3565   2.615   3.814   2.073
 1120HOH     H2 3566   2.563   3.754   2.202
 1121HOH      O 3567   0.064   1.418   1.177
 1121HOH     H1 3568   0.125   1.456   1.115
 1121HOH     H2 3569  -0.017   1.407   1.128
 1122HOH      O 3570   2.908   0.515   2.432
 1122HOH     H1 3571   2.923   0.452   2.502
 1122HOH     H2 3572   2.939   0.472   2.353
 1123HOH      O 3573   2.326   0.360   3.299
 1123HOH     H1 3574   2.251   0.418   3.312
 1123HOH     H2 3575   2.335   0.312   3.381
 1124HOH      O 3576   2.976   1.356   0.843
 1124HOH     H1 3577   3.008   1.276   0.801
 1124HOH     H2 3578   2.921   1.324   0.915
 1125HOH      O 3579   1.281   1.929   0.453
 1125HOH     H1 3580   1.248   1.861   0.393
 1125HOH     H2 3581   1.359   1.963   0.409
 1126HOH      O 3582   1.252   3.796   1.454
 1126HOH     H1 3583   1.282   3.780   1.544
 1126HOH     H2 3584   1.301   3.874   1.427
 1127HOH      O 3585   0.919   2.704   2.841
 1127HOH     H1 3586   0.992   2.653   2.874
 1127HOH     H2 3587   0.959   2.766   2.779
 1128HOH      O 3588   3.768   1.413   1.674
 1128HOH     H1 3589   3.774   1.347   1.743
 1128HOH     H2 3590   3.846   1.467   1.686
 1129HOH      O 3591   1.398   1.511   0.905
 1129HOH     H1 3592   1.324   1.548   0.954
 1129HOH     H2 3593   1.409   1.570   0.830
 1130HOH      O 3594   0.173   3.422   0.269
 1130HOH     H1 3595   0.188   3.515   0.283
 1130HOH     H2 3596   0.259   3.382   0.283
 1131HOH      O 3597   3.361   0.934   2.225
 1131HOH     H1 3598   3.411   0.878   2.166
 1131HOH     H2 3599   3.422   0.957   2.294
 1132HOH      O 3600   0.615   4.035   2.154
 1132HOH     H1 3601   0.655   4.010   2.071
 1132HOH     H2 3602   0.520   4.027   2.139
 1133HOH      O 3603   2.902   1.347   1.862
 1133HOH     H1 3604   2.985   1.388   1.886
 1133HOH     H2 3605   2.903   1.264   1.910
 1134HOH      O 3606   2.823   1.881   1.482
 1134HOH     H1 3607   2.806   1.807   1.540
 1134HOH     H2 3608   2.869   1.945   1.537
 1135HOH      O 3609   2.848   3.127   3.181
 1135HOH     H1 3610   2.823   3.062   3.246
 1135HOH     H2 3611   2.794   3.106   3.104
 1136HOH      O 3612   2.177   1.101   0.058
 1136HOH     H1 3613   2.237   1.172   0.080
 1136HOH     H2 3614   2.144   1.071   0.142
 1137HOH      O 3615   4.007   1.377   3.301
 1137HOH     H1 3616   3.962   1.460   3.288
 1137HOH     H2 3617   4.017   1.369   3.396
 1138HOH      O 3618   3.914   3.748   0.843
 1138HOH     H1 3619   3.943   3.662   0.872
 1138HOH     H2 3620   3.835   3.730   0.792
 1139HOH      O 3621   0.085   3.095   3.478
 1139HOH     H1 3622   0.112   3.029   3.542
 1139HOH     H2 3623  -0.007   3.075   3.461
 1140HOH      O 3624   2.776   1.521   3.617
 1140HOH     H1 3625   2.791   1.427   3.628
 1140HOH     H2 3626   2.788   1.537   3.524
 1141HOH      O 3627   4.035   3.118   2.443
 1141HOH     H1 3628   4.079   3.195   2.407
 1141HOH     H2 3629   3.944   3.128   2.414
 1142HOH      O 3630   2.945   1.635   2.949
 1142HOH     H1 3631   3.008   1.623   3.020
 1142HOH     H2 3632   2.954   1.727   2.924
 1143HOH      O 3633   1.389   3.241   1.171
 1143HOH     H1 3634   1.400   3.146   1.169
 1143HOH     H2 3635   1.477   3.275   1.154
 1144HOH      O 3636   3.883   1.322   1.059
 1144HOH     H1 3637   3.800   1.340   1.104
 1144HOH     H2 3638   3.857   1.278   0.978
 1145HOH      O 3639   4.000   1.127   3.583
 1145HOH     H1 3640   3.974   1.219   3.575
 1145HOH     H2 3641   3.952   1.095   3.659
 1146HOH      O 3642   1.270   2.669   3.491
 1146HOH     H1 3643   1.241   2.664   3.582
 1146HOH     H2 3644   1.193   2.644   3.440
 1147HOH      O 3645   2.370   0.855   2.939
 1147HOH     H1 3646   2.342   0.882   3.027
 1147HOH     H2 3647   2.464   0.871   2.938
 1148HOH      O 3648   2.558   2.254   0.755
 1148HOH     H1 3649   2.469   2.258   0.718
 1148HOH     H2 3650   2.594   2.173   0.720
 1149HOH      O 3651   1.868   1.089   0.619
 1149HOH     H1 3652   1.870   1.100   0.714
 1149HOH     H2 3653   1.787   1.133   0.591
 1150HOH      O 3654   0.113   1.268   1.385
 1150HOH     H1 3655   0.203   1.301   1.380
 1150HOH     H2 3656   0.071   1.301   1.306
 1151HOH      O 3657   0.947   0.389   3.667
 1151HOH     H1 3658   1.021   0.358   3.616
 1151HOH     H2 3659   0.893   0.438   3.605
 1152HOH      O 3660   3.729   2.925   0.284
 1152HOH     H1 3661   3.810   2.892   0.322
 1152HOH     H2 3662   3.757   2.978   0.209
 1153HOH      O 3663   2.837   2.075   3.502
 1153HOH     H1 3664   2.781   2.152   3.494
 1153HOH     H2 3665   2.807   2.016   3.433
 1154HOH      O 3666   2.501   3.123   3.175
 1154HOH     H1 3667   2.520   3.061   3.244
 1154HOH     H2 3668   2.405   3.132   3.176
 1155HOH      O 3669   3.717   0.935   2.414
 1155HOH     H1 3670   3.654   1.005   2.394
 1155HOH     H2 3671   3.798   0.982   2.434
 1156HOH      O 3672   3.737   3.262   3.381
 1156HOH     H1 3673   3.706   3.286   3.468
 1156HOH     H2 3674   3.665   3.287   3.323
 1157HOH      O 3675   0.273   2.915   0.719
 1157HOH     H1 3676   0.230   2.960   0.646
 1157HOH     H2 3677   0.216   2.931   0.794
 1158HOH      O 3678   0.079   0.144   1.688
 1158HOH     H1 3679   0.026   0.069   1.712
 1158HOH     H2 3680   0.033   0.219   1.724
 1159HOH      O 3681   1.398   2.242   0.905
 1159HOH     H1 3682   1.410   2.333   0.933
 1159HOH     H2 3683   1.415   2.244   0.811
 1160HOH      O 3684   0.262   0.146   2.948
 1160HOH     H1 3685   0.188   0.170   3.004
 1160HOH     H2 3686   0.252   0.052   2.934
 1161HOH      O 3687   3.274   1.231   0.393
 1161HOH     H1 3688   3.332   1.182   0.451
 1161HOH     H2 3689   3.327   1.305   0.363
 1162HOH      O 3690   3.882   1.378   0.012
 1162HOH     H1 3691   3.928   1.315  -0.044
 1162HOH     H2 3692   3.949   1.407   0.075
 1163HOH      O 3693   2.160   3.363   1.580
 1163HOH     H1 3694   2.152   3.458   1.590
 1163HOH     H2 3695   2.225   3.339   1.647
 1164HOH      O 3696   3.902   1.202   0.788
 1164HOH     H1 3697   3.888   1.269   0.722
 1164HOH     H2 3698   3.846   1.129   0.761
 1165HOH      O 3699   3.235   1.900   0.996
 1165HOH     H1 3700   3.192   1.972   0.951
 1165HOH     H2 3701   3.242   1.831   0.931
 1166HOH      O 3702   1.571   0.964   3.721
 1166HOH     H1 3703   1.593   1.056   3.705
 1166HOH     H2 3704   1.515   0.966   3.798
 1167HOH      O 3705   3.363   2.595   3.450
 1167HOH     H1 3706   3.440   2.539   3.436
 1167HOH     H2 3707   3.397   2.685   3.444
 1168HOH      O 3708   0.985   2.616   0.031
 1168HOH     H1 3709   0.958   2.533   0.071
 1168HOH     H2 3710   0.967   2.682   0.097
 1169HOH      O 3711   2.843   1.032   1.600
 1169HOH     H1 3712   2.792   1.086   1.541
 1169HOH     H2 3713   2.788   1.024   1.679
 1170HOH      O 3714   3.759   2.428   3.250
 1170HOH     H1 3715   3.688   2.374   3.217
 1170HOH     H2 3716   3.838   2.380   3.227
 1171HOH      O 3717   1.775   0.686   1.657
 1171HOH     H1 3718   1.746   0.595   1.662
 1171HOH     H2 3719   1.770   0.718   1.747
 1172HOH      O 3720   1.115   2.140   2.977
 1172HOH     H1 3721   1.133   2.178   2.891
 1172HOH     H2 3722   1.021   2.151   2.990
 1173HOH      O 3723   1.455   3.016   0.880
 1173HOH     H1 3724   1.451   3.108   0.854
 1173HOH     H2 3725   1.543   2.988   0.855
 1174HOH      O 3726   3.729   3.472   1.770
 1174HOH     H1 3727   3.800   3.534   1.786
 1174HOH     H2 3728   3.763   3.413   1.703
 1175HOH      O 3729   0.184   2.573   0.443
 1175HOH     H1 3730   0.119   2.521   0.396
 1175HOH     H2 3731   0.255   2.585   0.379
 1176HOH      O 3732   3.547   0.720   0.984
 1176HOH     H1 3733   3.510   0.740   0.898
 1176HOH     H2 3734   3.471   0.695   1.037
 1177HOH      O 3735   2.133   2.792   1.633
 1177HOH     H1 3736   2.123   2.881   1.599
 1177HOH     H2 3737   2.213   2.759   1.591
 1178HOH      O 3738   3.373   0.547   1.783
 1178HOH     H1 3739   3.413   0.584   1.704
 1178HOH     H2 3740   3.435   0.482   1.814
 1179HOH      O 3741   3.306   0.408   0.729
 1179HOH     H1 3742   3.322   0.337   0.667
 1179HOH     H2 3743   3.387   0.413   0.781
 1180HOH      O 3744   3.271   0.127   0.605
 1180HOH     H1 3745   3.303   0.036   0.608
 1180HOH     H2 3746   3.258   0.150   0.697
 1181HOH      O 3747   0.383   1.191   0.168
 1181HOH     H1 3748   0.321   1.228   0.231
 1181HOH     H2 3749   0.371   1.096   0.176
 1182HOH      O 3750   3.633   0.838   3.382
 1182HOH     H1 3751   3.677   0.916   3.350
 1182HOH     H2 3752   3.693   0.801   3.447
 1183HOH      O 3753   2.453   2.428   2.927
 1183HOH     H1 3754   2.498   2.510   2.907
 1183HOH     H2 3755   2.512   2.382   2.987
 1184HOH      O 3756   2.324   3.291   1.760
 1184HOH     H1 3757   2.407   3.337   1.747
 1184HOH     H2 3758   2.332   3.251   1.847
 1185HOH      O 3759   0.217   0.994   3.896
 1185HOH     H1 3760   0.228   0.971   3.804
 1185HOH     H2 3761   0.278   0.936   3.943
 1186HOH      O 3762   2.617   1.276   1.059
 1186HOH     H1 3763   2.685   1.220   1.097
 1186HOH     H2 3764   2.627   1.359   1.105
 1187HOH      O 3765   2.982   1.933   2.504
 1187HOH     H1 3766   2.930   1.971   2.433
 1187HOH     H2 3767   2.921   1.927   2.577
 1188HOH      O 3768   2.282   0.821   0.773
 1188HOH     H1 3769   2.283   0.903   0.824
 1188HOH     H2 3770   2.287   0.752   0.840
 1189HOH      O 3771   0.777   0.448   3.450
 1189HOH     H1 3772   0.744   0.537   3.435
 1189HOH     H2 3773   0.701   0.392   3.432
 1190HOH      O 3774   3.498   1.520   1.583
 1190HOH     H1 3775   3.556   1.545   1.511
 1190HOH     H2 3776   3.544   1.549   1.662
 1191HOH      O 3777   0.306   0.921   1.579
 1191HOH     H1 3778   0.277   0.830   1.570
 1191HOH     H2 3779   0.228   0.973   1.563
 1192HOH      O 3780   0.073   1.968   2.345
 1192HOH     H1 3781   0.095   1.890   2.295
 1192HOH     H2 3782  -0.023   1.970   2.347
 1193HOH      O 3783   0.579   3.781   1.701
 1193HOH     H1 3784   0.514   3.846   1.674
 1193HOH     H2 3785   0.626   3.823   1.772
 1194HOH      O 3786   2.621   1.387   0.765
 1194HOH     H1 3787   2.526   1.395   0.775
 1194HOH     H2 3788   2.647   1.326   0.833
 1195HOH      O 3789   3.492   3.456   0.533
 1195HOH     H1 3790   3.400   3.437   0.552
 1195HOH     H2 3791   3.540   3.383   0.573
 1196HOH      O 3792   1.244   3.563   0.798
 1196HOH     H1 3793   1.297   3.495   0.756
 1196HOH     H2 3794   1.256   3.548   0.892
 1197HOH      O 3795   3.069   2.942   3.889
 1197HOH     H1 3796   3.159   2.968   3.872
 1197HOH     H2 3797   3.033   3.014   3.941
 1198HOH      O 3798   3.063   3.028   1.028
 1198HOH     H1 3799   3.143   2.993   0.989
 1198HOH     H2 3800   3.063   3.121   1.005
 1199HOH      O 3801   2.976   3.859   0.249
 1199HOH     H1 3802   2.929   3.782   0.281
 1199HOH     H2 3803   3.012   3.832   0.165
 1200HOH      O 3804   3.575   0.691   3.729
 1200HOH     H1 3805   3.571   0.716   3.821
 1200HOH     H2 3806   3.523   0.757   3.684
 1201HOH      O 3807   2.712   3.513   2.404
 1201HOH     H1 3808   2.702   3.443   2.340
 1201HOH     H2 3809   2.747   3.470   2.483
 1202HOH      O 3810   0.403   0.509   1.337
 1202HOH     H1 3811   0.322   0.471   1.301
 1202HOH     H2 3812   0.386   0.603   1.341
 1203HOH      O 3813   0.045   2.126   2.867
 1203HOH     H1 3814  -0.048   2.144   2.855
 1203HOH     H2 3815   0.068   2.067   2.795
 1204HOH      O 3816   3.713   0.622   1.283
 1204HOH     H1 3817   3.748   0.651   1.198
 1204HOH     H2 3818   3.671   0.700   1.319
 1205HOH      O 3819   0.962   2.124   0.456
 1205HOH     H1 3820   0.981   2.214   0.484
 1205HOH     H2 3821   0.869   2.126   0.430
 1206HOH      O 3822   0.914   1.007   1.496
 1206HOH     H1 3823   0.950   1.092   1.468
 1206HOH     H2 3824   0.821   1.024   1.509
 1207HOH      O 3825   1.666   0.719   0.100
 1207HOH     H1 3826   1.737   0.668   0.060
 1207HOH     H2 3827   1.707   0.801   0.126
 1208HOH      O 3828   1.356   2.154   2.572
 1208HOH     H1 3829   1.427   2.218   2.563
 1208HOH     H2 3830   1.379   2.103   2.649
 1209HOH      O 3831   2.011   1.892   2.163
 1209HOH     H1 3832   1.969   1.959   2.218
 1209HOH     H2 3833   2.023   1.818   2.222
 1210HOH      O 3834   0.420   2.613   2.326
 1210HOH     H1 3835   0.413   2.540   2.265
 1210HOH     H2 3836   0.455   2.573   2.406
 1211HOH      O 3837   0.276   0.822   2.449
 1211HOH     H1 3838   0.334   0.760   2.406
 1211HOH     H2 3839   0.292   0.808   2.543
 1212HOH      O 3840   2.010   0.269   3.493
 1212HOH     H1 3841   2.094   0.234   3.522
 1212HOH     H2 3842   1.945   0.225   3.548
 1213HOH      O 3843   0.496   3.000   0.342
 1213HOH     H1 3844   0.560   3.003   0.270
 1213HOH     H2 3845   0.462   2.910   0.338
 1214HOH      O 3846   0.433   3.155   0.574
 1214HOH     H1 3847   0.395   3.090   0.633
 1214HOH     H2 3848   0.439   3.111   0.490
 1215HOH      O 3849   2.094   0.670   3.057
 1215HOH     H1 3850   2.165   0.676   2.993
 1215HOH     H2 3851   2.138   0.649   3.139
 1216HOH      O 3852   2.538   0.962   1.319
 1216HOH     H1 3853   2.609   1.020   1.345
 1216HOH     H2 3854   2.459   1.007   1.349
 1217HOH      O 3855   1.001   3.115   2.958
 1217HOH     H1 3856   0.946   3.074   2.892
 1217HOH     H2 3857   0.961   3.200   2.974
 1218HOH      O 3858   1.479   0.577   1.103
 1218HOH     H1 3859   1.406   0.589   1.164
 1218HOH     H2 3860   1.447   0.615   1.021
 1219HOH      O 3861   2.839   1.051   0.956
 1219HOH     H1 3862   2.897   1.018   1.024
 1219HOH     H2 3863   2.756   1.004   0.970
 1220HOH      O 3864   3.426   2.867   0.345
 1220HOH     H1 3865   3.506   2.819   0.363
 1220HOH     H2 3866   3.424   2.878   0.250
 1221HOH      O 3867   1.543   1.524   3.196
 1221HOH     H1 3868   1.611   1.457   3.191
 1221HOH     H2 3869   1.519   1.541   3.105
 1222HOH      O 3870   3.663   3.737   0.737
 1222HOH     H1 3871   3.580   3.700   0.769
 1222HOH     H2 3872   3.676   3.696   0.652
 1223HOH      O 3873   0.191   3.660   0.379
 1223HOH     H1 3874   0.260   3.636   0.442
 1223HOH     H2 3875   0.109   3.647   0.427
 1224HOH      O 3876   0.997   2.823   1.643
 1224HOH     H1 3877   0.936   2.757   1.676
 1224HOH     H2 3878   1.026   2.789   1.558
 1225HOH      O 3879   0.268   3.140   1.887
 1225HOH     H1 3880   0.210   3.074   1.850
 1225HOH     H2 3881   0.353   3.122   1.847
 1226HOH      O 3882   2.506   1.928   1.766
 1226HOH     H1 3883   2.596   1.921   1.798
 1226HOH     H2 3884   2.462   1.851   1.802
 1227HOH      O 3885   1.422   1.693   2.667
 1227HOH     H1 3886   1.382   1.620   2.621
 1227HOH     H2 3887   1.423   1.764   2.603
 1228HOH      O 3888   1.401   2.525   0.835
 1228HOH     H1 3889   1.425   2.542   0.744
 1228HOH     H2 3890   1.330   2.587   0.853
 1229HOH      O 3891   2.680   1.489   1.946
 1229HOH     H1 3892   2.753   1.443   1.904
 1229HOH     H2 3893   2.723   1.543   2.013
 1230HOH      O 3894   3.501   2.803   2.614
 1230HOH     H1 3895   3.483   2.731   2.674
 1230HOH     H2 3896   3.439   2.789   2.542
 1231HOH      O 3897   3.472   2.145   2.219
 1231HOH     H1 3898   3.470   2.189   2.135
 1231HOH     H2 3899   3.563   2.116   2.229
 1232HOH      O 3900   3.779   2.134   1.656
 1232HOH     H1 3901   3.773   2.043   1.627
 1232HOH     H2 3902   3.873   2.153   1.653
 1233HOH      O 3903   0.767   2.594   3.145
 1233HOH     H1 3904   0.678   2.610   3.114
 1233HOH     H2 3905   0.808   2.681   3.145
 1234HOH      O 3906   1.480   2.189   0.108
 1234HOH     H1 3907   1.438   2.103   0.100
 1234HOH     H2 3908   1.573   2.172   0.090
 1235HOH      O 3909   1.449   2.907   3.991
 1235HOH     H1 3910   1.507   2.915   3.915
 1235HOH     H2 3911   1.361   2.918   3.955
 1236HOH      O 3912   0.546   1.380   0.034
 1236HOH     H1 3913   0.605   1.415   0.101
 1236HOH     H2 3914   0.507   1.303   0.074
 1237HOH      O 3915   1.956   2.905   3.884
 1237HOH     H1 3916   1.907   2.885   3.964
 1237HOH     H2 3917   1.897   2.962   3.833
 1238HOH      O 3918   4.009   1.398   3.575
 1238HOH     H1 3919   3.949   1.451   3.626
 1238HOH     H2 3920   4.091   1.447   3.576
 1239HOH      O 3921   1.977   1.030   2.984
 1239HOH     H1 3922   1.992   0.975   3.061
 1239HOH     H2 3923   1.899   0.993   2.943
 1240HOH      O 3924   2.526   2.856   3.307
 1240HOH     H1 3925   2.549   2.847   3.215
 1240HOH     H2 3926   2.457   2.792   3.321
 1241HOH      O 3927   0.325   2.226   2.549
 1241HOH     H1 3928   0.340   2.291   2.618
 1241HOH     H2 3929   0.412   2.193   2.528
 1242HOH      O 3930   3.961   3.658   0.515
 1242HOH     H1 3931   3.872   3.669   0.482
 1242HOH     H2 3932   3.955   3.587   0.579
 1243HOH      O 3933   1.766   2.222   4.015
 1243HOH     H1 3934   1.846   2.233   3.963
 1243HOH     H2 3935   1.696   2.217   3.950
 1244HOH      O 3936  -0.019   0.349   2.139
 1244HOH     H1 3937   0.009   0.297   2.214
 1244HOH     H2 3938   0.016   0.436   2.156
 1245HOH      O 3939   3.374   2.313   0.942
 1245HOH     H1 3940   3.328   2.389   0.979
 1245HOH     H2 3941   3.304   2.260   0.903
 1246HOH      O 3942   0.933   3.407   2.943
 1246HOH     H1 3943   0.840   3.426   2.957
 1246HOH     H2 3944   0.977   3.488   2.968
 1247HOH      O 3945   2.344   1.011   2.255
 1247HOH     H1 3946   2.360   0.940   2.318
 1247HOH     H2 3947   2.293   0.970   2.186
 1248HOH      O 3948   2.638   2.140   1.244
 1248HOH     H1 3949   2.675   2.061   1.205
 1248HOH     H2 3950   2.613   2.195   1.170
 1249HOH      O 3951   3.870   3.841   1.924
 1249HOH     H1 3952   3.931   3.895   1.974
 1249HOH     H2 3953   3.911   3.833   1.837
 1250HOH      O 3954   0.069   1.606   3.145
 1250HOH     H1 3955   0.146   1.638   3.098
 1250HOH     H2 3956   0.022   1.685   3.171
 1251HOH      O 3957   2.799   3.059   1.093
 1251HOH     H1 3958   2.779   3.084   1.184
 1251HOH     H2 3959   2.892   3.080   1.082
 1252HOH      O 3960   2.004   3.036   1.020
 1252HOH     H1 3961   1.947   2.965   1.049
 1252HOH     H2 3962   2.019   3.089   1.098
 1253HOH      O 3963   1.926   1.250   0.288
 1253HOH     H1 3964   2.006   1.281   0.331
 1253HOH     H2 3965   1.910   1.163   0.325
 1254HOH      O 3966   1.855   2.197   1.729
 1254HOH     H1 3967   1.853   2.240   1.644
 1254HOH     H2 3968   1.770   2.217   1.769
 1255HOH      O 3969   2.632   3.055   0.441
 1255HOH     H1 3970   2.624   3.081   0.532
 1255HOH     H2 3971   2.544   3.031   0.414
 1256HOH      O 3972   1.606   0.524   3.263
 1256HOH     H1 3973   1.581   0.457   3.199
 1256HOH     H2 3974   1.692   0.496   3.294
 1257HOH      O 3975   1.813   1.270   2.344
 1257HOH     H1 3976   1.737   1.256   2.400
 1257HOH     H2 3977   1.790   1.346   2.290
 1258HOH      O 3978   1.351   2.179   3.134
 1258HOH     H1 3979   1.415   2.234   3.088
 1258HOH     H2 3980   1.284   2.161   3.068
 1259HOH      O 3981   2.024   0.230   1.055
 1259HOH     H1 3982   1.992   0.301   0.999
 1259HOH     H2 3983   1.945   0.181   1.079
 1260HOH      O 3984   0.927   2.504   3.561
 1260HOH     H1 3985   0.932   2.593   3.527
 1260HOH     H2 3986   0.937   2.514   3.656
 1261HOH      O 3987   3.960   3.093   0.550
 1261HOH     H1 3988   3.949   3.182   0.517
 1261HOH     H2 3989   3.879   3.048   0.526
 1262HOH      O 3990   2.552   0.272   2.344
 1262HOH     H1 3991   2.461   0.300   2.354
 1262HOH     H2 3992   2.583   0.318   2.266
 1263HOH      O 3993   1.120   3.309   1.874
 1263HOH     H1 3994   1.086   3.363   1.803
 1263HOH     H2 3995   1.044   3.294   1.931
 1264HOH      O 3996   3.662   1.895   1.243
 1264HOH     H1 3997   3.674   1.974   1.190
 1264HOH     H2 3998   3.731   1.836   1.214
 1265HOH      O 3999   0.621   0.234   2.273
 1265HOH     H1 4000   0.697   0.276   2.233
 1265HOH     H2 4001   0.628   0.142   2.247
 1266HOH      O 4002   2.588   2.552   2.202
 1266HOH     H1 4003   2.546   2.635   2.224
 1266HOH     H2 4004   2.681   2.566   2.224
 1267HOH      O 4005   2.221   1.049   2.829
 1267HOH     H1 4006   2.268   0.968   2.849
 1267HOH     H2 4007   2.149   1.051   2.893
 1268HOH      O 4008   3.237   3.285   3.348
 1268HOH     H1 4009   3.185   3.323   3.277
 1268HOH     H2 4010   3.186   3.304   3.427
 1269HOH      O 4011   2.848   2.335   0.781
 1269HOH     H1 4012   2.754   2.315   0.782
 1269HOH     H2 4013   2.852   2.428   0.760
 1270HOH      O 4014   2.026   0.780   0.978
 1270HOH     H1 4015   2.004   0.872   0.994
 1270HOH     H2 4016   2.121   0.781   0.963
 1271HOH      O 4017   4.004   0.342   1.000
 1271HOH     H1 4018   4.062   0.269   1.024
 1271HOH     H2 4019   3.950   0.356   1.078
 1272HOH      O 4020   3.370   2.466   1.823
 1272HOH     H1 4021   3.462   2.464   1.799
 1272HOH     H2 4022   3.325   2.421   1.752
 1273HOH      O 4023   3.217   0.861   1.379
 1273HOH     H1 4024   3.290   0.909   1.339
 1273HOH     H2 4025   3.182   0.923   1.443
 1274HOH      O 4026   0.752   2.787   2.589
 1274HOH     H1 4027   0.686   2.775   2.658
 1274HOH     H2 4028   0.821   2.724   2.610
 1275HOH      O 4029   3.515   0.438   2.370
 1275HOH     H1 4030   3.578   0.510   2.376
 1275HOH     H2 4031   3.430   0.481   2.358
 1276HOH      O 4032   0.067   3.151   1.445
 1276HOH     H1 4033   0.162   3.138   1.445
 1276HOH     H2 4034   0.046   3.166   1.537
 1277HOH      O 4035   3.989   1.546   2.748
 1277HOH     H1 4036   3.998   1.543   2.653
 1277HOH     H2 4037   3.977   1.639   2.768
 1278HOH      O 4038   0.630   3.716   0.267
 1278HOH     H1 4039   0.641   3.708   0.361
 1278HOH     H2 4040   0.623   3.810   0.250
 1279HOH      O 4041   1.901   3.538   3.098
 1279HOH     H1 4042   1.860   3.479   3.034
 1279HOH     H2 4043   1.991   3.507   3.104
 1280HOH      O 4044   0.249   0.335   1.193
 1280HOH     H1 4045   0.257   0.288   1.110
 1280HOH     H2 4046   0.232   0.267   1.257
 1281HOH      O 4047   2.788   0.350   3.205
 1281HOH     H1 4048   2.882   0.366   3.194
 1281HOH     H2 4049   2.769   0.377   3.295
 1282HOH      O 4050   3.854   3.973   1.134
 1282HOH     H1 4051   3.867   3.910   1.204
 1282HOH     H2 4052   3.772   3.947   1.093
 1283HOH      O 4053   2.917   2.241   2.657
 1283HOH     H1 4054   2.908   2.152   2.623
 1283HOH     H2 4055   2.928   2.229   2.752
 1284HOH      O 4056   0.452   3.424   3.229
 1284HOH     H1 4057   0.382   3.411   3.293
 1284HOH     H2 4058   0.447   3.517   3.206
 1285HOH      O 4059   1.379   3.679   2.249
 1285HOH     H1 4060   1.429   3.712   2.174
 1285HOH     H2 4061   1.302   3.637   2.209
 1286HOH      O 4062   0.513   2.661   3.150
 1286HOH     H1 4063   0.468   2.734   3.107
 1286HOH     H2 4064   0.529   2.692   3.239
 1287HOH      O 4065   3.870   3.604   1.343
 1287HOH     H1 4066   3.856   3.697   1.362
 1287HOH     H2 4067   3.784   3.571   1.317
 1288HOH      O 4068   3.378   3.916   2.439
 1288HOH     H1 4069   3.358   3.837   2.490
 1288HOH     H2 4070   3.467   3.939   2.465
 1289HOH      O 4071   3.510   3.866   3.521
 1289HOH     H1 4072   3.551   3.895   3.440
 1289HOH     H2 4073   3.551   3.918   3.590
 1290HOH      O 4074   2.031   3.483   3.784
 1290HOH     H1 4075   2.126   3.483   3.796
 1290HOH     H2 4076   1.995   3.494   3.872
 1291HOH      O 4077   2.771   1.120   4.060
 1291HOH     H1 4078   2.727   1.035   4.054
 1291HOH     H2 4079   2.835   1.118   3.988
 1292HOH      O 4080   1.903   1.980   1.272
 1292HOH     H1 4081   1.897   1.944   1.360
 1292HOH     H2 4082   1.988   2.025   1.270
 1293HOH      O 4083   0.567   2.414   2.515
 1293HOH     H1 4084   0.544   2.390   2.605
 1293HOH     H2 4085   0.655   2.451   2.523
 1294HOH      O 4086   3.142   3.522   1.776
 1294HOH     H1 4087   3.201   3.469   1.831
 1294HOH     H2 4088   3.114   3.593   1.834
 1295HOH      O 4089   3.929   2.257   3.790
 1295HOH     H1 4090   4.011   2.243   3.837
 1295HOH     H2 4091   3.869   2.192   3.826
 1296HOH      O 4092   1.924   1.612   3.671
 1296HOH     H1 4093   1.914   1.660   3.588
 1296HOH     H2 4094   1.972   1.533   3.647
 1297HOH      O 4095   2.718   1.371   0.489
 1297HOH     H1 4096   2.810   1.362   0.513
 1297HOH     H2 4097   2.674   1.392   0.572
 1298HOH      O 4098   1.900   1.603   2.822
 1298HOH     H1 4099   1.822   1.627   2.772
 1298HOH     H2 4100   1.913   1.510   2.801
 1299HOH      O 4101   0.182   2.144   2.141
 1299HOH     H1 4102   0.095   2.176   2.117
 1299HOH     H2 4103   0.167   2.088   2.217
 1300HOH      O 4104   1.259   4.018   3.396
 1300HOH     H1 4105   1.269   4.034   3.490
 1300HOH     H2 4106   1.207   3.938   3.391
 1301HOH      O 4107   1.248   0.004   3.071
 1301HOH     H1 4108   1.168   0.003   3.020
 1301HOH     H2 4109   1.223   0.041   3.156
 1302HOH      O 4110   0.950   3.568   0.883
 1302HOH     H1 4111   1.043   3.546   0.889
 1302HOH     H2 4112   0.909   3.489   0.848
 1303HOH      O 4113   1.200   2.946   0.965
 1303HOH     H1 4114   1.289   2.965   0.938
 1303HOH     H2 4115   1.172   3.023   1.014
 1304HOH      O 4116   0.454   3.645   2.793
 1304HOH     H1 4117   0.379   3.704   2.788
 1304HOH     H2 4118   0.417   3.561   2.820
 1305HOH      O 4119   2.391   2.306   0.238
 1305HOH     H1 4120   2.432   2.282   0.321
 1305HOH     H2 4121   2.301   2.272   0.244
 1306HOH      O 4122   1.368   3.405   1.573
 1306HOH     H1 4123   1.293   3.347   1.561
 1306HOH     H2 4124   1.335   3.492   1.550
 1307HOH      O 4125   1.432   3.163   3.689
 1307HOH     H1 4126   1.385   3.099   3.742
 1307HOH     H2 4127   1.502   3.113   3.647
 1308HOH      O 4128   1.702   1.640   1.464
 1308HOH     H1 4129   1.614   1.678   1.474
 1308HOH     H2 4130   1.685   1.547   1.446
 1309HOH      O 4131   0.343   0.747   3.991
 1309HOH     H1 4132   0.419   0.704   4.030
 1309HOH     H2 4133   0.298   0.678   3.943
 1310HOH      O 4134   0.101   3.720   1.102
 1310HOH     H1 4135   0.013   3.708   1.138
 1310HOH     H2 4136   0.138   3.632   1.100
 1311HOH      O 4137   1.651   2.069   0.829
 1311HOH     H1 4138   1.560   2.094   0.846
 1311HOH     H2 4139   1.683   2.035   0.912
 1312HOH      O 4140   0.065   3.120   2.761
 1312HOH     H1 4141   0.071   3.155   2.672
 1312HOH     H2 4142  -0.029   3.111   2.777
 1313HOH      O 4143   2.460   1.256   2.283
 1313HOH     H1 4144   2.408   1.176   2.271
 1313HOH     H2 4145   2.527   1.232   2.347
 1314HOH      O 4146   3.081   3.288   3.086
 1314HOH     H1 4147   3.026   3.364   3.065
 1314HOH     H2 4148   3.020   3.215   3.090
 1315HOH      O 4149   2.194   3.025   3.857
 1315HOH     H1 4150   2.241   2.947   3.884
 1315HOH     H2 4151   2.103   3.008   3.880
 1316HOH      O 4152   2.897   2.194   3.814
 1316HOH     H1 4153   2.820   2.162   3.768
 1316HOH     H2 4154   2.970   2.146   3.774
 1317HOH      O 4155   2.354   3.664   1.358
 1317HOH     H1 4156   2.366   3.747   1.405
 1317HOH     H2 4157   2.440   3.622   1.362
 1318HOH      O 4158   3.353   3.521   0.116
 1318HOH     H1 4159   3.283   3.585   0.106
 1318HOH     H2 4160   3.419   3.546   0.052
 1319HOH      O 4161   3.133   1.740   1.489
 1319HOH     H1 4162   3.050   1.782   1.510
 1319HOH     H2 4163   3.146   1.756   1.396
 1320HOH      O 4164   0.729   2.050   1.560
 1320HOH     H1 4165   0.783   2.103   1.620
 1320HOH     H2 4166   0.792   2.012   1.499
 1321HOH      O 4167   3.751   0.287   2.681
 1321HOH     H1 4168   3.660   0.257   2.683
 1321HOH     H2 4169   3.797   0.223   2.628
 1322HOH      O 4170   2.005   1.062   0.935
 1322HOH     H1 4171   2.062   1.129   0.898
 1322HOH     H2 4172   2.037   1.050   1.024
 1323HOH      O 4173   1.209   0.522   2.662
 1323HOH     H1 4174   1.225   0.468   2.740
 1323HOH     H2 4175   1.114   0.529   2.657
 1324HOH      O 4176   1.276   0.204   2.043
 1324HOH     H1 4177   1.199   0.240   1.999
 1324HOH     H2 4178   1.283   0.115   2.010
 1325HOH      O 4179   0.188   1.355   3.974
 1325HOH     H1 4180   0.137   1.285   3.934
 1325HOH     H2 4181   0.237   1.313   4.044
 1326HOH      O 4182   0.831   3.749   2.742
 1326HOH     H1 4183   0.808   3.824   2.687
 1326HOH     H2 4184   0.918   3.770   2.777
 1327HOH      O 4185   2.086   3.620   1.247
 1327HOH     H1 4186   2.182   3.618   1.251
 1327HOH     H2 4187   2.066   3.621   1.153
 1328HOH      O 4188   0.612   1.250   3.032
 1328HOH     H1 4189   0.658   1.260   3.115
 1328HOH     H2 4190   0.537   1.310   3.039
 1329HOH      O 4191   2.433   2.378   2.650
 1329HOH     H1 4192   2.523   2.394   2.622
 1329HOH     H2 4193   2.434   2.393   2.744
 1330HOH      O 4194   1.163   3.540   1.457
 1330HOH     H1 4195   1.175   3.498   1.372
 1330HOH     H2 4196   1.157   3.633   1.437
 1331HOH      O 4197   1.705   3.854   0.144
 1331HOH     H1 4198   1.612   3.873   0.157
 1331HOH     H2 4199   1.748   3.939   0.155
 1332HOH      O 4200   0.490   3.272   3.715
 1332HOH     H1 4201   0.566   3.270   3.773
 1332HOH     H2 4202   0.451   3.185   3.725
 1333HOH      O 4203   2.003   0.873   3.195
 1333HOH     H1 4204   2.016   0.797   3.138
 1333HOH     H2 4205   1.992   0.836   3.282
 1334HOH      O 4206   2.248   3.326   3.888
 1334HOH     H1 4207   2.319   3.377   3.928
 1334HOH     H2 4208   2.262   3.237   3.920
 1335HOH      O 4209   0.218   0.343   0.602
 1335HOH     H1 4210   0.271   0.410   0.560
 1335HOH     H2 4211   0.136   0.343   0.552
 1336HOH      O 4212   1.819   3.240   1.538
 1336HOH     H1 4213   1.732   3.244   1.498
 1336HOH     H2 4214   1.870   3.306   1.491
 1337HOH      O 4215   2.120   1.031   0.311
 1337HOH     H1 4216   2.136   0.965   0.379
 1337HOH     H2 4217   2.156   1.112   0.347
 1338HOH      O 4218   1.215   4.007   0.560
 1338HOH     H1 4219   1.198   3.914   0.545
 1338HOH     H2 4220   1.154   4.032   0.629
 1339HOH      O 4221   0.869   3.884   1.349
 1339HOH     H1 4222   0.891   3.805   1.301
 1339HOH     H2 4223   0.945   3.900   1.405
 1340HOH      O 4224   1.432   0.871   3.436
 1340HOH     H1 4225   1.520   0.880   3.470
 1340HOH     H2 4226   1.400   0.789   3.474
 1341HOH      O 4227   2.221   2.967   2.375
 1341HOH     H1 4228   2.245   3.029   2.443
 1341HOH     H2 4229   2.125   2.971   2.372
 1342HOH      O 4230   3.410   0.157   2.873
 1342HOH     H1 4231   3.469   0.212   2.925
 1342HOH     H2 4232   3.425   0.185   2.783
 1343HOH      O 4233   0.218   0.749   0.409
 1343HOH     H1 4234   0.258   0.791   0.334
 1343HOH     H2 4235   0.157   0.814   0.444
 1344HOH      O 4236   3.960   0.766   0.826
 1344HOH     H1 4237   4.013   0.689   0.845
 1344HOH     H2 4238   4.022   0.828   0.787
 1345HOH      O 4239   3.865   3.518   0.058
 1345HOH     H1 4240   3.930   3.512  -0.011
 1345HOH     H2 4241   3.909   3.485   0.136
 1346HOH      O 4242   3.490   3.501   1.566
 1346HOH     H1 4243   3.446   3.586   1.566
 1346HOH     H2 4244   3.548   3.504   1.642
 1347HOH      O 4245   0.838   2.349   3.260
 1347HOH     H1 4246   0.773   2.319   3.324
 1347HOH     H2 4247   0.818   2.442   3.248
 1348HOH      O 4248   2.751   1.809   0.196
 1348HOH     H1 4249   2.777   1.868   0.126
 1348HOH     H2 4250   2.735   1.725   0.152
 1349HOH      O 4251   2.093   1.033   1.563
 1349HOH     H1 4252   2.017   1.053   1.510
 1349HOH     H2 4253   2.095   0.937   1.568
 1350HOH      O 4254   0.728   3.987   1.916
 1350HOH     H1 4255   0.728   4.023   1.828
 1350HOH     H2 4256   0.818   3.993   1.946
 1351HOH      O 4257   1.351   3.458   2.805
 1351HOH     H1 4258   1.378   3.382   2.856
 1351HOH     H2 4259   1.354   3.531   2.867
 1352HOH      O 4260   2.733   3.372   1.568
 1352HOH     H1 4261   2.686   3.402   1.646
 1352HOH     H2 4262   2.770   3.287   1.594
 1353HOH      O 4263   0.105   0.610   2.153
 1353HOH     H1 4264   0.041   0.667   2.195
 1353HOH     H2 4265   0.173   0.598   2.219
 1354HOH      O 4266   2.505   3.144   1.190
 1354HOH     H1 4267   2.490   3.110   1.102
 1354HOH     H2 4268   2.426   3.193   1.212
 1355HOH      O 4269   3.407   0.398   1.094
 1355HOH     H1 4270   3.407   0.384   1.189
 1355HOH     H2 4271   3.318   0.378   1.067
 1356HOH      O 4272   0.245   1.411   3.663
 1356HOH     H1 4273   0.307   1.419   3.735
 1356HOH     H2 4274   0.236   1.316   3.649
 1357HOH      O 4275   3.770   1.647   1.117
 1357HOH     H1 4276   3.834   1.633   1.186
 1357HOH     H2 4277   3.722   1.565   1.111
 1358HOH      O 4278   2.043   0.048   1.683
 1358HOH     H1 4279   2.084  -0.032   1.716
 1358HOH     H2 4280   2.108   0.117   1.700
 1359HOH      O 4281   3.781   0.968   1.614
 1359HOH     H1 4282   3.815   1.042   1.564
 1359HOH     H2 4283   3.856   0.909   1.623
 1360HOH      O 4284   3.647   2.704   0.823
 1360HOH     H1 4285   3.586   2.654   0.878
 1360HOH     H2 4286   3.707   2.744   0.885
 1361HOH      O 4287   2.570   1.722   0.740
 1361HOH     H1 4288   2.497   1.708   0.800
 1361HOH     H2 4289   2.605   1.634   0.723
 1362HOH      O 4290   3.210   2.113   3.737
 1362HOH     H1 4291   3.232   2.203   3.715
 1362HOH     H2 4292   3.228   2.064   3.657
 1363HOH      O 4293   3.097   1.065   1.508
 1363HOH     H1 4294   3.022   1.024   1.553
 1363HOH     H2 4295   3.066   1.152   1.484
 1364HOH      O 4296   1.801   0.412   1.779
 1364HOH     H1 4297   1.855   0.423   1.857
 1364HOH     H2 4298   1.719   0.375   1.812
 1365HOH      O 4299   2.167   0.049   1.385
 1365HOH     H1 4300   2.224  -0.012   1.432
 1365HOH     H2 4301   2.164   0.127   1.440
 1366HOH      O 4302   2.023   1.665   2.297
 1366HOH     H1 4303   1.937   1.671   2.339
 1366HOH     H2 4304   2.013   1.593   2.234
 1367HOH      O 4305   3.861   1.459   0.660
 1367HOH     H1 4306   3.868   1.544   0.616
 1367HOH     H2 4307   3.920   1.465   0.735
 1368HOH      O 4308   2.081   0.571   0.667
 1368HOH     H1 4309   2.047   0.508   0.604
 1368HOH     H2 4310   2.170   0.589   0.637
 1369HOH      O 4311   2.547   0.383   0.306
 1369HOH     H1 4312   2.596   0.448   0.256
 1369HOH     H2 4313   2.602   0.305   0.303
 1370HOH      O 4314   0.340   1.558   2.866
 1370HOH     H1 4315   0.301   1.642   2.842
 1370HOH     H2 4316   0.434   1.574   2.867
 1371HOH      O 4317   0.479   1.095   2.428
 1371HOH     H1 4318   0.462   1.139   2.511
 1371HOH     H2 4319   0.400   1.042   2.413
 1372HOH      O 4320   0.175   1.615   1.003
 1372HOH     H1 4321   0.236   1.637   0.933
 1372HOH     H2 4322   0.194   1.677   1.073
 1373HOH      O 4323   3.230   3.442   2.508
 1373HOH     H1 4324   3.269   3.354   2.505
 1373HOH     H2 4325   3.136   3.426   2.498
 1374HOH      O 4326   0.733   3.462   0.263
 1374HOH     H1 4327   0.706   3.553   0.252
 1374HOH     H2 4328   0.708   3.440   0.353
 1375HOH      O 4329   3.964   3.438   3.378
 1375HOH     H1 4330   3.941   3.517   3.426
 1375HOH     H2 4331   3.889   3.380   3.389
 1376HOH      O 4332   3.881   0.211   3.902
 1376HOH     H1 4333   3.867   0.280   3.837
 1376HOH     H2 4334   3.946   0.154   3.862
 1377HOH      O 4335   1.520   3.178   0.403
 1377HOH     H1 4336   1.556   3.266   0.417
 1377HOH     H2 4337   1.433   3.181   0.442
 1378HOH      O 4338   1.989   3.545   2.705
 1378HOH     H1 4339   2.057   3.578   2.764
 1378HOH     H2 4340   1.970   3.457   2.738
 1379HOH      O 4341   2.850   2.389   3.505
 1379HOH     H1 4342   2.785   2.457   3.491
 1379HOH     H2 4343   2.911   2.399   3.432
 1380HOH      O 4344   3.162   2.619   0.868
 1380HOH     H1 4345   3.172   2.537   0.916
 1380HOH     H2 4346   3.209   2.684   0.920
 1381HOH      O 4347   0.502   0.535   1.872
 1381HOH     H1 4348   0.417   0.578   1.867
 1381HOH     H2 4349   0.554   0.576   1.803
 1382HOH      O 4350   1.947   1.484   1.525
 1382HOH     H1 4351   1.926   1.419   1.592
 1382HOH     H2 4352   2.015   1.443   1.472
 1383HOH      O 4353   3.744   1.472   1.415
 1383HOH     H1 4354   3.819   1.525   1.388
 1383HOH     H2 4355   3.764   1.445   1.505
 1384HOH      O 4356   1.160   1.131   1.987
 1384HOH     H1 4357   1.230   1.077   2.024
 1384HOH     H2 4358   1.092   1.068   1.962
 1385HOH      O 4359   2.080   2.866   1.909
 1385HOH     H1 4360   2.130   2.931   1.958
 1385HOH     H2 4361   2.122   2.863   1.824
 1386HOH      O 4362   1.515   3.936   3.091
 1386HOH     H1 4363   1.420   3.946   3.092
 1386HOH     H2 4364   1.529   3.842   3.083
 1387HOH      O 4365   3.210   2.034   2.657
 1387HOH     H1 4366   3.193   2.095   2.729
 1387HOH     H2 4367   3.133   2.040   2.601
 1388HOH      O 4368   3.165   0.860   3.123
 1388HOH     H1 4369   3.241   0.809   3.150
 1388HOH     H2 4370   3.190   0.951   3.139
 1389HOH      O 4371   1.020   0.522   0.405
 1389HOH     H1 4372   1.067   0.593   0.362
 1389HOH     H2 4373   0.928   0.546   0.398
 1390HOH      O 4374   1.897   3.882   1.046
 1390HOH     H1 4375   1.891   3.859   1.139
 1390HOH     H2 4376   1.854   3.967   1.040
 1391HOH      O 4377   2.867   1.028   0.460
 1391HOH     H1 4378   2.897   1.066   0.543
 1391HOH     H2 4379   2.826   0.946   0.484
 1392HOH      O 4380   2.947   0.083   0.209
 1392HOH     H1 4381   2.946  -0.013   0.209
 1392HOH     H2 4382   3.038   0.105   0.227
 1393HOH      O 4383   1.619   2.655   4.033
 1393HOH     H1 4384   1.556   2.725   4.016
 1393HOH     H2 4385   1.631   2.612   3.949
 1394HOH      O 4386   2.594   3.599   3.379
 1394HOH     H1 4387   2.660   3.532   3.358
 1394HOH     H2 4388   2.621   3.675   3.328
 1395HOH      O 4389   0.640   1.421   3.674
 1395HOH     H1 4390   0.575   1.386   3.736
 1395HOH     H2 4391   0.723   1.385   3.704
 1396HOH      O 4392   3.977   3.242   0.216
 1396HOH     H1 4393   4.063   3.281   0.222
 1396HOH     H2 4394   3.929   3.276   0.292
 1397HOH      O 4395   2.978   1.773   3.568
 1397HOH     H1 4396   2.903   1.791   3.510
 1397HOH     H2 4397   2.977   1.678   3.578
 1398HOH      O 4398   2.632   0.198   2.603
 1398HOH     H1 4399   2.546   0.166   2.630
 1398HOH     H2 4400   2.619   0.227   2.512
 1399HOH      O 4401   4.028   1.153   3.919
 1399HOH     H1 4402   3.964   1.086   3.944
 1399HOH     H2 4403   4.108   1.104   3.903
 1400HOH      O 4404   1.690   1.942   1.063
 1400HOH     H1 4405   1.622   1.886   1.100
 1400HOH     H2 4406   1.755   1.951   1.133
 1401HOH      O 4407   1.268   3.499   1.067
 1401HOH     H1 4408   1.357   3.468   1.049
 1401HOH     H2 4409   1.239   3.447   1.142
 1402HOH      O 4410   3.327   1.950   1.261
 1402HOH     H1 4411   3.282   1.949   1.176
 1402HOH     H2 4412   3.416   1.920   1.241
 1403HOH      O 4413   1.520   2.348   3.004
 1403HOH     H1 4414   1.597   2.291   2.998
 1403HOH     H2 4415   1.542   2.424   2.950
 1404HOH      O 4416   2.952   0.353   0.613
 1404HOH     H1 4417   2.869   0.311   0.592
 1404HOH     H2 4418   2.967   0.332   0.706
 1405HOH      O 4419   0.329   1.079   0.541
 1405HOH     H1 4420   0.396   1.019   0.510
 1405HOH     H2 4421   0.267   1.086   0.468
 1406HOH      O 4422   2.475   0.716   0.138
 1406HOH     H1 4423   2.468   0.629   0.100
 1406HOH     H2 4424   2.524   0.704   0.219
 1407HOH      O 4425   2.458   0.929   3.693
 1407HOH     H1 4426   2.457   1.016   3.735
 1407HOH     H2 4427   2.408   0.874   3.753
 1408HOH      O 4428   3.201   2.473   1.101
 1408HOH     H1 4429   3.188   2.413   1.175
 1408HOH     H2 4430   3.191   2.560   1.139
 1409HOH      O 4431   0.251   1.762   1.222
 1409HOH     H1 4432   0.310   1.750   1.296
 1409HOH     H2 4433   0.174   1.804   1.260
 1410HOH      O 4434   1.898   1.125   3.640
 1410HOH     H1 4435   1.959   1.056   3.666
 1410HOH     H2 4436   1.886   1.176   3.720
 1411HOH      O 4437   3.447   0.422   3.915
 1411HOH     H1 4438   3.492   0.342   3.889
 1411HOH     H2 4439   3.507   0.464   3.977
 1412HOH      O 4440   0.947   2.673   1.352
 1412HOH     H1 4441   1.006   2.748   1.360
 1412HOH     H2 4442   1.000   2.605   1.310
 1413HOH      O 4443   1.195   2.763   2.958
 1413HOH     H1 4444   1.238   2.731   2.879
 1413HOH     H2 4445   1.223   2.702   3.026
 1414HOH      O 4446   2.289   1.159   3.309
 1414HOH     H1 4447   2.207   1.164   3.357
 1414HOH     H2 4448   2.290   1.071   3.272
 1415HOH      O 4449   1.780   2.376   0.821
 1415HOH     H1 4450   1.731   2.301   0.856
 1415HOH     H2 4451   1.718   2.421   0.764
 1416HOH      O 4452   2.610   3.278   3.441
 1416HOH     H1 4453   2.668   3.203   3.424
 1416HOH     H2 4454   2.625   3.337   3.368
 1417HOH      O 4455   3.039   1.324   1.470
 1417HOH     H1 4456   3.031   1.387   1.397
 1417HOH     H2 4457   3.092   1.370   1.535
 1418HOH      O 4458   1.314   0.053   3.670
 1418HOH     H1 4459   1.308   0.146   3.695
 1418HOH     H2 4460   1.348   0.010   3.748
 1419HOH      O 4461   1.842   2.062   0.619
 1419HOH     H1 4462   1.865   1.970   0.631
 1419HOH     H2 4463   1.773   2.078   0.684
 1420HOH      O 4464   1.778   3.392   1.840
 1420HOH     H1 4465   1.813   3.311   1.804
 1420HOH     H2 4466   1.687   3.394   1.811
 1421HOH      O 4467   3.692   1.410   2.444
 1421HOH     H1 4468   3.650   1.495   2.432
 1421HOH     H2 4469   3.641   1.349   2.392
 1422HOH      O 4470   1.754   0.996   2.841
 1422HOH     H1 4471   1.761   1.046   2.759
 1422HOH     H2 4472   1.676   0.942   2.829
 1423HOH      O 4473   3.533   0.082   0.236
 1423HOH     H1 4474   3.537   0.110   0.145
 1423HOH     H2 4475   3.592   0.141   0.282
 1424HOH      O 4476   3.793   0.896   3.738
 1424HOH     H1 4477   3.824   0.923   3.824
 1424HOH     H2 4478   3.698   0.902   3.742
 1425HOH      O 4479   0.758   3.209   1.013
 1425HOH     H1 4480   0.779   3.236   1.103
 1425HOH     H2 4481   0.662   3.206   1.011
 1426HOH      O 4482   0.282   0.757   0.924
 1426HOH     H1 4483   0.223   0.695   0.967
 1426HOH     H2 4484   0.368   0.715   0.929
 1427HOH      O 4485   0.491   3.134   0.038
 1427HOH     H1 4486   0.465   3.225   0.052
 1427HOH     H2 4487   0.423   3.082   0.081
 1428HOH      O 4488   3.702   0.512   3.553
 1428HOH     H1 4489   3.759   0.457   3.607
 1428HOH     H2 4490   3.658   0.570   3.616
 1429HOH      O 4491   0.780   1.361   0.913
 1429HOH     H1 4492   0.875   1.372   0.904
 1429HOH     H2 4493   0.769   1.266   0.924
 1430HOH      O 4494   2.174   1.286   0.410
 1430HOH     H1 4495   2.238   1.341   0.366
 1430HOH     H2 4496   2.165   1.324   0.497
 1431HOH      O 4497   0.912   1.715   4.048
 1431HOH     H1 4498   0.903   1.793   4.102
 1431HOH     H2 4499   0.953   1.745   3.967
 1432HOH      O 4500   2.809   2.338   1.053
 1432HOH     H1 4501   2.843   2.324   0.965
 1432HOH     H2 4502   2.714   2.328   1.044
 1433HOH      O 4503   0.645   3.181   3.378
 1433HOH     H1 4504   0.556   3.147   3.390
 1433HOH     H2 4505   0.649   3.258   3.434
 1434HOH      O 4506   3.636   1.399   1.083
 1434HOH     H1 4507   3.596   1.334   1.141
 1434HOH     H2 4508   3.570   1.415   1.016
 1435HOH      O 4509   0.379   2.814   1.502
 1435HOH     H1 4510   0.379   2.742   1.566
 1435HOH     H2 4511   0.434   2.782   1.431
 1436HOH      O 4512   1.207   2.804   1.394
 1436HOH     H1 4513   1.271   2.832   1.328
 1436HOH     H2 4514   1.235   2.715   1.417
 1437HOH      O 4515   3.229   1.315   3.766
 1437HOH     H1 4516   3.183   1.335   3.847
 1437HOH     H2 4517   3.218   1.220   3.756
 1438HOH      O 4518   1.653   2.381   1.155
 1438HOH     H1 4519   1.643   2.313   1.222
 1438HOH     H2 4520   1.740   2.364   1.118
 1439HOH      O 4521   0.866   2.779   2.337
 1439HOH     H1 4522   0.818   2.805   2.416
 1439HOH     H2 4523   0.949   2.745   2.370
 1440HOH      O 4524   1.688   1.422   2.889
 1440HOH     H1 4525   1.727   1.423   2.976
 1440HOH     H2 4526   1.630   1.498   2.888
 1441HOH      O 4527   2.441   1.954   0.084
 1441HOH     H1 4528   2.394   1.952   0.000
 1441HOH     H2 4529   2.519   2.008   0.066
 1442HOH      O 4530   2.675   0.140   0.316
 1442HOH     H1 4531   2.748   0.137   0.254
 1442HOH     H2 4532   2.675   0.053   0.357
 1443HOH      O 4533   2.781   1.965   3.263
 1443HOH     H1 4534   2.715   1.970   3.193
 1443HOH     H2 4535   2.864   1.959   3.217
 1444HOH      O 4536   0.470   1.997   1.254
 1444HOH     H1 4537   0.419   2.000   1.335
 1444HOH     H2 4538   0.507   1.909   1.252
 1445HOH      O 4539   2.975   3.160   4.014
 1445HOH     H1 4540   2.971   3.133   4.105
 1445HOH     H2 4541   2.895   3.213   4.002
 1446HOH      O 4542   2.432   2.275   3.874
 1446HOH     H1 4543   2.362   2.211   3.867
 1446HOH     H2 4544   2.391   2.352   3.912
 1447HOH      O 4545   3.964   0.301   1.846
 1447HOH     H1 4546   3.991   0.317   1.936
 1447HOH     H2 4547   3.982   0.383   1.800
 1448HOH      O 4548   0.421   0.575   3.652
 1448HOH     H1 4549   0.379   0.590   3.567
 1448HOH     H2 4550   0.349   0.573   3.715
 1449HOH      O 4551   2.815   3.823   2.154
 1449HOH     H1 4552   2.866   3.789   2.227
 1449HOH     H2 4553   2.778   3.906   2.186
 1450HOH      O 4554   2.348   0.386   3.038
 1450HOH     H1 4555   2.436   0.422   3.022
 1450HOH     H2 4556   2.344   0.375   3.133
 1451HOH      O 4557   3.608   3.820   1.983
 1451HOH     H1 4558   3.701   3.838   1.999
 1451HOH     H2 4559   3.577   3.783   2.066
 1452HOH      O 4560   3.269   3.674   3.283
 1452HOH     H1 4561   3.342   3.633   3.237
 1452HOH     H2 4562   3.240   3.608   3.346
 1453HOH      O 4563   3.672   1.358   2.923
 1453HOH     H1 4564   3.691   1.321   2.837
 1453HOH     H2 4565   3.755   1.395   2.952
 1454HOH      O 4566   3.399   1.216   2.594
 1454HOH     H1 4567   3.421   1.154   2.664
 1454HOH     H2 4568   3.428   1.301   2.628
 1455HOH      O 4569   0.088   0.376   2.643
 1455HOH     H1 4570   0.159   0.369   2.707
 1455HOH     H2 4571   0.009   0.387   2.695
 1456HOH      O 4572   3.427   3.720   1.292
 1456HOH     H1 4573   3.390   3.693   1.375
 1456HOH     H2 4574   3.388   3.805   1.274
 1457HOH      O 4575   0.187   3.593   0.706
 1457HOH     H1 4576   0.141   3.592   0.790
 1457HOH     H2 4577   0.250   3.521   0.713
 1458HOH      O 4578   0.005   2.115   1.772
 1458HOH     H1 4579  -0.007   2.069   1.855
 1458HOH     H2 4580   0.048   2.051   1.716
 1459HOH      O 4581   1.921   2.063   2.362
 1459HOH     H1 4582   1.952   2.056   2.452
 1459HOH     H2 4583   1.926   2.156   2.341
 1460HOH      O 4584   2.715   3.028   3.394
 1460HOH     H1 4585   2.633   2.981   3.406
 1460HOH     H2 4586   2.774   2.965   3.353
 1461HOH      O 4587   3.069   2.218   3.396
 1461HOH     H1 4588   3.016   2.279   3.448
 1461HOH     H2 4589   3.013   2.140   3.388
 1462HOH      O 4590   0.927   1.032   1.058
 1462HOH     H1 4591   0.952   1.113   1.104
 1462HOH     H2 4592   0.904   0.971   1.128
 1463HOH      O 4593   3.687   3.654   0.465
 1463HOH     H1 4594   3.619   3.590   0.444
 1463HOH     H2 4595   3.675   3.723   0.400
 1464HOH      O 4596   0.153   0.583   1.085
 1464HOH     H1 4597   0.155   0.491   1.110
 1464HOH     H2 4598   0.095   0.624   1.150
 1465HOH      O 4599   3.163   3.585   0.703
 1465HOH     H1 4600   3.074   3.581   0.737
 1465HOH     H2 4601   3.154   3.627   0.617
 1466HOH      O 4602   3.780   2.154   2.896
 1466HOH     H1 4603   3.702   2.209   2.905
 1466HOH     H2 4604   3.753   2.084   2.837
 1467HOH      O 4605   2.388   2.429   1.263
 1467HOH     H1 4606   2.406   2.442   1.170
 1467HOH     H2 4607   2.475   2.424   1.304
 1468HOH      O 4608   1.732   1.173   3.385
 1468HOH     H1 4609   1.805   1.235   3.380
 1468HOH     H2 4610   1.665   1.212   3.329
 1469HOH      O 4611   1.540   3.161   2.439
 1469HOH     H1 4612   1.451   3.154   2.407
 1469HOH     H2 4613   1.580   3.229   2.386
 1470HOH      O 4614   1.256   0.892   1.059
 1470HOH     H1 4615   1.201   0.815   1.041
 1470HOH     H2 4616   1.301   0.870   1.141
 1471HOH      O 4617   1.482   1.921   3.149
 1471HOH     H1 4618   1.454   2.010   3.172
 1471HOH     H2 4619   1.497   1.879   3.233
 1472HOH      O 4620   1.547   3.678   1.332
 1472HOH     H1 4621   1.498   3.646   1.408
 1472HOH     H2 4622   1.502   3.759   1.308
 1473HOH      O 4623   2.612   4.014   1.717
 1473HOH     H1 4624   2.671   4.027   1.643
 1473HOH     H2 4625   2.670   4.003   1.792
 1474HOH      O 4626   2.667   2.339   0.033
 1474HOH     H1 4627   2.636   2.294  -0.045
 1474HOH     H2 4628   2.608   2.311   0.103
 1475HOH      O 4629   1.356   2.719   0.267
 1475HOH     H1 4630   1.390   2.787   0.325
 1475HOH     H2 4631   1.333   2.764   0.186
 1476HOH      O 4632   3.750   2.660   1.437
 1476HOH     H1 4633   3.796   2.577   1.444
 1476HOH     H2 4634   3.686   2.658   1.508
 1477HOH      O 4635   3.557   1.659   3.572
 1477HOH     H1 4636   3.613   1.656   3.650
 1477HOH     H2 4637   3.472   1.689   3.604
 1478HOH      O 4638   3.184   0.716   1.861
 1478HOH     H1 4639   3.204   0.809   1.850
 1478HOH     H2 4640   3.265   0.671   1.839
 1479HOH      O 4641   0.651   1.390   1.661
 1479HOH     H1 4642   0.668   1.485   1.659
 1479HOH     H2 4643   0.661   1.366   1.753
 1480HOH      O 4644   2.837   0.595   3.361
 1480HOH     H1 4645   2.866   0.661   3.299
 1480HOH     H2 4646   2.745   0.581   3.339
 1481HOH      O 4647   0.249   3.532   1.786
 1481HOH     H1 4648   0.182   3.463   1.788
 1481HOH     H2 4649   0.203   3.608   1.751
 1482HOH      O 4650   3.791   3.099   0.069
 1482HOH     H1 4651   3.765   3.147  -0.010
 1482HOH     H2 4652   3.859   3.154   0.108
 1483HOH      O 4653   2.259   0.643   0.976
 1483HOH     H1 4654   2.329   0.647   1.041
 1483HOH     H2 4655   2.203   0.570   1.005
 1484HOH      O 4656   3.196   2.267   1.947
 1484HOH     H1 4657   3.287   2.284   1.924
 1484HOH     H2 4658   3.192   2.172   1.959
 1485HOH      O 4659   1.750   1.282   2.658
 1485HOH     H1 4660   1.735   1.330   2.739
 1485HOH     H2 4661   1.842   1.299   2.636
 1486HOH      O 4662   2.885   1.275   3.766
 1486HOH     H1 4663   2.952   1.319   3.818
 1486HOH     H2 4664   2.886   1.185   3.797
 1487HOH      O 4665   3.072   3.870   2.548
 1487HOH     H1 4666   3.159   3.832   2.538
 1487HOH     H2 4667   3.075   3.912   2.635
 1488HOH      O 4668   0.345   0.541   0.483
 1488HOH     H1 4669   0.436   0.568   0.486
 1488HOH     H2 4670   0.296   0.621   0.464
 1489HOH      O 4671   1.523   0.569   1.776
 1489HOH     H1 4672   1.526   0.501   1.844
 1489HOH     H2 4673   1.527   0.651   1.825
 1490HOH      O 4674   0.820   0.458   2.488
 1490HOH     H1 4675   0.739   0.424   2.527
 1490HOH     H2 4676   0.888   0.437   2.551
 1491HOH      O 4677   1.697   2.138   2.613
 1491HOH     H1 4678   1.675   2.092   2.694
 1491HOH     H2 4679   1.695   2.071   2.545
 1492HOH      O 4680   1.712   2.909   2.807
 1492HOH     H1 4681   1.751   2.954   2.882
 1492HOH     H2 4682   1.738   2.961   2.732
 1493HOH      O 4683   1.136   3.082   3.212
 1493HOH     H1 4684   1.210   3.070   3.153
 1493HOH     H2 4685   1.062   3.101   3.153
 1494HOH      O 4686   1.478   2.416   2.268
 1494HOH     H1 4687   1.466   2.510   2.252
 1494HOH     H2 4688   1.562   2.411   2.315
 1495HOH      O 4689   0.577   1.742   1.235
 1495HOH     H1 4690   0.541   1.673   1.179
 1495HOH     H2 4691   0.613   1.694   1.310
 1496HOH      O 4692   2.252   0.216   1.706
 1496HOH     H1 4693   2.219   0.271   1.636
 1496HOH     H2 4694   2.313   0.273   1.754
 1497HOH      O 4695   3.353   1.901   2.910
 1497HOH     H1 4696   3.369   1.961   2.982
 1497HOH     H2 4697   3.296   1.950   2.850
 1498HOH      O 4698   2.969   1.674   0.657
 1498HOH     H1 4699   2.983   1.583   0.632
 1498HOH     H2 4700   3.004   1.724   0.583
 1499HOH      O 4701   0.778   0.033   1.138
 1499HOH     H1 4702   0.811  -0.016   1.214
 1499HOH     H2 4703   0.821   0.118   1.144
 1500HOH      O 4704   3.323   3.451   3.701
 1500HOH     H1 4705   3.291   3.437   3.612
 1500HOH     H2 4706   3.244   3.446   3.755
 1501HOH      O 4707   1.296   3.772   3.941
 1501HOH     H1 4708   1.269   3.691   3.984
 1501HOH     H2 4709   1.236   3.839   3.976
 1502HOH      O 4710   3.883   1.713   3.598
 1502HOH     H1 4711   3.817   1.754   3.543
 1502HOH     H2 4712   3.951   1.684   3.536
 1503HOH      O 4713   1.833   0.539   3.959
 1503HOH     H1 4714   1.916   0.586   3.967
 1503HOH     H2 4715   1.778   0.596   3.904
 1504HOH      O 4716   2.176   2.681   1.081
 1504HOH     H1 4717   2.147   2.709   1.168
 1504HOH     H2 4718   2.096   2.657   1.035
 1505HOH      O 4719   3.453   0.861   2.540
 1505HOH     H1 4720   3.547   0.866   2.520
 1505HOH     H2 4721   3.421   0.788   2.488
 1506HOH      O 4722   3.822   2.438   3.599
 1506HOH     H1 4723   3.901   2.483   3.568
 1506HOH     H2 4724   3.852   2.387   3.675
 1507HOH      O 4725   0.292   1.773   2.673
 1507HOH     H1 4726   0.307   1.804   2.762
 1507HOH     H2 4727   0.242   1.844   2.632
 1508HOH      O 4728   3.727   3.955   1.562
 1508HOH     H1 4729   3.742   4.039   1.606
 1508HOH     H2 4730   3.651   3.918   1.607
 1509HOH      O 4731   0.186   0.148   1.006
 1509HOH     H1 4732   0.127   0.108   0.942
 1509HOH     H2 4733   0.213   0.075   1.062
 1510HOH      O 4734   0.163   1.322   0.750
 1510HOH     H1 4735   0.225   1.259   0.787
 1510HOH     H2 4736   0.147   1.384   0.820
 1511HOH      O 4737   3.431   1.283   0.018
 1511HOH     H1 4738   3.416   1.377   0.028
 1511HOH     H2 4739   3.350   1.242   0.049
 1512HOH      O 4740   1.963   2.836   0.525
 1512HOH     H1 4741   1.881   2.796   0.554
 1512HOH     H2 4742   1.952   2.848   0.431
 1513HOH      O 4743   2.380   2.779   0.895
 1513HOH     H1 4744   2.324   2.755   0.820
 1513HOH     H2 4745   2.322   2.770   0.971
 1514HOH      O 4746   1.450   0.424   0.538
 1514HOH     H1 4747   1.440   0.441   0.444
 1514HOH     H2 4748   1.506   0.495   0.569
 1515HOH      O 4749   1.676   0.888   0.535
 1515HOH     H1 4750   1.731   0.945   0.590
 1515HOH     H2 4751   1.739   0.834   0.487
 1516HOH      O 4752   2.379   0.121   2.702
 1516HOH     H1 4753   2.407   0.066   2.776
 1516HOH     H2 4754   2.363   0.060   2.631
 1517HOH      O 4755   2.498   1.518   2.750
 1517HOH     H1 4756   2.467   1.514   2.840
 1517HOH     H2 4757   2.422   1.494   2.697
 1518HOH      O 4758   1.819   1.453   3.419
 1518HOH     H1 4759   1.834   1.547   3.423
 1518HOH     H2 4760   1.725   1.443   3.436
 1519HOH      O 4761   1.903   3.828   0.526
 1519HOH     H1 4762   1.810   3.826   0.503
 1519HOH     H2 4763   1.932   3.916   0.503
 1520HOH      O 4764   1.137   1.351   2.173
 1520HOH     H1 4765   1.056   1.312   2.206
 1520HOH     H2 4766   1.161   1.295   2.099
 1521HOH      O 4767   0.501   0.586   0.884
 1521HOH     H1 4768   0.547   0.579   0.800
 1521HOH     H2 4769   0.470   0.498   0.903
 1522HOH      O 4770   2.821   1.958   2.245
 1522HOH     H1 4771   2.726   1.957   2.258
 1522HOH     H2 4772   2.848   2.046   2.273
 1523HOH      O 4773   2.919   1.104   2.873
 1523HOH     H1 4774   2.897   1.192   2.905
 1523HOH     H2 4775   2.887   1.045   2.942
 1524HOH      O 4776   1.791   2.866   1.216
 1524HOH     H1 4777   1.747   2.797   1.265
 1524HOH     H2 4778   1.854   2.903   1.278
 1525HOH      O 4779   2.922   3.707   3.849
 1525HOH     H1 4780   2.856   3.766   3.811
 1525HOH     H2 4781   2.957   3.659   3.774
 1526HOH      O 4782   3.557   3.493   1.111
 1526HOH     H1 4783   3.492   3.423   1.118
 1526HOH     H2 4784   3.526   3.560   1.172
 1527HOH      O 4785   2.401   1.967   2.571
 1527HOH     H1 4786   2.393   1.916   2.652
 1527HOH     H2 4787   2.342   1.924   2.510
 1528HOH      O 4788   1.918   3.128   3.510
 1528HOH     H1 4789   1.985   3.184   3.548
 1528HOH     H2 4790   1.968   3.061   3.462
 1529HOH      O 4791   3.320   3.844   1.972
 1529HOH     H1 4792   3.352   3.864   2.060
 1529HOH     H2 4793   3.379   3.777   1.939
 1530HOH      O 4794   3.887   2.864  -0.001
 1530HOH     H1 4795   3.834   2.807   0.055
 1530HOH     H2 4796   3.856   2.953   0.020
 1531HOH      O 4797   1.479   2.589   3.325
 1531HOH     H1 4798   1.505   2.497   3.325
 1531HOH     H2 4799   1.398   2.591   3.376
 1532HOH      O 4800   3.256   2.218   1.313
 1532HOH     H1 4801   3.162   2.217   1.296
 1532HOH     H2 4802   3.286   2.130   1.290
 1533HOH      O 4803   3.455   2.878   1.365
 1533HOH     H1 4804   3.403   2.956   1.385
 1533HOH     H2 4805   3.410   2.808   1.412
 1534HOH      O 4806   2.203   0.742   0.194
 1534HOH     H1 4807   2.294   0.732   0.166
 1534HOH     H2 4808   2.190   0.836   0.201
 1535HOH      O 4809   0.824   3.718   2.169
 1535HOH     H1 4810   0.783   3.768   2.240
 1535HOH     H2 4811   0.859   3.785   2.110
 1536HOH      O 4812   0.584   2.143   0.868
 1536HOH     H1 4813   0.555   2.165   0.780
 1536HOH     H2 4814   0.561   2.050   0.878
 1537HOH      O 4815   3.821   2.432   1.108
 1537HOH     H1 4816   3.732   2.452   1.140
 1537HOH     H2 4817   3.813   2.432   1.013
 1538HOH      O 4818   1.708   0.346   2.507
 1538HOH     H1 4819   1.697   0.413   2.575
 1538HOH     H2 4820   1.661   0.270   2.540
 1539HOH      O 4821   2.739   3.990   2.682
 1539HOH     H1 4822   2.657   3.949   2.707
 1539HOH     H2 4823   2.718   4.083   2.675
 1540HOH      O 4824   3.120   2.210   0.860
 1540HOH     H1 4825   3.071   2.147   0.912
 1540HOH     H2 4826   3.053   2.259   0.811
 1541HOH      O 4827   3.829   1.335   2.679
 1541HOH     H1 4828   3.773   1.374   2.613
 1541HOH     H2 4829   3.886   1.406   2.709
 1542HOH      O 4830   2.495   1.413   3.655
 1542HOH     H1 4831   2.497   1.372   3.569
 1542HOH     H2 4832   2.588   1.422   3.679
 1543HOH      O 4833   0.358   3.110   2.895
 1543HOH     H1 4834   0.263   3.109   2.890
 1543HOH     H2 4835   0.382   3.018   2.906
 1544HOH      O 4836   0.861   3.397   1.964
 1544HOH     H1 4837   0.867   3.483   1.924
 1544HOH     H2 4838   0.777   3.362   1.935
 1545HOH      O 4839   0.556   0.815   3.537
 1545HOH     H1 4840   0.538   0.835   3.445
 1545HOH     H2 4841   0.512   0.731   3.552
 1546HOH      O 4842   2.310   0.759   2.664
 1546HOH     H1 4843   2.374   0.758   2.592
 1546HOH     H2 4844   2.363   0.773   2.743
 1547HOH      O 4845   1.991   0.722   1.235
 1547HOH     H1 4846   1.918   0.663   1.253
 1547HOH     H2 4847   1.983   0.743   1.142
 1548HOH      O 4848   0.668   0.521   1.412
 1548HOH     H1 4849   0.578   0.526   1.380
 1548HOH     H2 4850   0.683   0.606   1.454
 1549HOH      O 4851   2.158   2.724   2.184
 1549HOH     H1 4852   2.237   2.734   2.238
 1549HOH     H2 4853   2.185   2.749   2.096
 1550HOH      O 4854   0.337   2.330   3.307
 1550HOH     H1 4855   0.277   2.380   3.362
 1550HOH     H2 4856   0.294   2.246   3.296
 1551HOH      O 4857   0.974   4.013   2.939
 1551HOH     H1 4858   0.903   3.996   3.001
 1551HOH     H2 4859   1.011   3.926   2.922
 1552HOH      O 4860   2.813   2.493   3.119
 1552HOH     H1 4861   2.873   2.514   3.190
 1552HOH     H2 4862   2.792   2.577   3.080
 1553HOH      O 4863   2.399   1.775   1.532
 1553HOH     H1 4864   2.451   1.698   1.556
 1553HOH     H2 4865   2.446   1.849   1.570
 1554HOH      O 4866   0.190   0.547   0.168
 1554HOH     H1 4867   0.211   0.596   0.247
 1554HOH     H2 4868   0.138   0.607   0.114
 1555HOH      O 4869   3.779   0.089   3.060
 1555HOH     H1 4870   3.727   0.158   3.102
 1555HOH     H2 4871   3.714   0.032   3.019
 1556HOH      O 4872   3.672   3.238   0.647
 1556HOH     H1 4873   3.690   3.265   0.737
 1556HOH     H2 4874   3.672   3.143   0.650
 1557HOH      O 4875   3.828   1.717   2.301
 1557HOH     H1 4876   3.834   1.810   2.324
 1557HOH     H2 4877   3.895   1.675   2.356
 1558HOH      O 4878   2.992   1.126   0.717
 1558HOH     H1 4879   2.936   1.111   0.793
 1558HOH     H2 4880   3.068   1.070   0.733
 1559HOH      O 4881   3.383   1.882   1.576
 1559HOH     H1 4882   3.355   1.856   1.488
 1559HOH     H2 4883   3.385   1.799   1.625
 1560HOH      O 4884   0.409   2.987   3.672
 1560HOH     H1 4885   0.368   2.901   3.684
 1560HOH     H2 4886   0.426   2.992   3.578
 1561HOH      O 4887   2.786   0.048   0.925
 1561HOH     H1 4888   2.722  -0.018   0.951
 1561HOH     H2 4889   2.830   0.011   0.849
 1562HOH      O 4890   2.558   0.931   3.977
 1562HOH     H1 4891   2.542   0.853   4.029
 1562HOH     H2 4892   2.471   0.966   3.958
 1563HOH      O 4893   0.737   1.673   3.628
 1563HOH     H1 4894   0.673   1.604   3.644
 1563HOH     H2 4895   0.718   1.740   3.693
 1564HOH      O 4896   2.295   3.290   1.342
 1564HOH     H1 4897   2.309   3.385   1.337
 1564HOH     H2 4898   2.271   3.275   1.433
 1565HOH      O 4899   1.464   0.409   3.464
 1565HOH     H1 4900   1.525   0.463   3.415
 1565HOH     H2 4901   1.436   0.342   3.401
 1566HOH      O 4902   3.864   0.301   1.542
 1566HOH     H1 4903   3.797   0.244   1.582
 1566HOH     H2 4904   3.835   0.390   1.564
 1567HOH      O 4905   2.357   1.566   0.856
 1567HOH     H1 4906   2.298   1.573   0.781
 1567HOH     H2 4907   2.300   1.580   0.932
 1568HOH      O 4908   0.877   2.491   1.040
 1568HOH     H1 4909   0.970   2.502   1.060
 1568HOH     H2 4910   0.832   2.551   1.099
 1569HOH      O 4911   2.420   3.409   3.125
 1569HOH     H1 4912   2.454   3.498   3.127
 1569HOH     H2 4913   2.492   3.355   3.157
 1570HOH      O 4914   0.760   2.770   0.418
 1570HOH     H1 4915   0.729   2.690   0.461
 1570HOH     H2 4916   0.719   2.841   0.468
 1571HOH      O 4917   3.084   0.591   2.075
 1571HOH     H1 4918   3.112   0.638   1.996
 1571HOH     H2 4919   3.084   0.657   2.144
 1572HOH      O 4920   3.117   1.685   2.397
 1572HOH     H1 4921   3.086   1.765   2.439
 1572HOH     H2 4922   3.055   1.618   2.424
 1573HOH      O 4923   2.643   3.653   1.006
 1573HOH     H1 4924   2.659   3.691   1.092
 1573HOH     H2 4925   2.579   3.712   0.965
 1574HOH      O 4926   0.381   0.070   2.660
 1574HOH     H1 4927   0.296   0.027   2.669
 1574HOH     H2 4928   0.443  -0.001   2.644
 1575HOH      O 4929   3.814   2.689   3.429
 1575HOH     H1 4930   3.906   2.669   3.447
 1575HOH     H2 4931   3.782   2.612   3.384
 1576HOH      O 4932   1.115   1.350   3.153
 1576HOH     H1 4933   1.107   1.290   3.227
 1576HOH     H2 4934   1.025   1.372   3.130
 1577HOH      O 4935   1.680   3.161   3.351
 1577HOH     H1 4936   1.767   3.142   3.386
 1577HOH     H2 4937   1.639   3.075   3.341
 1578HOH      O 4938   3.591   3.843   0.283
 1578HOH     H1 4939   3.659   3.831   0.217
 1578HOH     H2 4940   3.548   3.925   0.259
 1579HOH      O 4941   0.036   0.563   3.680
 1579HOH     H1 4942  -0.051   0.598   3.665
 1579HOH     H2 4943   0.095   0.624   3.635
 1580HOH      O 4944   3.969   2.039   0.283
 1580HOH     H1 4945   3.876   2.017   0.273
 1580HOH     H2 4946   4.011   2.004   0.205
 1581HOH      O 4947   1.611   2.917   2.041
 1581HOH     H1 4948   1.524   2.899   2.077
 1581HOH     H2 4949   1.594   2.955   1.955
 1582HOH      O 4950   0.706   2.104   0.340
 1582HOH     H1 4951   0.635   2.167   0.333
 1582HOH     H2 4952   0.675   2.040   0.404
 1583HOH      O 4953   4.031   0.002   0.233
 1583HOH     H1 4954   3.980  -0.014   0.312
 1583HOH     H2 4955   4.072   0.088   0.248
 1584HOH      O 4956   2.449   3.067   3.611
 1584HOH     H1 4957   2.473   3.051   3.702
 1584HOH     H2 4958   2.499   3.145   3.587
 1585HOH      O 4959   1.201   2.895   1.834
 1585HOH     H1 4960   1.156   2.850   1.763
 1585HOH     H2 4961   1.241   2.825   1.885
 1586HOH      O 4962   0.202   2.274   1.042
 1586HOH     H1 4963   0.293   2.282   1.072
 1586HOH     H2 4964   0.209   2.260   0.948
 1587HOH      O 4965   3.379   1.074   1.015
 1587HOH     H1 4966   3.411   1.068   1.105
 1587HOH     H2 4967   3.294   1.118   1.022
 1588HOH      O 4968   1.918   2.601   4.033
 1588HOH     H1 4969   1.863   2.596   3.956
 1588HOH     H2 4970   1.890   2.682   4.077
 1589HOH      O 4971   1.191   3.778   2.441
 1589HOH     H1 4972   1.208   3.761   2.534
 1589HOH     H2 4973   1.262   3.732   2.395
 1590HOH      O 4974   2.187   2.972   0.160
 1590HOH     H1 4975   2.253   3.003   0.222
 1590HOH     H2 4976   2.106   3.015   0.188
 1591HOH      O 4977   0.637   2.128   2.155
 1591HOH     H1 4978   0.627   2.155   2.246
 1591HOH     H2 4979   0.723   2.161   2.129
 1592HOH      O 4980   2.952   0.049   2.424
 1592HOH     H1 4981   2.985  -0.034   2.458
 1592HOH     H2 4982   3.003   0.065   2.345
 1593HOH      O 4983   3.458   0.917   0.792
 1593HOH     H1 4984   3.461   0.993   0.851
 1593HOH     H2 4985   3.548   0.905   0.763
 1594HOH      O 4986   1.088   3.599   2.252
 1594HOH     H1 4987   1.121   3.682   2.286
 1594HOH     H2 4988   1.014   3.624   2.196
 1595HOH      O 4989   3.067   0.043   1.318
 1595HOH     H1 4990   3.085   0.136   1.329
 1595HOH     H2 4991   3.154   0.003   1.310
 1596HOH      O 4992   2.407   3.380   0.713
 1596HOH     H1 4993   2.440   3.310   0.657
 1596HOH     H2 4994   2.417   3.347   0.802
 1597HOH      O 4995   3.384   0.565   2.091
 1597HOH     H1 4996   3.292   0.590   2.106
 1597HOH     H2 4997   3.379   0.477   2.052
 1598HOH      O 4998   2.303   2.738   3.576
 1598HOH     H1 4999   2.341   2.710   3.493
 1598HOH     H2 5000   2.375   2.730   3.639
 1599HOH      O 5001   1.546   2.952   1.763
 1599HOH     H1 5002   1.523   3.045   1.770
 1599HOH     H2 5003   1.620   2.950   1.703
 1600HOH      O 5004   3.376   3.103   3.967
 1600HOH     H1 5005   3.336   3.140   4.045
 1600HOH     H2 5006   3.461   3.148   3.960
 1601HOH      O 5007   0.947   1.108   0.419
 1601HOH     H1 5008   0.976   1.086   0.507
 1601HOH     H2 5009   0.949   1.025   0.371
 1602HOH      O 5010   2.582   0.346   2.824
 1602HOH     H1 5011   2.657   0.327   2.882
 1602HOH     H2 5012   2.601   0.295   2.745
 1603HOH      O 5013   3.538   0.665   2.742
 1603HOH     H1 5014   3.518   0.659   2.649
 1603HOH     H2 5015   3.453   0.676   2.784
 1604HOH      O 5016   2.576   0.691   1.399
 1604HOH     H1 5017   2.583   0.728   1.487
 1604HOH     H2 5018   2.585   0.766   1.340
 1605HOH      O 5019   3.289   1.277   0.740
 1605HOH     H1 5020   3.266   1.272   0.833
 1605HOH     H2 5021   3.328   1.364   0.731
 1606HOH      O 5022   3.787   1.262   3.715
 1606HOH     H1 5023   3.821   1.246   3.803
 1606HOH     H2 5024   3.695   1.237   3.721
 1607HOH      O 5025   3.040   2.907   1.273
 1607HOH     H1 5026   3.057   2.949   1.189
 1607HOH     H2 5027   3.027   2.979   1.335
 1608HOH      O 5028   3.934   1.337   2.149
 1608HOH     H1 5029   3.948   1.368   2.239
 1608HOH     H2 5030   3.839   1.329   2.142
 1609HOH      O 5031   3.226   3.946   3.016
 1609HOH     H1 5032   3.295   3.956   3.082
 1609HOH     H2 5033   3.255   3.872   2.963
 1610HOH      O 5034   1.294   1.853   1.631
 1610HOH     H1 5035   1.359   1.819   1.569
 1610HOH     H2 5036   1.337   1.848   1.716
 1611HOH      O 5037   1.467   0.061   1.060
 1611HOH     H1 5038   1.458   0.154   1.040
 1611HOH     H2 5039   1.391   0.021   1.020
 1612HOH      O 5040   1.555   0.643   2.424
 1612HOH     H1 5041   1.552   0.723   2.371
 1612HOH     H2 5042   1.642   0.644   2.463
 1613HOH      O 5043   3.440   1.338   3.068
 1613HOH     H1 5044   3.373   1.345   3.000
 1613HOH     H2 5045   3.520   1.319   3.020
 1614HOH      O 5046   0.617   2.551   0.523
 1614HOH     H1 5047   0.543   2.610   0.534
 1614HOH     H2 5048   0.632   2.514   0.610
 1615HOH      O 5049   0.067   3.638   2.151
 1615HOH     H1 5050   0.097   3.717   2.106
 1615HOH     H2 5051  -0.026   3.633   2.131
 1616HOH      O 5052   1.121   0.229   3.471
 1616HOH     H1 5053   1.095   0.145   3.508
 1616HOH     H2 5054   1.146   0.209   3.381
 1617HOH      O 5055   1.444   1.231   3.259
 1617HOH     H1 5056   1.488   1.157   3.215
 1617HOH     H2 5057   1.386   1.189   3.323
 1618HOH      O 5058   1.650   2.383   1.896
 1618HOH     H1 5059   1.739   2.367   1.927
 1618HOH     H2 5060   1.620   2.458   1.949
 1619HOH      O 5061   0.782   1.578   2.072
 1619HOH     H1 5062   0.744   1.665   2.072
 1619HOH     H2 5063   0.874   1.592   2.093
 1620HOH      O 5064   0.873   0.950   2.131
 1620HOH     H1 5065   0.811   0.982   2.065
 1620HOH     H2 5066   0.893   1.028   2.184
 1621HOH      O 5067   3.782   2.076   3.971
 1621HOH     H1 5068   3.773   2.078   4.066
 1621HOH     H2 5069   3.826   1.993   3.952
 1622HOH      O 5070   2.639   3.715   2.846
 1622HOH     H1 5071   2.624   3.631   2.802
 1622HOH     H2 5072   2.733   3.730   2.839
 1623HOH      O 5073   1.900   2.378   1.994
 1623HOH     H1 5074   1.960   2.340   1.931
 1623HOH     H2 5075   1.899   2.471   1.972
 1624HOH      O 5076   1.710   3.047   3.075
 1624HOH     H1 5077   1.662   3.115   3.122
 1624HOH     H2 5078   1.672   2.965   3.106
 1625HOH      O 5079   3.102   2.645   1.259
 1625HOH     H1 5080   3.079   2.738   1.260
 1625HOH     H2 5081   3.019   2.600   1.276
 1626HOH      O 5082   1.839   2.614   3.346
 1626HOH     H1 5083   1.854   2.591   3.254
 1626HOH     H2 5084   1.756   2.663   3.345
 1627HOH      O 5085   0.523   1.174   1.148
 1627HOH     H1 5086   0.572   1.100   1.112
 1627HOH     H2 5087   0.468   1.204   1.075
 1628HOH      O 5088   0.923   0.162   2.205
 1628HOH     H1 5089   0.998   0.144   2.261
 1628HOH     H2 5090   0.914   0.257   2.206
 1629HOH      O 5091   3.084   1.267   3.409
 1629HOH     H1 5092   3.151   1.202   3.427
 1629HOH     H2 5093   3.090   1.284   3.315
 1630HOH      O 5094   3.440   0.664   1.547
 1630HOH     H1 5095   3.392   0.624   1.474
 1630HOH     H2 5096   3.520   0.699   1.507
 1631HOH      O 5097   2.911   0.290   0.879
 1631HOH     H1 5098   2.877   0.202   0.897
 1631HOH     H2 5099   2.834   0.345   0.876
 1632HOH      O 5100   3.494   3.150   1.044
 1632HOH     H1 5101   3.565   3.213   1.056
 1632HOH     H2 5102   3.423   3.202   1.006
 1633HOH      O 5103   3.256   0.248   3.583
 1633HOH     H1 5104   3.350   0.265   3.579
 1633HOH     H2 5105   3.237   0.198   3.504
 1634HOH      O 5106   1.554   0.414   1.538
 1634HOH     H1 5107   1.618   0.474   1.500
 1634HOH     H2 5108   1.511   0.467   1.606
 1635HOH      O 5109   2.735   0.019   2.264
 1635HOH     H1 5110   2.653   0.014   2.314
 1635HOH     H2 5111   2.800   0.043   2.330
 1636HOH      O 5112   0.587   1.667   1.656
 1636HOH     H1 5113   0.499   1.704   1.660
 1636HOH     H2 5114   0.598   1.641   1.564
 1637HOH      O 5115   1.511   2.511   0.235
 1637HOH     H1 5116   1.461   2.593   0.239
 1637HOH     H2 5117   1.574   2.525   0.165
 1638HOH      O 5118   3.128   3.360   1.299
 1638HOH     H1 5119   3.217   3.392   1.295
 1638HOH     H2 5120   3.132   3.285   1.358
 1639HOH      O 5121   1.554   1.209   2.477
 1639HOH     H1 5122   1.545   1.114   2.484
 1639HOH     H2 5123   1.618   1.232   2.545
 1640HOH      O 5124   3.919   0.873   3.497
 1640HOH     H1 5125   3.986   0.941   3.504
 1640HOH     H2 5126   3.857   0.893   3.567
 1641HOH      O 5127   1.787   1.502   1.962
 1641HOH     H1 5128   1.859   1.473   2.019
 1641HOH     H2 5129   1.712   1.508   2.021
 1642HOH      O 5130   2.197   3.679   0.967
 1642HOH     H1 5131   2.175   3.765   0.932
 1642HOH     H2 5132   2.155   3.617   0.907
 1643HOH      O 5133   1.062   1.537   3.826
 1643HOH     H1 5134   1.117   1.513   3.901
 1643HOH     H2 5135   1.021   1.619   3.852
 1644HOH      O 5136   3.308   0.666   1.098
 1644HOH     H1 5137   3.327   0.572   1.090
 1644HOH     H2 5138   3.213   0.669   1.114
 1645HOH      O 5139   2.581   1.077   0.376
 1645HOH     H1 5140   2.552   1.050   0.463
 1645HOH     H2 5141   2.588   1.172   0.380
 1646HOH      O 5142   3.044   3.743   2.260
 1646HOH     H1 5143   3.058   3.792   2.342
 1646HOH     H2 5144   3.125   3.693   2.249
 1647HOH      O 5145   0.081   0.846   0.106
 1647HOH     H1 5146   0.009   0.783   0.097
 1647HOH     H2 5147   0.130   0.838   0.024
 1648HOH      O 5148   1.198   1.166   1.116
 1648HOH     H1 5149   1.284   1.171   1.158
 1648HOH     H2 5150   1.201   1.085   1.065
 1649HOH      O 5151   1.115   2.001   0.207
 1649HOH     H1 5152   1.065   2.031   0.283
 1649HOH     H2 5153   1.092   2.063   0.137
 1650HOH      O 5154   3.384   0.299   0.435
 1650HOH     H1 5155   3.354   0.211   0.458
 1650HOH     H2 5156   3.476   0.287   0.412
 1651HOH      O 5157   1.602   0.149   1.630
 1651HOH     H1 5158   1.539   0.203   1.582
 1651HOH     H2 5159   1.592   0.061   1.593
 1652HOH      O 5160   1.307   2.376   0.026
 1652HOH     H1 5161   1.334   2.368  -0.065
 1652HOH     H2 5162   1.363   2.315   0.074
 1653HOH      O 5163   3.655   2.669   3.676
 1653HOH     H1 5164   3.644   2.647   3.768
 1653HOH     H2 5165   3.693   2.590   3.637
 1654HOH      O 5166   0.709   0.231   1.559
 1654HOH     H1 5167   0.784   0.265   1.510
 1654HOH     H2 5168   0.699   0.291   1.633
 1655HOH      O 5169   1.012   0.111   1.479
 1655HOH     H1 5170   0.978   0.188   1.434
 1655HOH     H2 5171   1.102   0.103   1.449
 1656HOH      O 5172   1.560   2.916   3.271
 1656HOH     H1 5173   1.571   2.827   3.237
 1656HOH     H2 5174   1.506   2.905   3.349
 1657HOH      O 5175   2.855   0.956   3.103
 1657HOH     H1 5176   2.808   0.968   3.186
 1657HOH     H2 5177   2.909   0.878   3.118
 1658HOH      O 5178   1.405   1.184   0.274
 1658HOH     H1 5179   1.330   1.157   0.221
 1658HOH     H2 5180   1.470   1.215   0.210
 1659HOH      O 5181   3.093   1.562   0.105
 1659HOH     H1 5182   3.032   1.569   0.179
 1659HOH     H2 5183   3.059   1.625   0.041
 1660HOH      O 5184   2.349   3.600   3.491
 1660HOH     H1 5185   2.304   3.523   3.456
 1660HOH     H2 5186   2.441   3.586   3.469
 1661HOH      O 5187   1.419   2.289   0.372
 1661HOH     H1 5188   1.446   2.376   0.342
 1661HOH     H2 5189   1.447   2.230   0.303
 1662HOH      O 5190   2.941   0.717   3.134
 1662HOH     H1 5191   3.032   0.740   3.152
 1662HOH     H2 5192   2.945   0.669   3.052
 1663HOH      O 5193   0.482   0.527   2.549
 1663HOH     H1 5194   0.520   0.576   2.477
 1663HOH     H2 5195   0.464   0.440   2.513
 1664HOH      O 5196   0.600   0.707   1.661
 1664HOH     H1 5197   0.673   0.716   1.723
 1664HOH     H2 5198   0.584   0.796   1.630
 1665HOH      O 5199   3.379   2.587   0.253
 1665HOH     H1 5200   3.303   2.605   0.198
 1665HOH     H2 5201   3.345   2.534   0.325
 1666HOH      O 5202   1.688   2.434   3.609
 1666HOH     H1 5203   1.743   2.357   3.619
 1666HOH     H2 5204   1.607   2.400   3.571
 1667HOH      O 5205   0.879   0.123   0.217
 1667HOH     H1 5206   0.840   0.174   0.146
 1667HOH     H2 5207   0.885   0.034   0.182
 1668HOH      O 5208   3.591   1.781   0.674
 1668HOH     H1 5209   3.619   1.816   0.759
 1668HOH     H2 5210   3.593   1.856   0.615
 1669HOH      O 5211   2.449   1.366   3.019
 1669HOH     H1 5212   2.471   1.382   3.111
 1669HOH     H2 5213   2.369   1.416   3.004
 1670HOH      O 5214   0.476   2.153   0.624
 1670HOH     H1 5215   0.459   2.071   0.578
 1670HOH     H2 5216   0.499   2.216   0.555
 1671HOH      O 5217   1.392   1.627   0.667
 1671HOH     H1 5218   1.455   1.699   0.672
 1671HOH     H2 5219   1.374   1.618   0.573
 1672HOH      O 5220   0.588   0.726   0.149
 1672HOH     H1 5221   0.617   0.652   0.095
 1672HOH     H2 5222   0.647   0.797   0.123
 1673HOH      O 5223   3.418   3.965   3.216
 1673HOH     H1 5224   3.423   3.880   3.172
 1673HOH     H2 5225   3.505   3.977   3.256
 1674HOH      O 5226   0.023   1.233   1.798
 1674HOH     H1 5227   0.060   1.212   1.883
 1674HOH     H2 5228  -0.070   1.247   1.815
 1675HOH      O 5229   3.776   2.943   0.930
 1675HOH     H1 5230   3.715   2.953   1.002
 1675HOH     H2 5231   3.797   3.032   0.903
 1676HOH      O 5232   3.302   3.890   0.727
 1676HOH     H1 5233   3.275   3.843   0.648
 1676HOH     H2 5234   3.371   3.835   0.765
 1677HOH      O 5235   3.653   2.959   0.635
 1677HOH     H1 5236   3.691   2.918   0.712
 1677HOH     H2 5237   3.649   2.889   0.570
 1678HOH      O 5238   1.928   2.525   1.026
 1678HOH     H1 5239   1.928   2.455   1.091
 1678HOH     H2 5240   1.889   2.486   0.948
 1679HOH      O 5241   1.816   3.770   1.625
 1679HOH     H1 5242   1.835   3.734   1.712
 1679HOH     H2 5243   1.899   3.764   1.577
 1680HOH      O 5244   2.524   3.107   0.925
 1680HOH     H1 5245   2.516   3.068   0.838
 1680HOH     H2 5246   2.606   3.071   0.960
 1681HOH      O 5247   3.605   2.255   0.426
 1681HOH     H1 5248   3.672   2.273   0.493
 1681HOH     H2 5249   3.608   2.330   0.368
 1682HOH      O 5250   2.929   4.043   3.868
 1682HOH     H1 5251   2.854   3.986   3.849
 1682HOH     H2 5252   2.975   4.050   3.784
 1683HOH      O 5253   2.047   0.728   3.425
 1683HOH     H1 5254   1.973   0.697   3.477
 1683HOH     H2 5255   2.119   0.736   3.487
 1684HOH      O 5256   3.969   0.118   1.388
 1684HOH     H1 5257   3.901   0.135   1.323
 1684HOH     H2 5258   3.970   0.197   1.442
 1685HOH      O 5259   0.028   1.934   0.057
 1685HOH     H1 5260  -0.011   1.967  -0.024
 1685HOH     H2 5261   0.006   1.841   0.058
 1686HOH      O 5262   3.923   1.484   3.001
 1686HOH     H1 5263   3.984   1.521   3.066
 1686HOH     H2 5264   3.951   1.522   2.918
 1687HOH      O 5265   0.623   1.940   1.775
 1687HOH     H1 5266   0.654   1.987   1.697
 1687HOH     H2 5267   0.632   1.848   1.751
 1688HOH      O 5268   0.178   1.617   3.886
 1688HOH     H1 5269   0.135   1.600   3.802
 1688HOH     H2 5270   0.202   1.531   3.919
 1689HOH      O 5271   0.961   3.111   1.241
 1689HOH     H1 5272   1.041   3.102   1.293
 1689HOH     H2 5273   0.895   3.062   1.291
 1690HOH      O 5274   2.175   1.140   2.588
 1690HOH     H1 5275   2.175   1.102   2.676
 1690HOH     H2 5276   2.266   1.139   2.560
 1691HOH      O 5277   2.020   2.270   3.685
 1691HOH     H1 5278   2.019   2.318   3.768
 1691HOH     H2 5279   2.043   2.180   3.710
 1692HOH      O 5280   1.498   0.367   1.973
 1692HOH     H1 5281   1.414   0.321   1.978
 1692HOH     H2 5282   1.556   0.315   2.029
 1693HOH      O 5283   1.081   3.777   2.856
 1693HOH     H1 5284   1.162   3.814   2.820
 1693HOH     H2 5285   1.109   3.699   2.904
 1694HOH      O 5286   0.299   3.320   2.099
 1694HOH     H1 5287   0.288   3.288   2.010
 1694HOH     H2 5288   0.355   3.397   2.090
 1695HOH      O 5289   1.086   0.501   0.699
 1695HOH     H1 5290   1.079   0.515   0.605
 1695HOH     H2 5291   1.174   0.467   0.712
 1696HOH      O 5292   2.101   2.211   0.218
 1696HOH     H1 5293   2.018   2.257   0.215
 1696HOH     H2 5294   2.088   2.142   0.283
 1697HOH      O 5295   1.596   2.690   2.308
 1697HOH     H1 5296   1.578   2.746   2.384
 1697HOH     H2 5297   1.651   2.620   2.342
 1698HOH      O 5298   2.742   3.732   3.179
 1698HOH     H1 5299   2.759   3.654   3.126
 1698HOH     H2 5300   2.827   3.775   3.186
 1699HOH      O 5301   3.881   0.880   2.101
 1699HOH     H1 5302   3.946   0.860   2.168
 1699HOH     H2 5303   3.822   0.804   2.102
 1700HOH      O 5304   1.614   0.569   0.697
 1700HOH     H1 5305   1.640   0.477   0.688
 1700HOH     H2 5306   1.697   0.616   0.706
 1701HOH      O 5307   2.433   0.151   3.798
 1701HOH     H1 5308   2.446   0.212   3.870
 1701HOH     H2 5309   2.409   0.069   3.840
 1702HOH      O 5310   0.222   1.854   3.383
 1702HOH     H1 5311   0.295   1.856   3.322
 1702HOH     H2 5312   0.254   1.900   3.461
 1703HOH      O 5313   3.940   1.150   0.424
 1703HOH     H1 5314   3.871   1.105   0.473
 1703HOH     H2 5315   3.909   1.240   0.415
 1704HOH      O 5316   3.079   3.737   3.122
 1704HOH     H1 5317   3.153   3.711   3.176
 1704HOH     H2 5318   3.110   3.812   3.072
 1705HOH      O 5319   0.665   0.923   1.318
 1705HOH     H1 5320   0.730   0.866   1.277
 1705HOH     H2 5321   0.580   0.890   1.287
 1706HOH      O 5322   3.582   1.530   3.339
 1706HOH     H1 5323   3.668   1.569   3.323
 1706HOH     H2 5324   3.556   1.563   3.425
 1707HOH      O 5325   1.445   3.925   1.291
 1707HOH     H1 5326   1.463   3.979   1.214
 1707HOH     H2 5327   1.484   3.972   1.364
 1708HOH      O 5328   0.022   0.937   2.664
 1708HOH     H1 5329   0.098   0.879   2.672
 1708HOH     H2 5330  -0.011   0.946   2.753
 1709HOH      O 5331   0.839   0.304   1.822
 1709HOH     H1 5332   0.859   0.286   1.914
 1709HOH     H2 5333   0.923   0.330   1.784
 1710HOH      O 5334   2.134   1.794   1.610
 1710HOH     H1 5335   2.113   1.885   1.632
 1710HOH     H2 5336   2.228   1.796   1.593
 1711HOH      O 5337   1.947   2.886   3.056
 1711HOH     H1 5338   1.991   2.915   2.976
 1711HOH     H2 5339   1.905   2.965   3.090
 1712HOH      O 5340   2.491   3.940   2.866
 1712HOH     H1 5341   2.542   3.859   2.860
 1712HOH     H2 5342   2.470   3.949   2.958
 1713HOH      O 5343   2.380   2.731   2.336
 1713HOH     H1 5344   2.339   2.809   2.373
 1713HOH     H2 5345   2.468   2.730   2.373
 1714HOH      O 5346   0.033   2.177   3.541
 1714HOH     H1 5347   0.061   2.256   3.495
 1714HOH     H2 5348  -0.037   2.206   3.599
 1715HOH      O 5349   2.914   0.296   2.587
 1715HOH     H1 5350   2.823   0.286   2.615
 1715HOH     H2 5351   2.938   0.211   2.550
 1716HOH      O 5352   2.346   3.867   3.361
 1716HOH     H1 5353   2.325   3.784   3.403
 1716HOH     H2 5354   2.273   3.925   3.384
 1717HOH      O 5355   3.576   1.517   0.648
 1717HOH     H1 5356   3.593   1.609   0.669
 1717HOH     H2 5357   3.661   1.475   0.653
 1718HOH      O 5358   3.694   1.564   0.075
 1718HOH     H1 5359   3.744   1.487   0.047
 1718HOH     H2 5360   3.603   1.539   0.063
 1719HOH      O 5361   2.999   2.514   3.789
 1719HOH     H1 5362   2.959   2.453   3.726
 1719HOH     H2 5363   3.053   2.572   3.734
 1720HOH      O 5364   2.816   1.527   0.236
 1720HOH     H1 5365   2.806   1.434   0.255
 1720HOH     H2 5366   2.803   1.571   0.320
 1721HOH      O 5367   3.695   4.007   0.718
 1721HOH     H1 5368   3.626   4.025   0.654
 1721HOH     H2 5369   3.683   3.914   0.741
 1722HOH      O 5370   3.312   0.637   2.439
 1722HOH     H1 5371   3.284   0.575   2.506
 1722HOH     H2 5372   3.236   0.694   2.427
 1723HOH      O 5373   0.527   2.201   3.954
 1723HOH     H1 5374   0.441   2.163   3.974
 1723HOH     H2 5375   0.585   2.125   3.946
 1724HOH      O 5376   3.811   2.342   0.600
 1724HOH     H1 5377   3.827   2.435   0.612
 1724HOH     H2 5378   3.886   2.311   0.549
 1725HOH      O 5379   3.162   0.401   3.865
 1725HOH     H1 5380   3.131   0.337   3.928
 1725HOH     H2 5381   3.256   0.409   3.882
 1726HOH      O 5382   2.210   3.847   3.766
 1726HOH     H1 5383   2.135   3.829   3.822
 1726HOH     H2 5384   2.180   3.826   3.678
 1727HOH      O 5385   2.864   1.893   1.218
 1727HOH     H1 5386   2.881   1.898   1.312
 1727HOH     H2 5387   2.771   1.915   1.209
 1728HOH      O 5388   0.150   2.200   0.313
 1728HOH     H1 5389   0.209   2.147   0.366
 1728HOH     H2 5390   0.068   2.151   0.313
 1729HOH      O 5391   2.703   3.041   3.761
 1729HOH     H1 5392   2.736   2.969   3.815
 1729HOH     H2 5393   2.709   3.009   3.671
 1730HOH      O 5394   1.118   1.646   1.854
 1730HOH     H1 5395   1.058   1.573   1.860
 1730HOH     H2 5396   1.174   1.626   1.779
 1731HOH      O 5397   0.542   0.195   1.116
 1731HOH     H1 5398   0.597   0.117   1.107
 1731HOH     H2 5399   0.510   0.191   1.206
 1732HOH      O 5400   3.504   3.895   1.697
 1732HOH     H1 5401   3.500   3.876   1.791
 1732HOH     H2 5402   3.432   3.844   1.659
 1733HOH      O 5403   3.595   0.646   3.087
 1733HOH     H1 5404   3.685   0.615   3.097
 1733HOH     H2 5405   3.604   0.731   3.044
 1734HOH      O 5406   0.411   3.565   2.029
 1734HOH     H1 5407   0.454   3.534   1.949
 1734HOH     H2 5408   0.335   3.614   1.998
 1735HOH      O 5409   1.049   2.750   2.102
 1735HOH     H1 5410   1.073   2.823   2.046
 1735HOH     H2 5411   1.018   2.790   2.182
 1736HOH      O 5412   0.702   3.769   0.767
 1736HOH     H1 5413   0.734   3.710   0.835
 1736HOH     H2 5414   0.729   3.856   0.796
 1737HOH      O 5415   0.958   1.255   1.196
 1737HOH     H1 5416   0.978   1.301   1.277
 1737HOH     H2 5417   1.042   1.247   1.151
 1738HOH      O 5418   3.120   0.183   2.819
 1738HOH     H1 5419   3.140   0.268   2.858
 1738HOH     H2 5420   3.186   0.124   2.855
 1739HOH      O 5421   0.441   3.752   2.231
 1739HOH     H1 5422   0.456   3.684   2.165
 1739HOH     H2 5423   0.407   3.827   2.181
 1740HOH      O 5424   2.440   1.875   3.477
 1740HOH     H1 5425   2.508   1.815   3.509
 1740HOH     H2 5426   2.379   1.819   3.430
 1741HOH      O 5427   2.139   0.405   1.216
 1741HOH     H1 5428   2.103   0.488   1.184
 1741HOH     H2 5429   2.091   0.338   1.167
 1742HOH      O 5430   3.076   3.749   1.947
 1742HOH     H1 5431   3.041   3.773   2.032
 1742HOH     H2 5432   3.162   3.790   1.944
 1743HOH      O 5433   2.848   3.407   0.113
 1743HOH     H1 5434   2.805   3.323   0.124
 1743HOH     H2 5435   2.907   3.415   0.188
 1744HOH      O 5436   0.503   1.262   0.668
 1744HOH     H1 5437   0.586   1.241   0.625
 1744HOH     H2 5438   0.443   1.195   0.638
 1745HOH      O 5439   1.117   0.271   0.300
 1745HOH     H1 5440   1.081   0.352   0.336
 1745HOH     H2 5441   1.041   0.222   0.270
 1746HOH      O 5442   2.101   0.481   2.604
 1746HOH     H1 5443   2.151   0.459   2.683
 1746HOH     H2 5444   2.103   0.577   2.600
 1747HOH      O 5445   0.616   3.263   1.877
 1747HOH     H1 5446   0.617   3.292   1.786
 1747HOH     H2 5447   0.598   3.169   1.872
 1748HOH      O 5448   3.000   2.235   1.244
 1748HOH     H1 5449   2.925   2.204   1.294
 1748HOH     H2 5450   2.967   2.242   1.154
 1749HOH      O 5451   3.262   0.292   1.337
 1749HOH     H1 5452   3.301   0.377   1.357
 1749HOH     H2 5453   3.294   0.233   1.404
 1750HOH      O 5454   2.264   1.864   3.903
 1750HOH     H1 5455   2.286   1.790   3.846
 1750HOH     H2 5456   2.179   1.841   3.940
 1751HOH      O 5457   3.547   0.427   0.868
 1751HOH     H1 5458   3.491   0.406   0.944
 1751HOH     H2 5459   3.613   0.487   0.903
 1752HOH      O 5460   1.248   1.191   1.739
 1752HOH     H1 5461   1.216   1.190   1.829
 1752HOH     H2 5462   1.210   1.114   1.698
 1753HOH      O 5463   1.310   0.372   0.747
 1753HOH     H1 5464   1.377   0.318   0.789
 1753HOH     H2 5465   1.347   0.396   0.663
 1754HOH      O 5466   2.291   3.577   2.326
 1754HOH     H1 5467   2.342   3.538   2.255
 1754HOH     H2 5468   2.250   3.654   2.287
 1755HOH      O 5469   3.219   2.560   0.606
 1755HOH     H1 5470   3.217   2.653   0.583
 1755HOH     H2 5471   3.215   2.559   0.702
 1756HOH      O 5472   2.436   3.794   0.884
 1756HOH     H1 5473   2.385   3.830   0.812
 1756HOH     H2 5474   2.371   3.773   0.951
 1757HOH      O 5475   3.081   0.364   3.150
 1757HOH     H1 5476   3.136   0.373   3.072
 1757HOH     H2 5477   3.082   0.270   3.169
 1758HOH      O 5478   3.878   1.800   2.739
 1758HOH     H1 5479   3.787   1.783   2.765
 1758HOH     H2 5480   3.875   1.887   2.700
 1759HOH      O 5481   3.798   0.833   0.473
 1759HOH     H1 5482   3.890   0.857   0.467
 1759HOH     H2 5483   3.798   0.751   0.522
 1760HOH      O 5484   0.283   3.746   2.490
 1760HOH     H1 5485   0.312   3.747   2.398
 1760HOH     H2 5486   0.228   3.667   2.497
 1761HOH      O 5487   3.036   3.300   1.013
 1761HOH     H1 5488   3.107   3.363   0.998
 1761HOH     H2 5489   3.037   3.285   1.108
 1762HOH      O 5490   2.660   2.971   0.044
 1762HOH     H1 5491   2.694   2.895  -0.004
 1762HOH     H2 5492   2.577   2.991   0.000
 1763HOH      O 5493   3.792   0.565   0.559
 1763HOH     H1 5494   3.785   0.471   0.576
 1763HOH     H2 5495   3.886   0.581   0.550
 1764HOH      O 5496   4.012   3.750   2.587
 1764HOH     H1 5497   4.054   3.684   2.532
 1764HOH     H2 5498   3.926   3.763   2.548
 1765HOH      O 5499   3.857   0.970   4.003
 1765HOH     H1 5500   3.765   0.993   4.018
 1765HOH     H2 5501   3.889   0.943   4.089
 1766HOH      O 5502   3.885   0.385   1.250
 1766HOH     H1 5503   3.933   0.419   1.325
 1766HOH     H2 5504   3.821   0.452   1.229
 1767HOH      O 5505   4.026   2.779   0.992
 1767HOH     H1 5506   3.966   2.756   1.063
 1767HOH     H2 5507   3.977   2.842   0.939
 1768HOH      O 5508   3.084   1.661   3.196
 1768HOH     H1 5509   3.141   1.615   3.257
 1768HOH     H2 5510   3.097   1.754   3.216
 1769HOH      O 5511   2.740   0.148   1.203
 1769HOH     H1 5512   2.787   0.228   1.228
 1769HOH     H2 5513   2.741   0.149   1.107
 1770HOH      O 5514   2.919   0.790   1.455
 1770HOH     H1 5515   2.945   0.880   1.431
 1770HOH     H2 5516   2.965   0.772   1.536
 1771HOH      O 5517   1.081   3.617   3.058
 1771HOH     H1 5518   1.158   3.569   3.090
 1771HOH     H2 5519   1.040   3.652   3.137
 1772HOH      O 5520   3.951   1.521   2.451
 1772HOH     H1 5521   3.871   1.479   2.418
 1772HOH     H2 5522   4.018   1.453   2.445
 1773HOH      O 5523   0.114   1.843   0.367
 1773HOH     H1 5524   0.030   1.885   0.351
 1773HOH     H2 5525   0.115   1.826   0.462
 1774HOH      O 5526   1.283   0.375   2.892
 1774HOH     H1 5527   1.206   0.321   2.913
 1774HOH     H2 5528   1.288   0.438   2.964
 1775HOH      O 5529   2.183   1.774   2.484
 1775HOH     H1 5530   2.131   1.807   2.558
 1775HOH     H2 5531   2.120   1.764   2.413
 1776HOH      O 5532   1.884   3.254   0.558
 1776HOH     H1 5533   1.939   3.301   0.620
 1776HOH     H2 5534   1.936   3.177   0.535
 1777HOH      O 5535   1.815   1.741   3.451
 1777HOH     H1 5536   1.868   1.816   3.424
 1777HOH     H2 5537   1.729   1.759   3.414
 1778HOH      O 5538   1.729   3.641   3.701
 1778HOH     H1 5539   1.761   3.614   3.787
 1778HOH     H2 5540   1.801   3.621   3.642
 1779HOH      O 5541   2.461   3.569   3.950
 1779HOH     H1 5542   2.441   3.618   3.870
 1779HOH     H2 5543   2.555   3.582   3.963
 1780HOH      O 5544   1.288   2.498   3.111
 1780HOH     H1 5545   1.251   2.462   3.191
 1780HOH     H2 5546   1.383   2.494   3.124
 1781HOH      O 5547   3.668   3.628   3.355
 1781HOH     H1 5548   3.605   3.620   3.283
 1781HOH     H2 5549   3.622   3.594   3.431
 1782HOH      O 5550   1.808   0.230   3.669
 1782HOH     H1 5551   1.805   0.308   3.725
 1782HOH     H2 5552   1.721   0.227   3.628
 1783HOH      O 5553   2.045   2.438   2.687
 1783HOH     H1 5554   2.080   2.467   2.771
 1783HOH     H2 5555   2.098   2.362   2.664
 1784HOH      O 5556   2.351   1.640   2.115
 1784HOH     H1 5557   2.304   1.561   2.087
 1784HOH     H2 5558   2.408   1.661   2.041
 1785HOH      O 5559   1.631   3.887   0.508
 1785HOH     H1 5560   1.558   3.834   0.477
 1785HOH     H2 5561   1.597   3.933   0.584
 1786HOH      O 5562   3.514   1.247   3.794
 1786HOH     H1 5563   3.449   1.313   3.771
 1786HOH     H2 5564   3.502   1.233   3.888
 1787HOH      O 5565   0.985   1.663   1.334
 1787HOH     H1 5566   0.950   1.674   1.246
 1787HOH     H2 5567   1.041   1.740   1.347
 1788HOH      O 5568   3.235   2.307   2.237
 1788HOH     H1 5569   3.300   2.237   2.229
 1788HOH     H2 5570   3.274   2.382   2.192
 1789HOH      O 5571   2.262   0.591   2.188
 1789HOH     H1 5572   2.238   0.515   2.135
 1789HOH     H2 5573   2.356   0.579   2.204
 1790HOH      O 5574   2.376   1.575   1.237
 1790HOH     H1 5575   2.390   1.500   1.180
 1790HOH     H2 5576   2.387   1.541   1.326
 1791HOH      O 5577   2.414   0.074   0.378
 1791HOH     H1 5578   2.372   0.072   0.292
 1791HOH     H2 5579   2.496   0.122   0.364
 1792HOH      O 5580   0.191   0.047   0.731
 1792HOH     H1 5581   0.125  -0.012   0.694
 1792HOH     H2 5582   0.193   0.121   0.672
 1793HOH      O 5583   2.469   1.423   0.332
 1793HOH     H1 5584   2.549   1.405   0.382
 1793HOH     H2 5585   2.479   1.513   0.302
 1794HOH      O 5586   0.515   0.249   2.838
 1794HOH     H1 5587   0.451   0.220   2.902
 1794HOH     H2 5588   0.488   0.209   2.756
 1795HOH      O 5589   1.094   1.723   3.158
 1795HOH     H1 5590   1.183   1.690   3.172
 1795HOH     H2 5591   1.038   1.646   3.168
 1796HOH      O 5592   3.812   1.634   3.262
 1796HOH     H1 5593   3.763   1.639   3.180
 1796HOH     H2 5594   3.869   1.711   3.261
 1797HOH      O 5595   1.129   2.669   2.403
 1797HOH     H1 5596   1.156   2.579   2.385
 1797HOH     H2 5597   1.209   2.713   2.431
 1798HOH      O 5598   3.670   3.157   1.393
 1798HOH     H1 5599   3.588   3.167   1.442
 1798HOH     H2 5600   3.712   3.081   1.433
 1799HOH      O 5601   2.335   1.139   1.660
 1799HOH     H1 5602   2.265   1.084   1.624
 1799HOH     H2 5603   2.351   1.104   1.747
 1800HOH      O 5604   3.569   3.976   2.921
 1800HOH     H1 5605   3.499   4.040   2.911
 1800HOH     H2 5606   3.534   3.910   2.980
 1801HOH      O 5607   2.606   2.266   3.618
 1801HOH     H1 5608   2.677   2.328   3.601
 1801HOH     H2 5609   2.562   2.302   3.695
 1802HOH      O 5610   0.210   0.913   3.359
 1802HOH     H1 5611   0.141   0.920   3.293
 1802HOH     H2 5612   0.289   0.941   3.314
 1803HOH      O 5613   1.820   0.077   2.526
 1803HOH     H1 5614   1.874   0.003   2.554
 1803HOH     H2 5615   1.735   0.038   2.505
 1804HOH      O 5616   1.740   3.569   2.538
 1804HOH     H1 5617   1.822   3.580   2.489
 1804HOH     H2 5618   1.765   3.578   2.630
 1805HOH      O 5619   0.542   2.756   3.407
 1805HOH     H1 5620   0.476   2.821   3.383
 1805HOH     H2 5621   0.604   2.805   3.462
 1806HOH      O 5622   0.358   0.030   2.116
 1806HOH     H1 5623   0.287   0.011   2.177
 1806HOH     H2 5624   0.327  -0.004   2.032
 1807HOH      O 5625   2.257   3.960   0.609
 1807HOH     H1 5626   2.327   4.020   0.585
 1807HOH     H2 5627   2.178   4.000   0.571
 1808HOH      O 5628   1.297   1.510   3.321
 1808HOH     H1 5629   1.390   1.526   3.307
 1808HOH     H2 5630   1.274   1.444   3.256
 1809HOH      O 5631   0.275   3.816   3.026
 1809HOH     H1 5632   0.209   3.776   2.969
 1809HOH     H2 5633   0.310   3.888   2.975
 1810HOH      O 5634   0.983   3.999   2.425
 1810HOH     H1 5635   1.026   3.920   2.392
 1810HOH     H2 5636   0.890   3.978   2.424
 1811HOH      O 5637   0.891   1.565   2.885
 1811HOH     H1 5638   0.899   1.552   2.979
 1811HOH     H2 5639   0.961   1.627   2.863
 1812HOH      O 5640   3.562   1.582   1.847
 1812HOH     H1 5641   3.601   1.591   1.934
 1812HOH     H2 5642   3.520   1.497   1.848
 1813HOH      O 5643   3.894   3.273   3.652
 1813HOH     H1 5644   3.989   3.268   3.643
 1813HOH     H2 5645   3.874   3.366   3.643
 1814HOH      O 5646   2.293   0.918   3.203
 1814HOH     H1 5647   2.320   0.845   3.258
 1814HOH     H2 5648   2.197   0.913   3.202
 1815HOH      O 5649   0.484   4.001   3.072
 1815HOH     H1 5650   0.531   3.918   3.063
 1815HOH     H2 5651   0.553   4.066   3.087
 1816HOH      O 5652   0.472   1.324   3.835
 1816HOH     H1 5653   0.476   1.369   3.920
 1816HOH     H2 5654   0.477   1.231   3.857
 1817HOH      O 5655   0.415   3.256   1.287
 1817HOH     H1 5656   0.472   3.290   1.356
 1817HOH     H2 5657   0.368   3.183   1.328
 1818HOH      O 5658   1.376   3.660   0.166
 1818HOH     H1 5659   1.391   3.574   0.126
 1818HOH     H2 5660   1.384   3.722   0.094
 1819HOH      O 5661   3.117   2.630   1.613
 1819HOH     H1 5662   3.206   2.637   1.578
 1819HOH     H2 5663   3.075   2.713   1.588
 1820HOH      O 5664   0.836   1.157   3.532
 1820HOH     H1 5665   0.876   1.210   3.601
 1820HOH     H2 5666   0.754   1.125   3.571
 1821HOH      O 5667   2.289   3.759   4.061
 1821HOH     H1 5668   2.207   3.760   4.012
 1821HOH     H2 5669   2.333   3.679   4.033
 1822HOH      O 5670   2.836   1.832   0.836
 1822HOH     H1 5671   2.891   1.769   0.789
 1822HOH     H2 5672   2.746   1.803   0.817
 1823HOH      O 5673   1.791   0.511   2.057
 1823HOH     H1 5674   1.859   0.493   2.123
 1823HOH     H2 5675   1.729   0.439   2.068
 1824HOH      O 5676   0.136   1.950   0.853
 1824HOH     H1 5677   0.210   1.938   0.914
 1824HOH     H2 5678   0.130   2.045   0.842
 1825HOH      O 5679   0.962   3.982   2.050
 1825HOH     H1 5680   0.958   4.063   2.101
 1825HOH     H2 5681   1.049   3.946   2.070
 1826HOH      O 5682   1.814   3.602   3.946
 1826HOH     H1 5683   1.796   3.556   4.028
 1826HOH     H2 5684   1.856   3.684   3.974
 1827HOH      O 5685   3.024   2.504   3.328
 1827HOH     H1 5686   3.036   2.587   3.374
 1827HOH     H2 5687   3.113   2.473   3.311
 1828HOH      O 5688   1.021   1.520   0.148
 1828HOH     H1 5689   0.978   1.587   0.096
 1828HOH     H2 5690   0.984   1.531   0.236
 1829HOH      O 5691   1.848   2.375   0.195
 1829HOH     H1 5692   1.814   2.461   0.174
 1829HOH     H2 5693   1.803   2.316   0.135
 1830HOH      O 5694   1.364   1.524   3.720
 1830HOH     H1 5695   1.319   1.584   3.780
 1830HOH     H2 5696   1.341   1.437   3.751
 1831HOH      O 5697   3.507   1.139   2.352
 1831HOH     H1 5698   3.468   1.159   2.437
 1831HOH     H2 5699   3.472   1.207   2.294
 1832HOH      O 5700   2.697   0.413   2.040
 1832HOH     H1 5701   2.714   0.480   1.974
 1832HOH     H2 5702   2.711   0.330   1.995
 1833HOH      O 5703   2.870   0.633   0.852
 1833HOH     H1 5704   2.826   0.580   0.785
 1833HOH     H2 5705   2.944   0.673   0.807
 1834HOH      O 5706   3.607   2.142   1.401
 1834HOH     H1 5707   3.577   2.131   1.491
 1834HOH     H2 5708   3.613   2.052   1.367
 1835HOH      O 5709   1.665   3.732   2.198
 1835HOH     H1 5710   1.649   3.670   2.127
 1835HOH     H2 5711   1.761   3.736   2.205
 1836HOH      O 5712   2.330   1.355   0.099
 1836HOH     H1 5713   2.372   1.378   0.182
 1836HOH     H2 5714   2.403   1.346   0.037
 1837HOH      O 5715   0.410   0.270   2.493
 1837HOH     H1 5716   0.466   0.226   2.429
 1837HOH     H2 5717   0.393   0.204   2.560
 1838HOH      O 5718   0.058   1.754   2.130
 1838HOH     H1 5719   0.038   1.665   2.159
 1838HOH     H2 5720   0.152   1.755   2.116
 1839HOH      O 5721   3.983   4.031   0.906
 1839HOH     H1 5722   3.964   3.944   0.872
 1839HOH     H2 5723   3.963   4.026   0.999
 1840HOH      O 5724   1.668   0.937   2.505
 1840HOH     H1 5725   1.755   0.973   2.487
 1840HOH     H2 5726   1.686   0.854   2.551
 1841HOH      O 5727   1.889   0.905   2.224
 1841HOH     H1 5728   1.899   0.923   2.318
 1841HOH     H2 5729   1.923   0.817   2.213
 1842HOH      O 5730   1.830   0.101   4.039
 1842HOH     H1 5731   1.888   0.139   3.973
 1842HOH     H2 5732   1.799   0.176   4.090
 1843HOH      O 5733   0.897   1.605   1.038
 1843HOH     H1 5734   0.817   1.554   1.045
 1843HOH     H2 5735   0.880   1.667   0.968
 1844HOH      O 5736   3.311   0.146   0.862
 1844HOH     H1 5737   3.397   0.133   0.900
 1844HOH     H2 5738   3.251   0.105   0.924
 1845HOH      O 5739   0.302   2.022   3.611
 1845HOH     H1 5740   0.224   2.077   3.615
 1845HOH     H2 5741   0.375   2.084   3.615
 1846HOH      O 5742   3.496   2.274   1.985
 1846HOH     H1 5743   3.512   2.344   1.922
 1846HOH     H2 5744   3.536   2.197   1.946
 1847HOH      O 5745   3.514   0.794   2.068
 1847HOH     H1 5746   3.460   0.715   2.075
 1847HOH     H2 5747   3.562   0.783   1.986
 1848HOH      O 5748   3.538   2.798   1.662
 1848HOH     H1 5749   3.554   2.726   1.722
 1848HOH     H2 5750   3.462   2.771   1.610
 1849HOH      O 5751   0.764   0.598   0.371
 1849HOH     H1 5752   0.698   0.600   0.302
 1849HOH     H2 5753   0.717   0.568   0.449
 1850HOH      O 5754   2.169   3.070   1.575
 1850HOH     H1 5755   2.152   3.163   1.590
 1850HOH     H2 5756   2.263   3.060   1.586
 1851HOH      O 5757   3.996   1.975   2.019
 1851HOH     H1 5758   4.026   1.912   2.085
 1851HOH     H2 5759   3.902   1.983   2.036
 1852HOH      O 5760   0.675   1.038   1.974
 1852HOH     H1 5761   0.605   1.023   1.910
 1852HOH     H2 5762   0.641   1.107   2.031
 1853HOH      O 5763   2.582   4.011   0.657
 1853HOH     H1 5764   2.626   3.929   0.680
 1853HOH     H2 5765   2.553   3.999   0.567
 1854HOH      O 5766   3.876   0.077   2.318
 1854HOH     H1 5767   3.889   0.077   2.413
 1854HOH     H2 5768   3.803   0.137   2.303
 1855HOH      O 5769   0.344   3.094   1.493
 1855HOH     H1 5770   0.327   3.001   1.510
 1855HOH     H2 5771   0.418   3.115   1.550
 1856HOH      O 5772   2.334   2.465   0.008
 1856HOH     H1 5773   2.372   2.401   0.068
 1856HOH     H2 5774   2.319   2.542   0.063
 1857HOH      O 5775   1.649   1.195   0.498
 1857HOH     H1 5776   1.598   1.250   0.558
 1857HOH     H2 5777   1.585   1.135   0.460
 1858HOH      O 5778   3.450   0.093   1.512
 1858HOH     H1 5779   3.487   0.024   1.568
 1858HOH     H2 5780   3.487   0.075   1.425
 1859HOH      O 5781   2.654   0.386   1.669
 1859HOH     H1 5782   2.593   0.348   1.605
 1859HOH     H2 5783   2.716   0.437   1.615
 1860HOH      O 5784   3.148   3.945   0.923
 1860HOH     H1 5785   3.216   3.937   0.856
 1860HOH     H2 5786   3.069   3.968   0.873
 1861HOH      O 5787   3.281   1.929   3.528
 1861HOH     H1 5788   3.223   1.937   3.453
 1861HOH     H2 5789   3.362   1.972   3.501
 1862HOH      O 5790   1.482   2.720   1.630
 1862HOH     H1 5791   1.511   2.773   1.705
 1862HOH     H2 5792   1.397   2.686   1.657
 1863HOH      O 5793   0.879   1.552   3.205
 1863HOH     H1 5794   0.816   1.623   3.196
 1863HOH     H2 5795   0.884   1.535   3.299
 1864HOH      O 5796   3.717   3.338   0.891
 1864HOH     H1 5797   3.670   3.405   0.939
 1864HOH     H2 5798   3.763   3.288   0.958
 1865HOH      O 5799   0.901   1.798   2.545
 1865HOH     H1 5800   0.818   1.798   2.497
 1865HOH     H2 5801   0.887   1.736   2.617
 1866HOH      O 5802   1.139   1.640   2.755
 1866HOH     H1 5803   1.214   1.699   2.752
 1866HOH     H2 5804   1.164   1.571   2.816
 1867HOH      O 5805   3.232   3.176   3.602
 1867HOH     H1 5806   3.196   3.253   3.646
 1867HOH     H2 5807   3.159   3.114   3.600
 1868HOH      O 5808   1.463   1.260   0.980
 1868HOH     H1 5809   1.396   1.211   0.932
 1868HOH     H2 5810   1.441   1.352   0.965
 1869HOH      O 5811   3.104   1.465   2.174
 1869HOH     H1 5812   3.152   1.540   2.209
 1869HOH     H2 5813   3.119   1.468   2.080
 1870HOH      O 5814   2.131   0.029   3.355
 1870HOH     H1 5815   2.154   0.089   3.284
 1870HOH     H2 5816   2.038   0.046   3.371
 1871HOH      O 5817   0.290   3.631   1.395
 1871HOH     H1 5818   0.385   3.646   1.391
 1871HOH     H2 5819   0.275   3.556   1.337
 1872HOH      O 5820   2.982   3.982   2.828
 1872HOH     H1 5821   2.901   4.006   2.782
 1872HOH     H2 5822   3.033   4.063   2.832
 1873HOH      O 5823   0.335   0.932   0.194
 1873HOH     H1 5824   0.369   0.857   0.144
 1873HOH     H2 5825   0.245   0.941   0.164
 1874HOH      O 5826   1.585   3.927   2.409
 1874HOH     H1 5827   1.498   3.965   2.399
 1874HOH     H2 5828   1.589   3.857   2.344
 1875HOH      O 5829   0.884   3.266   0.091
 1875HOH     H1 5830   0.826   3.299   0.159
 1875HOH     H2 5831   0.959   3.229   0.139
 1876HOH      O 5832   0.160  -0.001   2.320
 1876HOH     H1 5833   0.138  -0.064   2.389
 1876HOH     H2 5834   0.146   0.085   2.361
 1877HOH      O 5835   2.615   3.669   1.654
 1877HOH     H1 5836   2.691   3.661   1.711
 1877HOH     H2 5837   2.651   3.690   1.568
 1878HOH      O 5838   2.561   0.596   2.226
 1878HOH     H1 5839   2.623   0.612   2.297
 1878HOH     H2 5840   2.615   0.559   2.156
 1879HOH      O 5841   1.298   3.331   3.445
 1879HOH     H1 5842   1.238   3.261   3.470
 1879HOH     H2 5843   1.383   3.304   3.478
 1880HOH      O 5844   2.245   0.824   2.060
 1880HOH     H1 5845   2.246   0.744   2.113
 1880HOH     H2 5846   2.228   0.793   1.971
 1881HOH      O 5847   1.012   2.383   0.560
 1881HOH     H1 5848   1.057   2.444   0.501
 1881HOH     H2 5849   0.989   2.436   0.636
 1882HOH      O 5850   0.821   0.516   3.001
 1882HOH     H1 5851   0.883   0.584   2.974
 1882HOH     H2 5852   0.747   0.526   2.941
 1883HOH      O 5853   2.936   3.514   2.131
 1883HOH     H1 5854   2.934   3.601   2.170
 1883HOH     H2 5855   3.024   3.507   2.092
 1884HOH      O 5856   2.413   3.489   2.105
 1884HOH     H1 5857   2.421   3.403   2.063
 1884HOH     H2 5858   2.489   3.538   2.074
 1885HOH      O 5859   2.246   2.998   3.454
 1885HOH     H1 5860   2.288   3.050   3.523
 1885HOH     H2 5861   2.258   2.907   3.480
 1886HOH      O 5862   2.799   2.775   1.166
 1886HOH     H1 5863   2.874   2.831   1.185
 1886HOH     H2 5864   2.760   2.813   1.087
 1887HOH      O 5865   1.980   1.805   2.978
 1887HOH     H1 5866   1.926   1.812   3.056
 1887HOH     H2 5867   1.942   1.732   2.928
 1888HOH      O 5868   0.218   3.029   3.861
 1888HOH     H1 5869   0.291   3.017   3.801
 1888HOH     H2 5870   0.147   2.977   3.825
 1889HOH      O 5871   1.872   0.090   1.314
 1889HOH     H1 5872   1.964   0.090   1.339
 1889HOH     H2 5873   1.845  -0.002   1.319
 1890HOH      O 5874   2.440   1.685   2.375
 1890HOH     H1 5875   2.417   1.674   2.283
 1890HOH     H2 5876   2.362   1.723   2.416
 1891HOH      O 5877   2.303   1.616   3.773
 1891HOH     H1 5878   2.257   1.572   3.701
 1891HOH     H2 5879   2.381   1.563   3.787
 1892HOH      O 5880   2.882   3.638   0.371
 1892HOH     H1 5881   2.790   3.612   0.364
 1892HOH     H2 5882   2.931   3.559   0.347
 1893HOH      O 5883   3.120   0.031   1.929
 1893HOH     H1 5884   3.172  -0.049   1.938
 1893HOH     H2 5885   3.153   0.072   1.849
 1894HOH      O 5886   1.555   2.579   2.879
 1894HOH     H1 5887   1.513   2.665   2.872
 1894HOH     H2 5888   1.647   2.596   2.861
 1895HOH      O 5889   0.066   2.064   1.148
 1895HOH     H1 5890   0.082   2.010   1.071
 1895HOH     H2 5891   0.099   2.150   1.124
 1896HOH      O 5892   3.685   2.544   3.916
 1896HOH     H1 5893   3.606   2.497   3.891
 1896HOH     H2 5894   3.666   2.578   4.004
 1897HOH      O 5895   0.935   2.998   0.702
 1897HOH     H1 5896   0.949   2.940   0.777
 1897HOH     H2 5897   0.846   2.979   0.673
 1898HOH      O 5898   3.713   1.617   2.068
 1898HOH     H1 5899   3.736   1.525   2.083
 1898HOH     H2 5900   3.742   1.661   2.147
 1899HOH      O 5901   3.467   2.632   1.039
 1899HOH     H1 5902   3.437   2.684   1.114
 1899HOH     H2 5903   3.481   2.545   1.075
 1900HOH      O 5904   2.850   1.535   3.361
 1900HOH     H1 5905   2.834   1.457   3.307
 1900HOH     H2 5906   2.917   1.584   3.313
 1901HOH      O 5907   1.675   0.790   3.189
 1901HOH     H1 5908   1.711   0.833   3.266
 1901HOH     H2 5909   1.646   0.704   3.220
 1902HOH      O 5910   2.630   3.537   0.364
 1902HOH     H1 5911   2.549   3.576   0.399
 1902HOH     H2 5912   2.603   3.493   0.283
 1903HOH      O 5913   3.823   0.593   2.110
 1903HOH     H1 5914   3.878   0.516   2.124
 1903HOH     H2 5915   3.795   0.619   2.198
 1904HOH      O 5916   0.567   2.704   0.105
 1904HOH     H1 5917   0.634   2.773   0.108
 1904HOH     H2 5918   0.616   2.623   0.121
 1905HOH      O 5919   0.382   0.323   2.131
 1905HOH     H1 5920   0.432   0.270   2.194
 1905HOH     H2 5921   0.319   0.262   2.093
 1906HOH      O 5922   3.153   0.582   1.404
 1906HOH     H1 5923   3.096   0.593   1.329
 1906HOH     H2 5924   3.176   0.672   1.430
 1907HOH      O 5925   3.046   2.504   1.832
 1907HOH     H1 5926   3.089   2.421   1.813
 1907HOH     H2 5927   3.073   2.563   1.762
 1908HOH      O 5928   2.153   1.857   0.848
 1908HOH     H1 5929   2.164   1.806   0.768
 1908HOH     H2 5930   2.070   1.828   0.885
 1909HOH      O 5931   2.363   0.667   3.351
 1909HOH     H1 5932   2.376   0.606   3.424
 1909HOH     H2 5933   2.444   0.662   3.301
 1910HOH      O 5934   0.084   2.699   4.044
 1910HOH     H1 5935   0.056   2.610   4.066
 1910HOH     H2 5936   0.027   2.724   3.971
 1911HOH      O 5937   1.889   1.966   3.695
 1911HOH     H1 5938   1.906   1.927   3.780
 1911HOH     H2 5939   1.969   1.949   3.644
 1912HOH      O 5940   0.470   2.266   3.696
 1912HOH     H1 5941   0.551   2.292   3.652
 1912HOH     H2 5942   0.496   2.249   3.787
 1913HOH      O 5943   2.663   1.926   3.683
 1913HOH     H1 5944   2.687   1.992   3.617
 1913HOH     H2 5945   2.697   1.844   3.647
 1914HOH      O 5946   2.778   0.547   1.504
 1914HOH     H1 5947   2.698   0.588   1.470
 1914HOH     H2 5948   2.845   0.614   1.491
 1915HOH      O 5949   3.033   3.410   0.338
 1915HOH     H1 5950   3.087   3.340   0.301
 1915HOH     H2 5951   3.031   3.392   0.432
 1916HOH      O 5952   2.487   3.253   4.025
 1916HOH     H1 5953   2.574   3.278   3.992
 1916HOH     H2 5954   2.477   3.162   3.998
 1917HOH      O 5955   1.118   1.162   0.190
 1917HOH     H1 5956   1.059   1.098   0.230
 1917HOH     H2 5957   1.109   1.240   0.245
 1918HOH      O 5958   2.063   3.067   2.870
 1918HOH     H1 5959   2.016   3.150   2.869
 1918HOH     H2 5960   2.036   3.022   2.790
 1919HOH      O 5961   0.989   1.824   3.795
 1919HOH     H1 5962   1.029   1.838   3.709
 1919HOH     H2 5963   0.896   1.841   3.781
 1920HOH      O 5964   0.941   3.815   0.976
 1920HOH     H1 5965   0.946   3.720   0.963
 1920HOH     H2 5966   1.015   3.836   1.032
 1921HOH      O 5967   0.636   2.216   1.326
 1921HOH     H1 5968   0.602   2.138   1.282
 1921HOH     H2 5969   0.634   2.194   1.419
 1922HOH      O 5970   3.579   2.663   0.091
 1922HOH     H1 5971   3.511   2.660   0.159
 1922HOH     H2 5972   3.546   2.728   0.028
 1923HOH      O 5973   3.763   1.088   3.220
 1923HOH     H1 5974   3.743   1.161   3.279
 1923HOH     H2 5975   3.829   1.123   3.160
 1924HOH      O 5976   0.066   3.879   0.615
 1924HOH     H1 5977   0.138   3.831   0.575
 1924HOH     H2 5978   0.008   3.811   0.651
 1925HOH      O 5979   2.283   2.098   0.759
 1925HOH     H1 5980   2.201   2.066   0.796
 1925HOH     H2 5981   2.328   2.019   0.729
 1926HOH      O 5982   3.912   2.518   1.731
 1926HOH     H1 5983   3.950   2.600   1.700
 1926HOH     H2 5984   3.976   2.483   1.793
 1927HOH      O 5985   0.123   3.534   2.395
 1927HOH     H1 5986   0.085   3.451   2.366
 1927HOH     H2 5987   0.138   3.583   2.314
 1928HOH      O 5988   2.551   1.837   0.395
 1928HOH     H1 5989   2.499   1.774   0.344
 1928HOH     H2 5990   2.634   1.842   0.347
 1929HOH      O 5991   2.196   2.425   2.321
 1929HOH     H1 5992   2.281   2.387   2.298
 1929HOH     H2 5993   2.192   2.507   2.272
 1930HOH      O 5994   0.802   3.579   3.703
 1930HOH     H1 5995   0.785   3.666   3.668
 1930HOH     H2 5996   0.842   3.595   3.789
 1931HOH      O 5997   0.877   3.042   2.621
 1931HOH     H1 5998   0.860   2.947   2.626
 1931HOH     H2 5999   0.800   3.081   2.664
 1932HOH      O 6000   3.401   1.802   2.157
 1932HOH     H1 6001   3.402   1.892   2.192
 1932HOH     H2 6002   3.408   1.747   2.235
 1933HOH      O 6003   1.891   2.439   0.467
 1933HOH     H1 6004   1.855   2.396   0.390
 1933HOH     H2 6005   1.815   2.475   0.513
 1934HOH      O 6006   0.846   2.222   0.988
 1934HOH     H1 6007   0.756   2.199   0.964
 1934HOH     H2 6008   0.843   2.315   1.009
 1935HOH      O 6009   1.281   2.124   1.119
 1935HOH     H1 6010   1.201   2.078   1.094
 1935HOH     H2 6011   1.321   2.150   1.036
 1936HOH      O 6012   2.722   1.323   3.237
 1936HOH     H1 6013   2.655   1.341   3.303
 1936HOH     H2 6014   2.769   1.247   3.271
 1937HOH      O 6015   2.457   3.736   3.717
 1937HOH     H1 6016   2.393   3.797   3.753
 1937HOH     H2 6017   2.425   3.717   3.629
 1938HOH      O 6018   1.145   1.611   2.474
 1938HOH     H1 6019   1.117   1.638   2.562
 1938HOH     H2 6020   1.224   1.559   2.490
 1939HOH      O 6021   0.683   2.952   0.019
 1939HOH     H1 6022   0.755   3.007  -0.013
 1939HOH     H2 6023   0.609   3.012   0.025
 1940HOH      O 6024   1.810   2.216   3.245
 1940HOH     H1 6025   1.862   2.282   3.290
 1940HOH     H2 6026   1.775   2.161   3.316
 1941HOH      O 6027   2.368   2.500   0.994
 1941HOH     H1 6028   2.315   2.574   1.024
 1941HOH     H2 6029   2.383   2.518   0.901
 1942HOH      O 6030   0.846   0.748   3.611
 1942HOH     H1 6031   0.891   0.759   3.527
 1942HOH     H2 6032   0.759   0.784   3.596
 1943HOH      O 6033   0.880   3.065   1.725
 1943HOH     H1 6034   0.932   2.989   1.699
 1943HOH     H2 6035   0.838   3.039   1.807
 1944HOH      O 6036   0.505   0.812   2.990
 1944HOH     H1 6037   0.540   0.729   2.959
 1944HOH     H2 6038   0.577   0.853   3.037
 1945HOH      O 6039   2.788   0.750   0.555
 1945HOH     H1 6040   2.822   0.660   0.560
 1945HOH     H2 6041   2.747   0.766   0.640
 1946HOH      O 6042   3.558   2.007   0.541
 1946HOH     H1 6043   3.582   2.069   0.472
 1946HOH     H2 6044   3.465   2.024   0.558
 1947HOH      O 6045   0.854   2.205   3.006
 1947HOH     H1 6046   0.845   2.272   3.074
 1947HOH     H2 6047   0.858   2.254   2.925
 1948HOH      O 6048   0.672   2.715   1.362
 1948HOH     H1 6049   0.766   2.708   1.379
 1948HOH     H2 6050   0.647   2.627   1.332
 1949HOH      O 6051   1.150   0.515   3.323
 1949HOH     H1 6052   1.090   0.467   3.265
 1949HOH     H2 6053   1.161   0.458   3.399
 1950HOH      O 6054   0.242   0.990   2.017
 1950HOH     H1 6055   0.287   0.975   2.100
 1950HOH     H2 6056   0.168   1.045   2.038
 1951HOH      O 6057   1.534   2.861   3.694
 1951HOH     H1 6058   1.591   2.793   3.659
 1951HOH     H2 6059   1.465   2.871   3.628
 1952HOH      O 6060   2.525   2.825   3.031
 1952HOH     H1 6061   2.451   2.765   3.027
 1952HOH     H2 6062   2.596   2.778   2.988
 1953HOH      O 6063   1.114   0.382   1.693
 1953HOH     H1 6064   1.129   0.389   1.598
 1953HOH     H2 6065   1.090   0.471   1.720
 1954HOH      O 6066   0.689   1.226   2.781
 1954HOH     H1 6067   0.666   1.221   2.874
 1954HOH     H2 6068   0.785   1.227   2.780
 1955HOH      O 6069   1.015   0.754   3.407
 1955HOH     H1 6070   0.999   0.817   3.336
 1955HOH     H2 6071   1.075   0.690   3.368
 1956HOH      O 6072   0.632   1.552   0.783
 1956HOH     H1 6073   0.695   1.616   0.750
 1956HOH     H2 6074   0.683   1.473   0.798
 1957HOH      O 6075   2.236   2.697   0.153
 1957HOH     H1 6076   2.177   2.636   0.198
 1957HOH     H2 6077   2.186   2.779   0.149
 1958HOH      O 6078   0.468   2.395   3.034
 1958HOH     H1 6079   0.489   2.474   3.083
 1958HOH     H2 6080   0.391   2.359   3.077
 1959HOH      O 6081   0.639   2.135   3.146
 1959HOH     H1 6082   0.611   2.225   3.125
 1959HOH     H2 6083   0.729   2.130   3.112
 1960HOH      O 6084   3.409   0.811   3.215
 1960HOH     H1 6085   3.456   0.733   3.185
 1960HOH     H2 6086   3.472   0.855   3.273
 1961HOH      O 6087   2.377   2.713   1.570
 1961HOH     H1 6088   2.406   2.754   1.489
 1961HOH     H2 6089   2.410   2.623   1.565
 1962HOH      O 6090   3.925   3.140   0.802
 1962HOH     H1 6091   3.989   3.087   0.849
 1962HOH     H2 6092   3.936   3.117   0.710
 1963HOH      O 6093   3.066   0.963   1.099
 1963HOH     H1 6094   3.083   0.917   1.017
 1963HOH     H2 6095   3.148   0.955   1.148
 1964HOH      O 6096   0.543   3.942   3.638
 1964HOH     H1 6097   0.571   4.027   3.603
 1964HOH     H2 6098   0.572   3.943   3.729
 1965HOH      O 6099   2.516   1.091   2.589
 1965HOH     H1 6100   2.590   1.147   2.565
 1965HOH     H2 6101   2.502   1.109   2.681
 1966HOH      O 6102   0.741   0.375   0.988
 1966HOH     H1 6103   0.786   0.320   1.053
 1966HOH     H2 6104   0.653   0.337   0.982
 1967HOH      O 6105   0.690   0.943   3.117
 1967HOH     H1 6106   0.783   0.944   3.137
 1967HOH     H2 6107   0.670   1.033   3.091
 1968HOH      O 6108   3.223   2.331   1.633
 1968HOH     H1 6109   3.284   2.257   1.632
 1968HOH     H2 6110   3.215   2.355   1.541
 1969HOH      O 6111   3.405   3.391   1.331
 1969HOH     H1 6112   3.481   3.336   1.313
 1969HOH     H2 6113   3.425   3.432   1.415
 1970HOH      O 6114   2.717   1.699   2.399
 1970HOH     H1 6115   2.757   1.700   2.312
 1970HOH     H2 6116   2.623   1.692   2.382
 1971HOH      O 6117   0.317   3.216   0.899
 1971HOH     H1 6118   0.359   3.278   0.840
 1971HOH     H2 6119   0.388   3.183   0.954
 1972HOH      O 6120   2.412   3.566   2.684
 1972HOH     H1 6121   2.357   3.516   2.625
 1972HOH     H2 6122   2.482   3.506   2.708
 1973HOH      O 6123   0.296   2.649   2.599
 1973HOH     H1 6124   0.273   2.742   2.597
 1973HOH     H2 6125   0.269   2.617   2.513
 1974HOH      O 6126   1.945   1.033   2.466
 1974HOH     H1 6127   2.023   1.068   2.511
 1974HOH     H2 6128   1.924   1.099   2.400
 1975HOH      O 6129   0.117   0.184   3.272
 1975HOH     H1 6130   0.050   0.137   3.224
 1975HOH     H2 6131   0.188   0.121   3.283
 1976HOH      O 6132   2.733   1.208   2.402
 1976HOH     H1 6133   2.740   1.260   2.483
 1976HOH     H2 6134   2.820   1.212   2.364
 1977HOH      O 6135   3.219   0.419   2.924
 1977HOH     H1 6136   3.217   0.507   2.888
 1977HOH     H2 6137   3.312   0.397   2.928
 1978HOH      O 6138   1.706   3.307   2.246
 1978HOH     H1 6139   1.740   3.254   2.174
 1978HOH     H2 6140   1.784   3.329   2.298
 1979HOH      O 6141   2.404   3.181   2.002
 1979HOH     H1 6142   2.354   3.128   2.064
 1979HOH     H2 6143   2.495   3.165   2.025
 1980HOH      O 6144   0.972   0.910   0.258
 1980HOH     H1 6145   1.041   0.844   0.246
 1980HOH     H2 6146   0.895   0.871   0.216
 1981HOH      O 6147   2.647   3.403   1.826
 1981HOH     H1 6148   2.671   3.335   1.890
 1981HOH     H2 6149   2.717   3.468   1.832
 1982HOH      O 6150   0.081   3.716   3.378
 1982HOH     H1 6151   0.144   3.788   3.379
 1982HOH     H2 6152   0.123   3.648   3.432
 1983HOH      O 6153   0.248   0.618   1.574
 1983HOH     H1 6154   0.270   0.630   1.666
 1983HOH     H2 6155   0.262   0.525   1.558
 1984HOH      O 6156   3.547   3.787   3.828
 1984HOH     H1 6157   3.640   3.793   3.807
 1984HOH     H2 6158   3.543   3.729   3.904
 1985HOH      O 6159   0.849   2.036   1.296
 1985HOH     H1 6160   0.807   1.997   1.219
 1985HOH     H2 6161   0.798   2.114   1.315
 1986HOH      O 6162   0.690   1.370   1.932
 1986HOH     H1 6163   0.727   1.437   1.990
 1986HOH     H2 6164   0.621   1.329   1.985
 1987HOH      O 6165   3.948   1.054   2.454
 1987HOH     H1 6166   4.008   1.027   2.523
 1987HOH     H2 6167   3.980   1.141   2.427
 1988HOH      O 6168   0.496   2.398   1.807
 1988HOH     H1 6169   0.585   2.363   1.810
 1988HOH     H2 6170   0.446   2.340   1.865
 1989HOH      O 6171   1.827   3.086   2.051
 1989HOH     H1 6172   1.776   3.012   2.084
 1989HOH     H2 6173   1.813   3.084   1.956
 1990HOH      O 6174   3.139   2.058   4.008
 1990HOH     H1 6175   3.098   2.135   4.047
 1990HOH     H2 6176   3.153   2.081   3.916
 1991HOH      O 6177   0.631   2.460   2.083
 1991HOH     H1 6178   0.660   2.423   2.000
 1991HOH     H2 6179   0.557   2.405   2.109
 1992HOH      O 6180   0.260   3.469   1.154
 1992HOH     H1 6181   0.289   3.383   1.184
 1992HOH     H2 6182   0.335   3.505   1.108
 1993HOH      O 6183   2.142   3.720   0.628
 1993HOH     H1 6184   2.054   3.748   0.602
 1993HOH     H2 6185   2.186   3.801   0.655
 1994HOH      O 6186   0.110   2.672   1.418
 1994HOH     H1 6187   0.189   2.684   1.366
 1994HOH     H2 6188   0.049   2.629   1.358
 1995HOH      O 6189   2.173   3.087   0.824
 1995HOH     H1 6190   2.096   3.058   0.873
 1995HOH     H2 6191   2.243   3.028   0.852
 1996HOH      O 6192   1.189   2.010   0.724
 1996HOH     H1 6193   1.241   1.979   0.649
 1996HOH     H2 6194   1.203   2.104   0.726
 1997HOH      O 6195   2.062   1.318   0.671
 1997HOH     H1 6196   2.074   1.322   0.766
 1997HOH     H2 6197   1.974   1.284   0.659
 1998HOH      O 6198   0.832   3.713   1.575
 1998HOH     H1 6199   0.823   3.783   1.511
 1998HOH     H2 6200   0.750   3.713   1.624
 1999HOH      O 6201   0.159   1.507   0.518
 1999HOH     H1 6202   0.147   1.599   0.541
 1999HOH     H2 6203   0.163   1.462   0.602
 2000HOH      O 6204   0.794   0.261   2.866
 2000HOH     H1 6205   0.808   0.304   2.950
 2000HOH     H2 6206   0.699   0.251   2.859
 2001HOH      O 6207   3.252   0.427   2.618
 2001HOH     H1 6208   3.327   0.380   2.582
 2001HOH     H2 6209   3.200   0.359   2.661
 2002HOH      O 6210   1.843   3.942   3.402
 2002HOH     H1 6211   1.857   3.875   3.335
 2002HOH     H2 6212   1.761   3.915   3.445
 2003HOH      O 6213   0.167   3.756   3.974
 2003HOH     H1 6214   0.198   3.793   4.057
 2003HOH     H2 6215   0.184   3.662   3.982
 2004HOH      O 6216   0.918   0.261   1.164
 2004HOH     H1 6217   1.009   0.282   1.145
 2004HOH     H2 6218   0.905   0.290   1.255
 2005HOH      O 6219   0.577   0.857   2.557
 2005HOH     H1 6220   0.600   0.785   2.498
 2005HOH     H2 6221   0.602   0.936   2.510
 2006HOH      O 6222   3.329   1.838   3.905
 2006HOH     H1 6223   3.330   1.911   3.843
 2006HOH     H2 6224   3.236   1.818   3.916
 2007HOH      O 6225   0.576   2.409   0.117
 2007HOH     H1 6226   0.484   2.416   0.144
 2007HOH     H2 6227   0.572   2.375   0.027
 2008HOH      O 6228   2.985   3.352   2.459
 2008HOH     H1 6229   2.958   3.406   2.386
 2008HOH     H2 6230   2.984   3.262   2.425
 2009HOH      O 6231   2.440   3.446   0.158
 2009HOH     H1 6232   2.442   3.489   0.073
 2009HOH     H2 6233   2.461   3.354   0.139
 2010HOH      O 6234   3.313   1.169   1.673
 2010HOH     H1 6235   3.349   1.214   1.597
 2010HOH     H2 6236   3.232   1.130   1.641
 2011HOH      O 6237   3.281   1.590   3.364
 2011HOH     H1 6238   3.237   1.534   3.429
 2011HOH     H2 6239   3.329   1.654   3.417
 2012HOH      O 6240   1.466   3.459   4.038
 2012HOH     H1 6241   1.548   3.412   4.049
 2012HOH     H2 6242   1.451   3.461   3.943
 2013HOH      O 6243   0.869   3.111   3.602
 2013HOH     H1 6244   0.898   3.140   3.688
 2013HOH     H2 6245   0.843   3.192   3.557
 2014HOH      O 6246   1.628   1.234   3.640
 2014HOH     H1 6247   1.589   1.307   3.591
 2014HOH     H2 6248   1.684   1.190   3.576
 2015HOH      O 6249   2.912   3.318   1.916
 2015HOH     H1 6250   2.987   3.278   1.960
 2015HOH     H2 6251   2.866   3.364   1.986
 2016HOH      O 6252   1.659   1.300   1.468
 2016HOH     H1 6253   1.565   1.320   1.470
 2016HOH     H2 6254   1.685   1.302   1.560
 2017HOH      O 6255   3.284   3.783   3.824
 2017HOH     H1 6256   3.258   3.708   3.771
 2017HOH     H2 6257   3.380   3.784   3.819
 2018HOH      O 6258   2.592   0.924   1.061
 2018HOH     H1 6259   2.598   0.829   1.056
 2018HOH     H2 6260   2.586   0.943   1.155
 2019HOH      O 6261   0.516   1.205   2.127
 2019HOH     H1 6262   0.511   1.158   2.210
 2019HOH     H2 6263   0.541   1.294   2.152
 2020HOH      O 6264   1.563   3.235   1.441
 2020HOH     H1 6265   1.498   3.274   1.500
 2020HOH     H2 6266   1.538   3.143   1.435
 2021HOH      O 6267   0.336   0.355   0.031
 2021HOH     H1 6268   0.310   0.416   0.100
 2021HOH     H2 6269   0.322   0.268   0.069
 2022HOH      O 6270   2.125   2.285   0.986
 2022HOH     H1 6271   2.161   2.196   0.985
 2022HOH     H2 6272   2.201   2.342   0.996
 2023HOH      O 6273   3.118   3.242   2.196
 2023HOH     H1 6274   3.123   3.188   2.117
 2023HOH     H2 6275   3.149   3.328   2.167
 2024HOH      O 6276   1.739   1.397   1.184
 2024HOH     H1 6277   1.749   1.312   1.140
 2024HOH     H2 6278   1.711   1.375   1.273
 2025HOH      O 6279   2.854   3.624   1.780
 2025HOH     H1 6280   2.913   3.662   1.845
 2025HOH     H2 6281   2.910   3.564   1.730
 2026HOH      O 6282   3.991   1.672   4.035
 2026HOH     H1 6283   3.970   1.601   4.095
 2026HOH     H2 6284   4.071   1.644   3.991
 2027HOH      O 6285   0.988   3.502   1.697
 2027HOH     H1 6286   1.061   3.493   1.637
 2027HOH     H2 6287   0.938   3.576   1.663
 2028HOH      O 6288   1.470   4.027   0.677
 2028HOH     H1 6289   1.399   4.030   0.613
 2028HOH     H2 6290   1.444   3.957   0.737
 2029HOH      O 6291   2.982   0.704   1.704
 2029HOH     H1 6292   3.064   0.712   1.752
 2029HOH     H2 6293   2.921   0.665   1.766
 2030HOH      O 6294   3.163   3.310   1.589
 2030HOH     H1 6295   3.211   3.274   1.663
 2030HOH     H2 6296   3.158   3.404   1.608
 2031HOH      O 6297   0.637   1.872   2.789
 2031HOH     H1 6298   0.624   1.778   2.792
 2031HOH     H2 6299   0.586   1.906   2.862
 2032HOH      O 6300   0.818   3.388   0.743
 2032HOH     H1 6301   0.823   3.308   0.796
 2032HOH     H2 6302   0.811   3.356   0.653
 2033HOH      O 6303   3.812   1.681   0.531
 2033HOH     H1 6304   3.827   1.722   0.447
 2033HOH     H2 6305   3.750   1.739   0.575
 2034HOH      O 6306   0.483   0.175   0.706
 2034HOH     H1 6307   0.444   0.237   0.767
 2034HOH     H2 6308   0.487   0.092   0.754
 2035HOH      O 6309   0.143   2.214   3.919
 2035HOH     H1 6310   0.214   2.165   3.958
 2035HOH     H2 6311   0.180   2.250   3.838
 2036HOH      O 6312   2.721   0.600   1.836
 2036HOH     H1 6313   2.700   0.522   1.784
 2036HOH     H2 6314   2.688   0.673   1.783
 2037HOH      O 6315   2.209   0.860   1.346
 2037HOH     H1 6316   2.153   0.793   1.308
 2037HOH     H2 6317   2.296   0.820   1.348
 2038HOH      O 6318   1.644   1.647   3.747
 2038HOH     H1 6319   1.729   1.611   3.722
 2038HOH     H2 6320   1.593   1.570   3.773
 2039HOH      O 6321   1.278   3.086   2.409
 2039HOH     H1 6322   1.223   3.137   2.350
 2039HOH     H2 6323   1.253   3.116   2.496
 2040HOH      O 6324   2.177   1.760   3.430
 2040HOH     H1 6325   2.117   1.810   3.375
 2040HOH     H2 6326   2.167   1.796   3.517
 2041HOH      O 6327   1.667   1.495   2.238
 2041HOH     H1 6328   1.601   1.426   2.248
 2041HOH     H2 6329   1.616   1.573   2.217
 2042HOH      O 6330   0.359   1.697   1.484
 2042HOH     H1 6331   0.331   1.607   1.467
 2042HOH     H2 6332   0.328   1.715   1.573
 2043HOH      O 6333   2.860   0.019   1.555
 2043HOH     H1 6334   2.933  -0.012   1.608
 2043HOH     H2 6335   2.899   0.083   1.495
 2044HOH      O 6336   1.976   1.872   1.909
 2044HOH     H1 6337   1.988   1.965   1.895
 2044HOH     H2 6338   2.001   1.858   2.001
 2045HOH      O 6339   2.366   3.955   2.228
 2045HOH     H1 6340   2.394   3.888   2.167
 2045HOH     H2 6341   2.380   4.038   2.182
 2046HOH      O 6342   0.527   1.788   2.539
 2046HOH     H1 6343   0.445   1.756   2.576
 2046HOH     H2 6344   0.551   1.862   2.595
 2047HOH      O 6345   0.871   1.692   0.760
 2047HOH     H1 6346   0.950   1.651   0.726
 2047HOH     H2 6347   0.888   1.786   0.756
 2048HOH      O 6348   2.465   1.621   1.818
 2048HOH     H1 6349   2.542   1.567   1.837
 2048HOH     H2 6350   2.401   1.560   1.781
 2049HOH      O 6351   3.036   0.810   2.342
 2049HOH     H1 6352   3.054   0.849   2.427
 2049HOH     H2 6353   2.966   0.863   2.305
 2050HOH      O 6354   2.942   3.095   2.338
 2050HOH     H1 6355   2.924   3.001   2.331
 2050HOH     H2 6356   3.030   3.106   2.302
 2051HOH      O 6357   1.594   0.176   0.398
 2051HOH     H1 6358   1.537   0.247   0.429
 2051HOH     H2 6359   1.535   0.101   0.391
 2052HOH      O 6360   2.138   0.228   0.738
 2052HOH     H1 6361   2.206   0.167   0.768
 2052HOH     H2 6362   2.163   0.249   0.649
 2053HOH      O 6363   1.871   3.789   3.185
 2053HOH     H1 6364   1.884   3.703   3.146
 2053HOH     H2 6365   1.817   3.837   3.122
 2054HOH      O 6366   0.987   0.684   2.220
 2054HOH     H1 6367   1.049   0.722   2.282
 2054HOH     H2 6368   0.936   0.759   2.189
 2055HOH      O 6369   0.970   0.849   0.757
 2055HOH     H1 6370   0.887   0.824   0.718
 2055HOH     H2 6371   0.969   0.807   0.843
 2056HOH      O 6372   1.726   2.813   0.962
 2056HOH     H1 6373   1.694   2.724   0.979
 2056HOH     H2 6374   1.754   2.844   1.048
 2057HOH      O 6375   1.651   0.489   3.694
 2057HOH     H1 6376   1.585   0.510   3.761
 2057HOH     H2 6377   1.600   0.452   3.622
 2058HOH      O 6378   3.521   0.200   3.156
 2058HOH     H1 6379   3.546   0.254   3.231
 2058HOH     H2 6380   3.433   0.168   3.178
 2059HOH      O 6381   2.738   3.393   3.213
 2059HOH     H1 6382   2.807   3.425   3.155
 2059HOH     H2 6383   2.739   3.298   3.202
 2060HOH      O 6384   2.375   2.133   3.491
 2060HOH     H1 6385   2.405   2.048   3.457
 2060HOH     H2 6386   2.446   2.161   3.550
 2061HOH      O 6387   0.387   2.891   1.152
 2061HOH     H1 6388   0.385   2.808   1.199
 2061HOH     H2 6389   0.297   2.924   1.158
 2062HOH      O 6390   3.760   0.652   1.861
 2062HOH     H1 6391   3.765   0.615   1.949
 2062HOH     H2 6392   3.841   0.623   1.818
 2063HOH      O 6393   2.116   0.995   3.703
 2063HOH     H1 6394   2.131   0.957   3.790
 2063HOH     H2 6395   2.195   0.973   3.653
 2064HOH      O 6396   3.582   0.582   0.365
 2064HOH     H1 6397   3.522   0.653   0.388
 2064HOH     H2 6398   3.654   0.589   0.428
 2065HOH      O 6399   1.079   3.760   3.644
 2065HOH     H1 6400   1.120   3.687   3.598
 2065HOH     H2 6401   1.066   3.727   3.733
 2066HOH      O 6402   2.070   2.081   0.455
 2066HOH     H1 6403   2.155   2.121   0.476
 2066HOH     H2 6404   2.009   2.122   0.516
 2067HOH      O 6405   1.564   1.974   1.995
 2067HOH     H1 6406   1.535   2.059   1.963
 2067HOH     H2 6407   1.584   1.924   1.916
 2068HOH      O 6408   0.504   0.858   0.408
 2068HOH     H1 6409   0.546   0.807   0.340
 2068HOH     H2 6410   0.445   0.917   0.361
 2069HOH      O 6411   2.921   3.966   0.737
 2069HOH     H1 6412   2.944   4.014   0.658
 2069HOH     H2 6413   2.887   3.882   0.705
 2070HOH      O 6414   0.228   0.178   3.814
 2070HOH     H1 6415   0.263   0.148   3.898
 2070HOH     H2 6416   0.151   0.122   3.800
 2071HOH      O 6417   0.811   0.558   0.799
 2071HOH     H1 6418   0.901   0.535   0.779
 2071HOH     H2 6419   0.784   0.495   0.866
 2072HOH      O 6420   1.942   2.590   1.691
 2072HOH     H1 6421   2.018   2.648   1.699
 2072HOH     H2 6422   1.965   2.530   1.620
 2073HOH      O 6423   1.261   2.653  -0.009
 2073HOH     H1 6424   1.167   2.638   0.001
 2073HOH     H2 6425   1.301   2.574   0.029
 2074HOH      O 6426   2.955   1.265   2.257
 2074HOH     H1 6427   3.023   1.224   2.310
 2074HOH     H2 6428   3.001   1.333   2.207
 2075HOH      O 6429   3.650   1.838   0.917
 2075HOH     H1 6430   3.594   1.899   0.965
 2075HOH     H2 6431   3.712   1.805   0.983
 2076HOH      O 6432   1.848   1.759   0.628
 2076HOH     H1 6433   1.896   1.741   0.709
 2076HOH     H2 6434   1.893   1.706   0.562
 2077HOH      O 6435   0.654   3.714   2.978
 2077HOH     H1 6436   0.573   3.675   2.947
 2077HOH     H2 6437   0.700   3.740   2.898
 2078HOH      O 6438   0.452   1.870   0.170
 2078HOH     H1 6439   0.539   1.875   0.130
 2078HOH     H2 6440   0.433   1.776   0.176
 2079HOH      O 6441   1.956   3.643   2.396
 2079HOH     H1 6442   2.035   3.692   2.418
 2079HOH     H2 6443   1.977   3.601   2.313
 2080HOH      O 6444   1.047   2.215   0.048
 2080HOH     H1 6445   0.964   2.256   0.072
 2080HOH     H2 6446   1.109   2.288   0.041
 2081HOH      O 6447   0.017   0.819   2.320
 2081HOH     H1 6448  -0.024   0.885   2.376
 2081HOH     H2 6449   0.105   0.809   2.356
 2082HOH      O 6450   1.777   0.755   1.938
 2082HOH     H1 6451   1.800   0.678   1.990
 2082HOH     H2 6452   1.681   0.754   1.935
 2083HOH      O 6453   2.238   1.425   2.281
 2083HOH     H1 6454   2.304   1.364   2.313
 2083HOH     H2 6455   2.288   1.502   2.253
 2084HOH      O 6456   1.243   2.605   1.718
 2084HOH     H1 6457   1.206   2.517   1.711
 2084HOH     H2 6458   1.256   2.619   1.811
 2085HOH      O 6459   3.877   3.334   0.479
 2085HOH     H1 6460   3.927   3.384   0.543
 2085HOH     H2 6461   3.801   3.303   0.527
 2086HOH      O 6462   0.080   0.494   3.039
 2086HOH     H1 6463  -0.003   0.525   3.003
 2086HOH     H2 6464   0.145   0.557   3.007
 2087HOH      O 6465   0.484   3.617   1.014
 2087HOH     H1 6466   0.558   3.672   1.038
 2087HOH     H2 6467   0.463   3.641   0.924
 2088HOH      O 6468   1.634   3.342   2.677
 2088HOH     H1 6469   1.635   3.425   2.629
 2088HOH     H2 6470   1.590   3.281   2.617
 2089HOH      O 6471   3.921   3.876   1.382
 2089HOH     H1 6472   3.856   3.933   1.426
 2089HOH     H2 6473   4.004   3.922   1.393
 2090HOH      O 6474   0.388   2.610   1.675
 2090HOH     H1 6475   0.431   2.527   1.696
 2090HOH     H2 6476   0.327   2.624   1.747
 2091HOH      O 6477   1.316   0.701   1.312
 2091HOH     H1 6478   1.267   0.745   1.381
 2091HOH     H2 6479   1.393   0.756   1.298
 2092HOH      O 6480   3.308   3.630   2.289
 2092HOH     H1 6481   3.394   3.654   2.255
 2092HOH     H2 6482   3.327   3.586   2.372
 2093HOH      O 6483   2.025   3.801   1.455
 2093HOH     H1 6484   2.055   3.754   1.378
 2093HOH     H2 6485   2.074   3.883   1.454
 2094HOH      O 6486   1.715   2.429   2.372
 2094HOH     H1 6487   1.789   2.390   2.326
 2094HOH     H2 6488   1.727   2.403   2.463
 2095HOH      O 6489   0.512   3.134   1.066
 2095HOH     H1 6490   0.475   3.047   1.084
 2095HOH     H2 6491   0.490   3.186   1.144
 2096HOH      O 6492   0.292   3.853   0.171
 2096HOH     H1 6493   0.242   3.806   0.237
 2096HOH     H2 6494   0.379   3.814   0.174
 2097HOH      O 6495   3.069   3.723   1.494
 2097HOH     H1 6496   3.004   3.791   1.477
 2097HOH     H2 6497   3.031   3.644   1.457
 2098HOH      O 6498   1.241   1.943   3.657
 2098HOH     H1 6499   1.153   1.979   3.643
 2098HOH     H2 6500   1.284   2.008   3.713
 2099HOH      O 6501   0.654   0.681   1.103
 2099HOH     H1 6502   0.731   0.631   1.075
 2099HOH     H2 6503   0.580   0.635   1.063
 2100HOH      O 6504   1.557   1.224   0.027
 2100HOH     H1 6505   1.601   1.284   0.088
 2100HOH     H2 6506   1.612   1.225  -0.051
 2101HOH      O 6507   2.659   0.803   1.635
 2101HOH     H1 6508   2.748   0.801   1.600
 2101HOH     H2 6509   2.657   0.881   1.691
 2102HOH      O 6510   3.448   3.626   1.846
 2102HOH     H1 6511   3.537   3.591   1.838
 2102HOH     H2 6512   3.393   3.548   1.856
 2103HOH      O 6513   0.453   1.980   2.992
 2103HOH     H1 6514   0.386   2.045   2.974
 2103HOH     H2 6515   0.507   2.019   3.061
 2104HOH      O 6516   3.826   2.773   2.407
 2104HOH     H1 6517   3.866   2.738   2.327
 2104HOH     H2 6518   3.870   2.727   2.478
 2105HOH      O 6519   1.767   2.596   3.826
 2105HOH     H1 6520   1.739   2.527   3.766
 2105HOH     H2 6521   1.795   2.668   3.768
 2106HOH      O 6522   3.293   0.288   2.063
 2106HOH     H1 6523   3.319   0.248   2.146
 2106HOH     H2 6524   3.207   0.327   2.081
 2107HOH      O 6525   2.822   1.412   1.614
 2107HOH     H1 6526   2.850   1.375   1.697
 2107HOH     H2 6527   2.884   1.378   1.550
 2108HOH      O 6528   1.392   0.187   3.299
 2108HOH     H1 6529   1.378   0.093   3.311
 2108HOH     H2 6530   1.311   0.219   3.259
 2109HOH      O 6531   2.833   1.644   2.140
 2109HOH     H1 6532   2.887   1.568   2.163
 2109HOH     H2 6533   2.890   1.698   2.085
   4.04076   4.04076   4.04076   0.00000   0.00000   0.00000   0.00000   0.00000   0.00000
