Generated with MDTraj, t= 33896.0
 6533
    1MOL     C1    1  -0.106   2.739   0.611
    1MOL     C2    2  -0.157   2.669   0.507
    1MOL     C3    3  -0.086   2.575   0.432
    1MOL     C4    4   0.051   2.561   0.464
    1MOL     C5    5   0.104   2.630   0.573
    1MOL     C6    6   0.026   2.714   0.648
    1MOL     C7    7   0.142   2.472   0.390
    1MOL     C8    8   0.103   2.322   0.429
    1MOL     N1    9   0.191   2.218   0.370
    1MOL     C9   10   0.186   2.214   0.222
    1MOL    C10   11   0.156   2.078   0.417
    1MOL    C11   12   0.336   2.229   0.410
    1MOL     H1   13   0.244   2.299   0.186
    1MOL     H2   14   0.082   2.232   0.196
    1MOL     H3   15   0.231   2.122   0.184
    1MOL     H4   16   0.058   2.050   0.377
    1MOL     H5   17   0.155   2.078   0.526
    1MOL     H6   18   0.236   2.010   0.385
    1MOL     H7   19   0.396   2.150   0.365
    1MOL     H8   20   0.332   2.225   0.519
    1MOL     H9   21   0.369   2.324   0.367
    1MOL    H10   22  -0.163   2.810   0.670
    1MOL    H11   23  -0.256   2.696   0.471
    1MOL    H12   24  -0.128   2.525   0.345
    1MOL    H13   25   0.209   2.616   0.597
    1MOL    H14   26   0.078   2.771   0.725
    1MOL    H15   27   0.126   2.490   0.283
    1MOL    H16   28   0.248   2.483   0.410
    1MOL    H17   29   0.120   2.301   0.534
    1MOL    H18   30   0.002   2.296   0.396
    2OCB     C1   31   3.672   3.865   0.960
    2OCB     C2   32   3.793   3.859   0.707
    2OCB     C3   33   3.616   3.929   0.853
    2OCB     C4   34   3.792   3.791   0.944
    2OCB     C5   35   3.850   3.790   0.815
    2OCB     C6   36   3.675   3.933   0.724
    2OCB     O1   37   3.848   3.843   0.583
    2OCB     C7   38   3.609   3.992   0.595
    2OCB     C8   39   3.802   3.738   0.500
    2OCB     O2   40   3.709   3.791   0.402
    2OCB     C9   41   3.575   3.789   0.435
    2OCB    C10   42   3.521   3.885   0.524
    2OCB    C11   43   3.388   3.864   0.566
    2OCB    C12   44   3.502   3.684   0.386
    2OCB    C13   45   3.310   3.760   0.514
    2OCB    C14   46   3.374   3.668   0.425
    2OCB     O3   47   3.317   3.553   0.369
    2OCB    C15   48   3.163   3.746   0.548
    2OCB    C16   49   3.146   3.643   0.661
    2OCB    C17   50   3.133   3.509   0.633
    2OCB    C18   51   3.292   3.448   0.456
    2OCB     O4   52   3.158   3.455   0.507
    2OCB     O5   53   3.847   3.709   1.039
    2OCB    C19   54   3.603   3.867   1.096
    2OCB    C20   55   3.503   3.753   1.119
    2OCB     O6   56   3.693   3.609   1.178
    2OCB    C21   57   3.556   3.627   1.156
    2OCB    C22   58   3.116   3.419   0.739
    2OCB    C23   59   3.113   3.456   0.872
    2OCB    C24   60   3.478   3.513   1.158
    2OCB    C25   61   3.339   3.518   1.133
    2OCB     O7   62   3.118   3.367   0.973
    2OCB     O8   63   3.261   3.401   1.150
    2OCB    C26   64   3.244   3.327   1.034
    2OCB    C27   65   3.365   3.751   1.080
    2OCB    C28   66   3.284   3.638   1.091
    2OCB    C29   67   3.149   3.686   0.798
    2OCB    C30   68   3.142   3.650   1.046
    2OCB    C31   69   3.128   3.595   0.901
    2OCB    C32   70   3.777   3.583   1.071
    2OCB    C33   71   3.088   3.882   0.576
    2OCB    C34   72   3.088   3.965   0.437
    2OCB    C35   73   3.009   4.093   0.453
    2OCB     O9   74   2.892   4.089   0.489
    2OCB    C36   75   3.529   4.128   0.605
    2OCB    C37   76   3.617   4.241   0.649
    2OCB    C38   77   3.544   4.372   0.670
    2OCB    O10   78   3.551   4.456   0.586
    2OCB    C39   79   3.547   4.003   1.140
    2OCB    C40   80   3.656   4.119   1.141
    2OCB    C41   81   3.615   4.213   1.255
    2OCB    O11   82   3.611   4.329   1.220
    2OCB    C42   83   3.066   3.783   1.065
    2OCB    C43   84   3.074   3.830   1.213
    2OCB    C44   85   2.980   3.947   1.251
    2OCB    O12   86   2.869   3.923   1.299
    2OCB    C45   87   3.923   3.668   0.431
    2OCB    C46   88   4.126   3.520   0.317
    2OCB    C47   89   3.910   3.624   0.300
    2OCB    C48   90   4.035   3.637   0.506
    2OCB    C49   91   4.134   3.560   0.451
    2OCB    C50   92   4.009   3.549   0.244
    2OCB    C51   93   3.884   3.477   1.097
    2OCB    C52   94   4.086   3.292   1.152
    2OCB    C53   95   3.858   3.374   1.185
    2OCB    C54   96   4.007   3.484   1.032
    2OCB    C55   97   4.115   3.396   1.062
    2OCB    C56   98   3.957   3.275   1.209
    2OCB    C57   99   3.276   3.177   1.040
    2OCB    C58  100   3.362   2.909   1.033
    2OCB    C59  101   3.226   3.085   0.947
    2OCB    C60  102   3.362   3.131   1.136
    2OCB    C61  103   3.405   2.998   1.132
    2OCB    C62  104   3.271   2.952   0.934
    2OCB    C63  105   3.329   3.317   0.377
    2OCB    C64  106   3.409   3.066   0.273
    2OCB    C65  107   3.253   3.199   0.397
    2OCB    C66  108   3.445   3.305   0.296
    2OCB    C67  109   3.482   3.180   0.243
    2OCB    C68  110   3.292   3.076   0.347
    2OCB    O13  111   4.229   3.400   0.988
    2OCB    O14  112   3.493   2.951   1.228
    2OCB    O15  113   3.216   2.858   0.842
    2OCB    O16  114   4.246   3.518   0.513
    2OCB    O17  115   3.983   3.479   0.125
    2OCB    O18  116   3.214   2.965   0.372
    2OCB    O19  117   3.602   3.176   0.179
    2OCB    C69  118   3.586   3.018   1.305
    2OCB    C70  119   3.788   3.141   1.462
    2OCB    C71  120   3.700   3.080   1.245
    2OCB    C72  121   3.568   3.040   1.441
    2OCB    C73  122   3.670   3.099   1.524
    2OCB    C74  123   3.803   3.134   1.326
    2OCB    O20  124   3.928   3.169   1.280
    2OCB    C75  125   4.267   3.543   0.647
    2OCB    C76  126   4.312   3.617   0.908
    2OCB    C77  127   4.333   3.661   0.675
    2OCB    C78  128   4.240   3.451   0.746
    2OCB    C79  129   4.256   3.489   0.880
    2OCB    C80  130   4.368   3.700   0.806
    2OCB    C81  131   3.147   2.890   0.731
    2OCB    C82  132   3.018   2.981   0.502
    2OCB    C83  133   3.016   2.937   0.740
    2OCB    C84  134   3.221   2.917   0.618
    2OCB    C85  135   3.153   2.954   0.498
    2OCB    C86  136   2.951   2.967   0.617
    2OCB    C87  137   2.808   2.984   0.625
    2OCB    O21  138   2.736   2.957   0.720
    2OCB    C88  139   3.590   3.531  -0.163
    2OCB    O22  140   3.647   3.608  -0.229
    2OCB    C89  141   4.435   3.831   0.839
    2OCB    O23  142   4.436   3.872   0.954
    2OCB    O24  143   3.051   4.199   0.423
    2OCB    O25  144   3.008   4.063   1.219
    2OCB    O26  145   3.611   4.179   1.374
    2OCB    C90  146   3.655   3.100   1.675
    2OCB    O27  147   3.765   3.098   1.736
    2OCB    O28  148   3.474   3.500  -0.177
    2OCB    O29  149   2.760   3.028   0.527
    2OCB    O30  150   3.549   3.114   1.722
    2OCB    O31  151   4.471   3.900   0.745
    2OCB    O32  152   3.495   4.396   0.778
    2OCB    C91  153   3.860   3.432   0.088
    2OCB    C92  154   3.601   3.363   0.024
    2OCB    C93  155   3.801   3.322   0.152
    2OCB    C94  156   3.795   3.509  -0.003
    2OCB    C95  157   3.661   3.472  -0.043
    2OCB    C96  158   3.674   3.282   0.113
    2OCB    C97  159   3.871   3.244   0.268
    2OCB    C98  160   4.199   3.305   0.714
    2OCB    C99  161   3.719   3.059   1.094
    2OCB      C  162   3.373   2.897   0.608
    2OCB     H1  163   3.517   3.974   0.860
    2OCB     H2  164   3.935   3.723   0.803
    2OCB     H3  165   3.688   4.028   0.529
    2OCB     H4  166   3.744   3.677   0.571
    2OCB     H5  167   3.351   3.923   0.649
    2OCB     H6  168   3.552   3.606   0.329
    2OCB     H7  169   3.129   3.708   0.451
    2OCB     H8  170   3.357   3.451   0.545
    2OCB     H9  171   3.685   3.853   1.166
    2OCB    H10  172   3.112   3.313   0.715
    2OCB    H11  173   3.509   3.416   1.197
    2OCB    H12  174   3.305   3.361   0.949
    2OCB    H13  175   3.316   3.838   1.037
    2OCB    H14  176   3.163   3.793   0.810
    2OCB    H15  177   3.085   3.583   1.110
    2OCB    H16  178   3.711   3.559   0.985
    2OCB    H17  179   2.982   3.859   0.591
    2OCB    H18  180   3.131   3.945   0.653
    2OCB    H19  181   3.191   3.996   0.419
    2OCB    H20  182   3.054   3.901   0.355
    2OCB    H21  183   3.452   4.113   0.681
    2OCB    H22  184   3.467   4.148   0.517
    2OCB    H23  185   3.660   4.207   0.744
    2OCB    H24  186   3.686   4.252   0.566
    2OCB    H25  187   3.465   4.034   1.076
    2OCB    H26  188   3.508   3.996   1.242
    2OCB    H27  189   3.757   4.083   1.157
    2OCB    H28  190   3.658   4.181   1.051
    2OCB    H29  191   3.110   3.860   1.001
    2OCB    H30  192   2.962   3.774   1.034
    2OCB    H31  193   3.060   3.744   1.279
    2OCB    H32  194   3.178   3.863   1.225
    2OCB    H33  195   4.211   3.460   0.283
    2OCB    H34  196   3.818   3.638   0.243
    2OCB    H35  197   4.049   3.671   0.608
    2OCB    H36  198   4.152   3.206   1.158
    2OCB    H37  199   3.771   3.372   1.250
    2OCB    H38  200   4.018   3.558   0.953
    2OCB    H39  201   3.395   2.805   1.042
    2OCB    H40  202   3.161   3.133   0.875
    2OCB    H41  203   3.400   3.188   1.221
    2OCB    H42  204   3.439   2.968   0.235
    2OCB    H43  205   3.160   3.203   0.452
    2OCB    H44  206   3.510   3.391   0.288
    2OCB    H45  207   3.860   3.194   1.524
    2OCB    H46  208   3.478   2.998   1.485
    2OCB    H47  209   4.329   3.646   1.011
    2OCB    H48  210   4.365   3.727   0.594
    2OCB    H49  211   2.970   3.012   0.410
    2OCB    H50  212   2.961   2.927   0.834
    2OCB    H51  213   3.498   3.335   0.004
    2OCB    H52  214   3.841   3.596  -0.050
    2OCB    H53  215   3.879   3.313   0.352
    2OCB    H54  216   3.820   3.152   0.297
    2OCB    H55  217   3.971   3.213   0.235
    2OCB    H56  218   4.288   3.242   0.718
    2OCB    H57  219   4.131   3.273   0.793
    2OCB    H58  220   4.153   3.318   0.616
    2OCB    H59  221   3.793   3.134   1.063
    2OCB    H60  222   3.760   2.959   1.078
    2OCB    H61  223   3.633   3.077   1.029
    2OCB    H62  224   3.429   2.976   0.559
    2OCB    H63  225   3.424   2.890   0.705
    2OCB    H64  226   3.393   2.803   0.557
    3Na+    Na+  227   1.391   0.810   0.236
    4Na+    Na+  228   0.477   0.603   2.180
    5Na+    Na+  229   3.735   3.422   2.057
    6Na+    Na+  230   3.451   0.594   0.738
    7Na+    Na+  231   3.736   0.421   1.353
    8Na+    Na+  232   2.051   1.925   0.237
    9Na+    Na+  233   1.296   0.625   2.104
   10HOH      O  234   4.055   3.010   0.060
   10HOH     H1  235   4.071   2.955   0.136
   10HOH     H2  236   3.962   3.033   0.065
   11HOH      O  237   3.603   4.045   3.573
   11HOH     H1  238   3.539   3.976   3.554
   11HOH     H2  239   3.630   4.077   3.487
   12HOH      O  240   0.016   0.810   0.913
   12HOH     H1  241   0.038   0.741   0.852
   12HOH     H2  242   0.014   0.890   0.860
   13HOH      O  243   1.651   3.723   0.605
   13HOH     H1  244   1.719   3.722   0.673
   13HOH     H2  245   1.649   3.813   0.574
   14HOH      O  246   1.007   2.530   3.224
   14HOH     H1  247   1.006   2.435   3.234
   14HOH     H2  248   1.067   2.546   3.151
   15HOH      O  249   2.247   2.264   3.682
   15HOH     H1  250   2.227   2.303   3.766
   15HOH     H2  251   2.201   2.180   3.683
   16HOH      O  252   0.622   3.436   1.798
   16HOH     H1  253   0.678   3.499   1.843
   16HOH     H2  254   0.539   3.439   1.846
   17HOH      O  255   2.023   0.752   2.915
   17HOH     H1  256   2.057   0.793   2.836
   17HOH     H2  257   1.978   0.822   2.961
   18HOH      O  258   1.133   2.586   0.068
   18HOH     H1  259   1.224   2.595   0.093
   18HOH     H2  260   1.120   2.653   0.000
   19HOH      O  261   1.677   0.898   2.749
   19HOH     H1  262   1.732   0.963   2.705
   19HOH     H2  263   1.717   0.814   2.726
   20HOH      O  264   1.161   0.646   3.793
   20HOH     H1  265   1.162   0.560   3.836
   20HOH     H2  266   1.149   0.708   3.864
   21HOH      O  267   0.138   0.831   2.620
   21HOH     H1  268   0.213   0.784   2.655
   21HOH     H2  269   0.130   0.799   2.530
   22HOH      O  270   3.961   0.489   2.710
   22HOH     H1  271   3.938   0.517   2.621
   22HOH     H2  272   3.924   0.402   2.718
   23HOH      O  273   1.319   1.507   2.013
   23HOH     H1  274   1.380   1.450   2.059
   23HOH     H2  275   1.375   1.572   1.970
   24HOH      O  276   2.270   3.367   1.420
   24HOH     H1  277   2.342   3.387   1.360
   24HOH     H2  278   2.241   3.280   1.394
   25HOH      O  279   2.372   2.599   1.776
   25HOH     H1  280   2.290   2.619   1.731
   25HOH     H2  281   2.355   2.621   1.868
   26HOH      O  282   1.085   1.003   2.341
   26HOH     H1  283   1.166   1.054   2.344
   26HOH     H2  284   1.016   1.068   2.327
   27HOH      O  285   0.844   3.794   2.266
   27HOH     H1  286   0.937   3.814   2.275
   27HOH     H2  287   0.841   3.715   2.213
   28HOH      O  288   1.628   1.472   3.884
   28HOH     H1  289   1.645   1.387   3.843
   28HOH     H2  290   1.549   1.459   3.937
   29HOH      O  291   3.522   3.881   0.097
   29HOH     H1  292   3.564   3.871   0.183
   29HOH     H2  293   3.432   3.905   0.117
   30HOH      O  294   1.691   2.994   3.058
   30HOH     H1  295   1.774   3.024   3.096
   30HOH     H2  296   1.655   2.934   3.123
   31HOH      O  297   0.150   3.181   2.813
   31HOH     H1  298   0.069   3.207   2.858
   31HOH     H2  299   0.149   3.085   2.819
   32HOH      O  300   2.605   3.142   2.496
   32HOH     H1  301   2.635   3.158   2.406
   32HOH     H2  302   2.581   3.228   2.529
   33HOH      O  303   0.407   0.839   2.214
   33HOH     H1  304   0.341   0.899   2.249
   33HOH     H2  305   0.473   0.897   2.175
   34HOH      O  306   1.255   4.044   0.751
   34HOH     H1  307   1.343   4.007   0.761
   34HOH     H2  308   1.197   3.980   0.792
   35HOH      O  309   3.730   4.017   1.574
   35HOH     H1  310   3.692   3.937   1.538
   35HOH     H2  311   3.688   4.088   1.526
   36HOH      O  312   1.486   3.423   2.439
   36HOH     H1  313   1.529   3.443   2.522
   36HOH     H2  314   1.424   3.354   2.459
   37HOH      O  315   2.509   2.575   2.829
   37HOH     H1  316   2.461   2.528   2.761
   37HOH     H2  317   2.471   2.545   2.911
   38HOH      O  318   1.485   3.315   3.278
   38HOH     H1  319   1.506   3.329   3.186
   38HOH     H2  320   1.561   3.270   3.314
   39HOH      O  321   4.009   1.953   1.678
   39HOH     H1  322   4.025   1.929   1.586
   39HOH     H2  323   4.068   1.897   1.728
   40HOH      O  324   2.335   0.766   3.211
   40HOH     H1  325   2.420   0.723   3.205
   40HOH     H2  326   2.303   0.744   3.299
   41HOH      O  327   1.425   0.278   1.270
   41HOH     H1  328   1.520   0.279   1.264
   41HOH     H2  329   1.407   0.256   1.362
   42HOH      O  330   0.439   0.371   0.370
   42HOH     H1  331   0.505   0.324   0.420
   42HOH     H2  332   0.422   0.316   0.294
   43HOH      O  333   3.057   0.647   0.846
   43HOH     H1  334   3.103   0.696   0.914
   43HOH     H2  335   3.116   0.576   0.822
   44HOH      O  336   3.498   0.101   3.970
   44HOH     H1  337   3.527   0.011   3.958
   44HOH     H2  338   3.579   0.150   3.986
   45HOH      O  339   2.947   1.854   2.426
   45HOH     H1  340   3.031   1.848   2.379
   45HOH     H2  341   2.882   1.827   2.362
   46HOH      O  342   2.916   1.525   2.832
   46HOH     H1  343   2.962   1.603   2.862
   46HOH     H2  344   2.913   1.533   2.737
   47HOH      O  345   1.522   3.249   1.029
   47HOH     H1  346   1.608   3.207   1.033
   47HOH     H2  347   1.478   3.204   0.957
   48HOH      O  348   2.415   3.677   0.519
   48HOH     H1  349   2.504   3.649   0.497
   48HOH     H2  350   2.363   3.651   0.443
   49HOH      O  351   1.956   3.244   1.055
   49HOH     H1  352   1.918   3.169   1.009
   49HOH     H2  353   1.904   3.319   1.026
   50HOH      O  354   3.889   2.375   2.040
   50HOH     H1  355   3.920   2.285   2.038
   50HOH     H2  356   3.878   2.399   1.948
   51HOH      O  357   2.971   0.401   0.347
   51HOH     H1  358   2.991   0.311   0.372
   51HOH     H2  359   2.876   0.409   0.359
   52HOH      O  360   1.214   1.113   2.824
   52HOH     H1  361   1.266   1.179   2.869
   52HOH     H2  362   1.132   1.157   2.803
   53HOH      O  363   2.450   1.373   1.510
   53HOH     H1  364   2.462   1.280   1.528
   53HOH     H2  365   2.523   1.415   1.556
   54HOH      O  366   1.625   0.457   3.304
   54HOH     H1  367   1.659   0.486   3.220
   54HOH     H2  368   1.543   0.504   3.315
   55HOH      O  369   3.590   1.897   0.081
   55HOH     H1  370   3.657   1.833   0.101
   55HOH     H2  371   3.507   1.850   0.091
   56HOH      O  372   2.168   1.100   3.798
   56HOH     H1  373   2.191   1.100   3.891
   56HOH     H2  374   2.217   1.025   3.762
   57HOH      O  375   1.361   1.323   3.996
   57HOH     H1  376   1.323   1.310   4.083
   57HOH     H2  377   1.359   1.418   3.983
   58HOH      O  378   3.983   0.274   0.540
   58HOH     H1  379   4.063   0.248   0.587
   58HOH     H2  380   3.953   0.193   0.498
   59HOH      O  381   1.493   0.221   2.177
   59HOH     H1  382   1.545   0.153   2.134
   59HOH     H2  383   1.441   0.173   2.242
   60HOH      O  384   0.059   2.031   2.324
   60HOH     H1  385  -0.025   2.057   2.285
   60HOH     H2  386   0.045   1.942   2.355
   61HOH      O  387   1.263   2.208   3.290
   61HOH     H1  388   1.273   2.200   3.385
   61HOH     H2  389   1.169   2.199   3.275
   62HOH      O  390   2.136   0.237   3.986
   62HOH     H1  391   2.227   0.238   4.016
   62HOH     H2  392   2.142   0.201   3.897
   63HOH      O  393   2.910   0.270   2.400
   63HOH     H1  394   2.999   0.290   2.373
   63HOH     H2  395   2.920   0.211   2.475
   64HOH      O  396   3.062   3.859   2.358
   64HOH     H1  397   3.117   3.881   2.433
   64HOH     H2  398   3.118   3.808   2.300
   65HOH      O  399   2.955   1.721   1.752
   65HOH     H1  400   2.998   1.658   1.693
   65HOH     H2  401   2.899   1.773   1.695
   66HOH      O  402   2.739   4.000   2.505
   66HOH     H1  403   2.827   4.037   2.508
   66HOH     H2  404   2.752   3.906   2.517
   67HOH      O  405   0.672   2.866   1.434
   67HOH     H1  406   0.597   2.826   1.479
   67HOH     H2  407   0.632   2.923   1.368
   68HOH      O  408   2.026   2.784   3.102
   68HOH     H1  409   1.941   2.760   3.066
   68HOH     H2  410   2.089   2.758   3.034
   69HOH      O  411   0.622   0.911   0.587
   69HOH     H1  412   0.714   0.896   0.567
   69HOH     H2  413   0.612   1.006   0.585
   70HOH      O  414   0.285   2.815   3.158
   70HOH     H1  415   0.347   2.870   3.110
   70HOH     H2  416   0.312   2.725   3.139
   71HOH      O  417   3.848   1.595   0.873
   71HOH     H1  418   3.937   1.627   0.866
   71HOH     H2  419   3.796   1.656   0.821
   72HOH      O  420   3.439   2.710   3.429
   72HOH     H1  421   3.368   2.701   3.493
   72HOH     H2  422   3.418   2.645   3.361
   73HOH      O  423   2.881   1.489   1.956
   73HOH     H1  424   2.919   1.570   1.922
   73HOH     H2  425   2.929   1.419   1.911
   74HOH      O  426   3.586   0.594   1.392
   74HOH     H1  427   3.492   0.578   1.388
   74HOH     H2  428   3.597   0.679   1.349
   75HOH      O  429   3.706   3.415   1.807
   75HOH     H1  430   3.700   3.478   1.735
   75HOH     H2  431   3.640   3.349   1.787
   76HOH      O  432   2.586   0.450   2.733
   76HOH     H1  433   2.658   0.485   2.681
   76HOH     H2  434   2.536   0.396   2.672
   77HOH      O  435   0.931   1.659   0.160
   77HOH     H1  436   0.977   1.629   0.239
   77HOH     H2  437   0.855   1.601   0.154
   78HOH      O  438   1.060   2.608   1.752
   78HOH     H1  439   0.969   2.630   1.773
   78HOH     H2  440   1.105   2.693   1.747
   79HOH      O  441   2.855   2.205   2.205
   79HOH     H1  442   2.764   2.183   2.188
   79HOH     H2  443   2.872   2.172   2.294
   80HOH      O  444   0.895   4.004   0.623
   80HOH     H1  445   0.816   4.023   0.673
   80HOH     H2  446   0.953   3.962   0.686
   81HOH      O  447   1.745   3.589   3.721
   81HOH     H1  448   1.731   3.540   3.640
   81HOH     H2  449   1.819   3.545   3.763
   82HOH      O  450   3.907   1.972   1.298
   82HOH     H1  451   3.828   2.023   1.314
   82HOH     H2  452   3.885   1.918   1.221
   83HOH      O  453   3.445   0.693   0.124
   83HOH     H1  454   3.533   0.699   0.087
   83HOH     H2  455   3.407   0.616   0.082
   84HOH      O  456   2.472   4.007   0.960
   84HOH     H1  457   2.414   4.054   1.020
   84HOH     H2  458   2.548   3.984   1.014
   85HOH      O  459   2.150   3.227   1.681
   85HOH     H1  460   2.242   3.247   1.659
   85HOH     H2  461   2.143   3.247   1.774
   86HOH      O  462   1.368   1.679   1.050
   86HOH     H1  463   1.415   1.704   1.130
   86HOH     H2  464   1.297   1.742   1.043
   87HOH      O  465   3.096   2.476   2.357
   87HOH     H1  466   3.115   2.386   2.383
   87HOH     H2  467   3.151   2.529   2.414
   88HOH      O  468   3.201   1.152   1.661
   88HOH     H1  469   3.285   1.195   1.646
   88HOH     H2  470   3.225   1.065   1.694
   89HOH      O  471   3.126   0.260   0.643
   89HOH     H1  472   3.110   0.212   0.562
   89HOH     H2  473   3.191   0.208   0.690
   90HOH      O  474   0.679   2.928   0.184
   90HOH     H1  475   0.727   2.868   0.127
   90HOH     H2  476   0.713   2.910   0.272
   91HOH      O  477   0.118   3.000   3.870
   91HOH     H1  478   0.090   3.001   3.961
   91HOH     H2  479   0.040   3.023   3.820
   92HOH      O  480   3.573   2.037   3.091
   92HOH     H1  481   3.618   2.106   3.139
   92HOH     H2  482   3.628   1.959   3.104
   93HOH      O  483   1.969   3.488   1.634
   93HOH     H1  484   1.994   3.492   1.542
   93HOH     H2  485   2.014   3.562   1.674
   94HOH      O  486   2.565   2.350   2.592
   94HOH     H1  487   2.612   2.279   2.547
   94HOH     H2  488   2.581   2.334   2.685
   95HOH      O  489   2.422   0.883   2.852
   95HOH     H1  490   2.397   0.803   2.897
   95HOH     H2  491   2.496   0.857   2.797
   96HOH      O  492   1.778   1.258   3.429
   96HOH     H1  493   1.833   1.293   3.498
   96HOH     H2  494   1.693   1.300   3.442
   97HOH      O  495   0.801   3.318   3.803
   97HOH     H1  496   0.732   3.363   3.852
   97HOH     H2  497   0.764   3.233   3.781
   98HOH      O  498   1.897   2.846   1.696
   98HOH     H1  499   1.909   2.911   1.627
   98HOH     H2  500   1.963   2.867   1.762
   99HOH      O  501   0.924   2.760   3.009
   99HOH     H1  502   0.915   2.744   3.102
   99HOH     H2  503   0.988   2.831   3.003
  100HOH      O  504   2.151   3.079   2.887
  100HOH     H1  505   2.211   3.152   2.900
  100HOH     H2  506   2.197   3.020   2.827
  101HOH      O  507   2.690   2.893   0.319
  101HOH     H1  508   2.703   2.942   0.400
  101HOH     H2  509   2.704   2.802   0.343
  102HOH      O  510   0.538   1.134   1.212
  102HOH     H1  511   0.461   1.170   1.256
  102HOH     H2  512   0.579   1.079   1.278
  103HOH      O  513   2.973   1.147   1.167
  103HOH     H1  514   2.968   1.055   1.194
  103HOH     H2  515   2.897   1.159   1.110
  104HOH      O  516   0.795   2.442   1.937
  104HOH     H1  517   0.871   2.385   1.925
  104HOH     H2  518   0.832   2.523   1.972
  105HOH      O  519   0.348   0.043   0.406
  105HOH     H1  520   0.443   0.049   0.419
  105HOH     H2  521   0.332   0.089   0.323
  106HOH      O  522   1.498   3.280   3.018
  106HOH     H1  523   1.405   3.300   3.016
  106HOH     H2  524   1.505   3.195   2.974
  107HOH      O  525   3.970   1.052   2.947
  107HOH     H1  526   3.971   0.960   2.919
  107HOH     H2  527   4.027   1.097   2.884
  108HOH      O  528   0.416   1.841   2.184
  108HOH     H1  529   0.445   1.895   2.257
  108HOH     H2  530   0.408   1.901   2.111
  109HOH      O  531   1.012   3.659   0.644
  109HOH     H1  532   0.958   3.713   0.585
  109HOH     H2  533   1.084   3.629   0.589
  110HOH      O  534   0.420   2.979   0.798
  110HOH     H1  535   0.472   3.058   0.785
  110HOH     H2  536   0.482   2.907   0.783
  111HOH      O  537   3.740   1.696   1.419
  111HOH     H1  538   3.723   1.709   1.326
  111HOH     H2  539   3.833   1.716   1.429
  112HOH      O  540   3.494   0.300   2.555
  112HOH     H1  541   3.566   0.283   2.494
  112HOH     H2  542   3.460   0.386   2.528
  113HOH      O  543   1.153   2.017   0.907
  113HOH     H1  544   1.124   2.061   0.986
  113HOH     H2  545   1.247   2.033   0.904
  114HOH      O  546   1.507   2.617   1.427
  114HOH     H1  547   1.504   2.567   1.508
  114HOH     H2  548   1.415   2.631   1.404
  115HOH      O  549   1.326   2.580   0.628
  115HOH     H1  550   1.245   2.541   0.661
  115HOH     H2  551   1.394   2.544   0.685
  116HOH      O  552   4.007   0.160   2.106
  116HOH     H1  553   4.066   0.085   2.110
  116HOH     H2  554   4.039   0.220   2.173
  117HOH      O  555   0.389   1.286   2.469
  117HOH     H1  556   0.359   1.196   2.481
  117HOH     H2  557   0.370   1.306   2.377
  118HOH      O  558   2.449   1.098   1.681
  118HOH     H1  559   2.381   1.039   1.649
  118HOH     H2  560   2.531   1.052   1.663
  119HOH      O  561   2.266   3.264   2.556
  119HOH     H1  562   2.215   3.320   2.498
  119HOH     H2  563   2.344   3.315   2.577
  120HOH      O  564   1.922   2.209   1.900
  120HOH     H1  565   1.982   2.256   1.958
  120HOH     H2  566   1.970   2.129   1.877
  121HOH      O  567   2.267   2.241   2.463
  121HOH     H1  568   2.247   2.298   2.388
  121HOH     H2  569   2.230   2.156   2.439
  122HOH      O  570   3.257   2.624   1.376
  122HOH     H1  571   3.260   2.641   1.470
  122HOH     H2  572   3.175   2.665   1.347
  123HOH      O  573   0.348   3.075   1.336
  123HOH     H1  574   0.280   3.124   1.383
  123HOH     H2  575   0.329   2.983   1.356
  124HOH      O  576   0.246   3.976   1.762
  124HOH     H1  577   0.250   3.981   1.857
  124HOH     H2  578   0.152   3.969   1.742
  125HOH      O  579   2.596   2.709   2.318
  125HOH     H1  580   2.528   2.738   2.378
  125HOH     H2  581   2.617   2.786   2.265
  126HOH      O  582   2.056   1.733   2.035
  126HOH     H1  583   2.149   1.717   2.049
  126HOH     H2  584   2.021   1.650   2.004
  127HOH      O  585   3.364   0.048   1.436
  127HOH     H1  586   3.308   0.065   1.360
  127HOH     H2  587   3.437   0.110   1.425
  128HOH      O  588   1.459   1.566   1.400
  128HOH     H1  589   1.552   1.584   1.389
  128HOH     H2  590   1.418   1.653   1.400
  129HOH      O  591   2.469   2.751   3.611
  129HOH     H1  592   2.552   2.760   3.658
  129HOH     H2  593   2.449   2.657   3.615
  130HOH      O  594   2.008   2.728   2.528
  130HOH     H1  595   1.979   2.803   2.579
  130HOH     H2  596   2.101   2.719   2.549
  131HOH      O  597   3.412   1.091   2.634
  131HOH     H1  598   3.436   1.017   2.690
  131HOH     H2  599   3.437   1.169   2.684
  132HOH      O  600   1.363   3.243   0.346
  132HOH     H1  601   1.291   3.187   0.378
  132HOH     H2  602   1.410   3.269   0.425
  133HOH      O  603   0.768   2.654   1.246
  133HOH     H1  604   0.758   2.724   1.311
  133HOH     H2  605   0.755   2.574   1.295
  134HOH      O  606   0.087   0.102   0.100
  134HOH     H1  607   0.080   0.049   0.020
  134HOH     H2  608   0.023   0.062   0.159
  135HOH      O  609   1.204   2.916   0.041
  135HOH     H1  610   1.248   2.896   0.124
  135HOH     H2  611   1.245   2.998   0.012
  136HOH      O  612   1.338   2.829   0.506
  136HOH     H1  613   1.427   2.826   0.472
  136HOH     H2  614   1.319   2.739   0.532
  137HOH      O  615   2.949   0.527   3.001
  137HOH     H1  616   3.015   0.457   2.999
  137HOH     H2  617   2.892   0.504   3.075
  138HOH      O  618   3.116   2.832   3.050
  138HOH     H1  619   3.052   2.862   3.114
  138HOH     H2  620   3.106   2.736   3.049
  139HOH      O  621   0.443   0.705   0.478
  139HOH     H1  622   0.502   0.690   0.404
  139HOH     H2  623   0.490   0.767   0.534
  140HOH      O  624   3.671   0.527   1.938
  140HOH     H1  625   3.612   0.454   1.926
  140HOH     H2  626   3.639   0.571   2.017
  141HOH      O  627   2.335   2.941   3.912
  141HOH     H1  628   2.408   2.959   3.973
  141HOH     H2  629   2.257   2.971   3.960
  142HOH      O  630   3.431   1.259   0.555
  142HOH     H1  631   3.524   1.280   0.541
  142HOH     H2  632   3.383   1.327   0.508
  143HOH      O  633   1.670   3.984   0.574
  143HOH     H1  634   1.761   4.002   0.598
  143HOH     H2  635   1.652   4.043   0.501
  144HOH      O  636   3.919   0.112   0.869
  144HOH     H1  637   3.970   0.049   0.818
  144HOH     H2  638   3.868   0.058   0.930
  145HOH      O  639   2.363   2.854   2.816
  145HOH     H1  640   2.429   2.784   2.817
  145HOH     H2  641   2.410   2.930   2.780
  146HOH      O  642   2.323   3.627   3.764
  146HOH     H1  643   2.361   3.546   3.729
  146HOH     H2  644   2.330   3.617   3.859
  147HOH      O  645   1.559   2.425   1.010
  147HOH     H1  646   1.595   2.373   1.082
  147HOH     H2  647   1.468   2.396   1.003
  148HOH      O  648   3.713   0.389   0.356
  148HOH     H1  649   3.798   0.424   0.385
  148HOH     H2  650   3.654   0.405   0.430
  149HOH      O  651   2.556   0.599   3.197
  149HOH     H1  652   2.557   0.512   3.157
  149HOH     H2  653   2.627   0.596   3.261
  150HOH      O  654   3.708   3.956   2.748
  150HOH     H1  655   3.661   3.884   2.706
  150HOH     H2  656   3.649   3.986   2.818
  151HOH      O  657   2.730   2.620   1.498
  151HOH     H1  658   2.801   2.592   1.440
  151HOH     H2  659   2.706   2.707   1.467
  152HOH      O  660   2.202   2.295   1.737
  152HOH     H1  661   2.258   2.370   1.755
  152HOH     H2  662   2.133   2.330   1.681
  153HOH      O  663   3.224   0.170   3.408
  153HOH     H1  664   3.151   0.164   3.347
  153HOH     H2  665   3.260   0.257   3.395
  154HOH      O  666   1.833   2.901   3.667
  154HOH     H1  667   1.760   2.884   3.608
  154HOH     H2  668   1.907   2.921   3.609
  155HOH      O  669   2.557   0.970   1.013
  155HOH     H1  670   2.603   0.891   1.042
  155HOH     H2  671   2.465   0.948   1.022
  156HOH      O  672   0.797   3.426   0.130
  156HOH     H1  673   0.884   3.400   0.101
  156HOH     H2  674   0.745   3.345   0.124
  157HOH      O  675   2.702   2.765   3.767
  157HOH     H1  676   2.703   2.761   3.862
  157HOH     H2  677   2.761   2.837   3.744
  158HOH      O  678   1.513   0.021   1.783
  158HOH     H1  679   1.608   0.024   1.781
  158HOH     H2  680   1.487   0.108   1.812
  159HOH      O  681   3.397   0.971   1.379
  159HOH     H1  682   3.364   0.984   1.468
  159HOH     H2  683   3.327   1.002   1.322
  160HOH      O  684   0.251   0.475   3.744
  160HOH     H1  685   0.259   0.563   3.706
  160HOH     H2  686   0.202   0.489   3.825
  161HOH      O  687   0.742   2.847   3.947
  161HOH     H1  688   0.665   2.899   3.967
  161HOH     H2  689   0.731   2.821   3.856
  162HOH      O  690   3.496   1.694   1.996
  162HOH     H1  691   3.472   1.660   1.910
  162HOH     H2  692   3.414   1.726   2.034
  163HOH      O  693   2.620   0.267   1.303
  163HOH     H1  694   2.689   0.201   1.300
  163HOH     H2  695   2.666   0.350   1.307
  164HOH      O  696   1.015   2.961   0.598
  164HOH     H1  697   0.971   3.040   0.631
  164HOH     H2  698   1.097   2.957   0.648
  165HOH      O  699   3.087   2.070   3.498
  165HOH     H1  700   3.147   2.128   3.452
  165HOH     H2  701   3.002   2.113   3.490
  166HOH      O  702   2.043   2.514   0.141
  166HOH     H1  703   2.086   2.463   0.072
  166HOH     H2  704   2.008   2.590   0.095
  167HOH      O  705   0.934   2.755   2.507
  167HOH     H1  706   0.877   2.822   2.472
  167HOH     H2  707   0.880   2.676   2.509
  168HOH      O  708   3.491   1.396   4.020
  168HOH     H1  709   3.485   1.477   3.969
  168HOH     H2  710   3.405   1.388   4.062
  169HOH      O  711   0.399   3.752   3.259
  169HOH     H1  712   0.483   3.757   3.305
  169HOH     H2  713   0.400   3.667   3.215
  170HOH      O  714   3.613   0.400   2.925
  170HOH     H1  715   3.606   0.360   3.012
  170HOH     H2  716   3.632   0.326   2.867
  171HOH      O  717   3.842   2.123   2.284
  171HOH     H1  718   3.791   2.045   2.303
  171HOH     H2  719   3.807   2.190   2.344
  172HOH      O  720   0.678   2.402   1.451
  172HOH     H1  721   0.584   2.383   1.447
  172HOH     H2  722   0.699   2.401   1.544
  173HOH      O  723   3.272   3.802   2.188
  173HOH     H1  724   3.312   3.884   2.159
  173HOH     H2  725   3.339   3.762   2.244
  174HOH      O  726   1.883   4.026   2.817
  174HOH     H1  727   1.903   4.114   2.784
  174HOH     H2  728   1.926   3.967   2.755
  175HOH      O  729   0.784   2.252   2.633
  175HOH     H1  730   0.744   2.283   2.715
  175HOH     H2  731   0.808   2.161   2.651
  176HOH      O  732   1.971   1.811   1.195
  176HOH     H1  733   2.020   1.775   1.268
  176HOH     H2  734   1.892   1.847   1.235
  177HOH      O  735   1.693   1.794   3.147
  177HOH     H1  736   1.634   1.771   3.074
  177HOH     H2  737   1.757   1.853   3.108
  178HOH      O  738   0.660   1.464   2.592
  178HOH     H1  739   0.658   1.458   2.687
  178HOH     H2  740   0.601   1.395   2.562
  179HOH      O  741   2.111   1.776   2.490
  179HOH     H1  742   2.148   1.862   2.471
  179HOH     H2  743   2.128   1.762   2.583
  180HOH      O  744   2.233   3.956  -0.004
  180HOH     H1  745   2.321   3.926   0.018
  180HOH     H2  746   2.220   4.033   0.051
  181HOH      O  747   1.793   1.861   2.163
  181HOH     H1  748   1.885   1.836   2.152
  181HOH     H2  749   1.796   1.955   2.182
  182HOH      O  750   1.333   1.324   1.361
  182HOH     H1  751   1.418   1.369   1.369
  182HOH     H2  752   1.324   1.305   1.268
  183HOH      O  753   3.520   2.052   3.508
  183HOH     H1  754   3.461   2.097   3.569
  183HOH     H2  755   3.604   2.048   3.555
  184HOH      O  756   3.323   2.044   0.772
  184HOH     H1  757   3.353   1.993   0.697
  184HOH     H2  758   3.230   2.023   0.780
  185HOH      O  759   1.627   1.170   2.468
  185HOH     H1  760   1.678   1.231   2.415
  185HOH     H2  761   1.692   1.109   2.503
  186HOH      O  762   0.684   1.477   3.626
  186HOH     H1  763   0.609   1.419   3.635
  186HOH     H2  764   0.755   1.432   3.672
  187HOH      O  765   2.591   1.675   3.810
  187HOH     H1  766   2.678   1.676   3.771
  187HOH     H2  767   2.536   1.721   3.747
  188HOH      O  768   2.392   0.400   0.903
  188HOH     H1  769   2.410   0.375   0.813
  188HOH     H2  770   2.408   0.320   0.954
  189HOH      O  771   3.367   2.190   3.681
  189HOH     H1  772   3.395   2.260   3.739
  189HOH     H2  773   3.272   2.186   3.693
  190HOH      O  774   3.650   3.090   2.307
  190HOH     H1  775   3.685   3.105   2.220
  190HOH     H2  776   3.667   2.997   2.324
  191HOH      O  777   1.329   1.022   1.446
  191HOH     H1  778   1.370   1.109   1.437
  191HOH     H2  779   1.275   1.013   1.368
  192HOH      O  780   0.647   0.605   2.550
  192HOH     H1  781   0.716   0.576   2.491
  192HOH     H2  782   0.684   0.595   2.638
  193HOH      O  783   0.975   1.698   2.231
  193HOH     H1  784   1.010   1.610   2.219
  193HOH     H2  785   0.936   1.721   2.147
  194HOH      O  786   2.011   0.756   0.310
  194HOH     H1  787   1.940   0.780   0.369
  194HOH     H2  788   1.999   0.663   0.294
  195HOH      O  789   3.653   0.851   1.650
  195HOH     H1  790   3.630   0.898   1.570
  195HOH     H2  791   3.628   0.911   1.721
  196HOH      O  792   2.498   0.374   2.069
  196HOH     H1  793   2.537   0.425   1.999
  196HOH     H2  794   2.572   0.345   2.122
  197HOH      O  795   0.651   3.297   0.970
  197HOH     H1  796   0.623   3.243   1.044
  197HOH     H2  797   0.638   3.387   0.999
  198HOH      O  798   1.705   1.626   0.169
  198HOH     H1  799   1.654   1.629   0.250
  198HOH     H2  800   1.653   1.676   0.106
  199HOH      O  801   0.883   0.075   0.059
  199HOH     H1  802   0.955   0.020   0.028
  199HOH     H2  803   0.851   0.031   0.137
  200HOH      O  804   1.844   3.800   2.276
  200HOH     H1  805   1.751   3.777   2.274
  200HOH     H2  806   1.888   3.725   2.236
  201HOH      O  807   1.933   1.502   0.078
  201HOH     H1  808   1.838   1.515   0.089
  201HOH     H2  809   1.968   1.513   0.167
  202HOH      O  810   1.270   0.169   3.435
  202HOH     H1  811   1.351   0.162   3.385
  202HOH     H2  812   1.204   0.191   3.369
  203HOH      O  813   2.575   1.301   1.858
  203HOH     H1  814   2.536   1.241   1.794
  203HOH     H2  815   2.610   1.373   1.805
  204HOH      O  816   1.926   4.014   0.287
  204HOH     H1  817   1.844   4.013   0.336
  204HOH     H2  818   1.923   4.096   0.237
  205HOH      O  819   2.764   0.332   1.565
  205HOH     H1  820   2.810   0.281   1.499
  205HOH     H2  821   2.699   0.272   1.601
  206HOH      O  822   0.703   3.636   3.038
  206HOH     H1  823   0.723   3.640   2.944
  206HOH     H2  824   0.658   3.719   3.056
  207HOH      O  825   1.459   3.685   0.252
  207HOH     H1  826   1.505   3.632   0.187
  207HOH     H2  827   1.383   3.632   0.276
  208HOH      O  828   0.784   1.252   0.749
  208HOH     H1  829   0.768   1.236   0.842
  208HOH     H2  830   0.712   1.207   0.705
  209HOH      O  831   2.619   0.382   0.160
  209HOH     H1  832   2.528   0.375   0.131
  209HOH     H2  833   2.660   0.301   0.131
  210HOH      O  834   3.404   1.762   1.402
  210HOH     H1  835   3.451   1.685   1.434
  210HOH     H2  836   3.436   1.834   1.455
  211HOH      O  837   1.618   3.902   3.676
  211HOH     H1  838   1.667   3.905   3.758
  211HOH     H2  839   1.676   3.943   3.612
  212HOH      O  840   2.737   1.929   0.570
  212HOH     H1  841   2.814   1.945   0.515
  212HOH     H2  842   2.764   1.957   0.657
  213HOH      O  843   0.598   0.873   0.202
  213HOH     H1  844   0.640   0.789   0.184
  213HOH     H2  845   0.668   0.929   0.233
  214HOH      O  846   2.455   0.252   0.660
  214HOH     H1  847   2.544   0.277   0.635
  214HOH     H2  848   2.462   0.161   0.686
  215HOH      O  849   1.946   0.489   3.042
  215HOH     H1  850   1.995   0.559   2.999
  215HOH     H2  851   1.855   0.520   3.041
  216HOH      O  852   0.064   1.226   0.158
  216HOH     H1  853   0.107   1.299   0.112
  216HOH     H2  854   0.027   1.266   0.237
  217HOH      O  855   1.312   0.317   3.018
  217HOH     H1  856   1.309   0.410   2.994
  217HOH     H2  857   1.279   0.272   2.940
  218HOH      O  858   1.377   1.299   2.912
  218HOH     H1  859   1.427   1.326   2.989
  218HOH     H2  860   1.440   1.301   2.840
  219HOH      O  861   3.248   3.524   4.002
  219HOH     H1  862   3.333   3.486   3.981
  219HOH     H2  863   3.259   3.618   3.989
  220HOH      O  864   1.420   3.277   3.639
  220HOH     H1  865   1.452   3.332   3.568
  220HOH     H2  866   1.421   3.335   3.716
  221HOH      O  867   3.748   2.544   3.409
  221HOH     H1  868   3.769   2.626   3.454
  221HOH     H2  869   3.702   2.571   3.330
  222HOH      O  870   1.582   1.769   3.977
  222HOH     H1  871   1.621   1.769   3.890
  222HOH     H2  872   1.528   1.848   3.980
  223HOH      O  873   0.746   1.253   1.874
  223HOH     H1  874   0.692   1.274   1.950
  223HOH     H2  875   0.778   1.338   1.842
  224HOH      O  876   3.104   0.398   1.069
  224HOH     H1  877   3.182   0.452   1.079
  224HOH     H2  878   3.032   0.461   1.064
  225HOH      O  879   0.229   1.694   2.035
  225HOH     H1  880   0.247   1.757   1.965
  225HOH     H2  881   0.287   1.720   2.106
  226HOH      O  882   1.816   3.355   1.306
  226HOH     H1  883   1.907   3.345   1.280
  226HOH     H2  884   1.784   3.265   1.315
  227HOH      O  885   1.415   0.602   3.343
  227HOH     H1  886   1.395   0.690   3.374
  227HOH     H2  887   1.375   0.598   3.256
  228HOH      O  888   1.558   1.565   2.375
  228HOH     H1  889   1.584   1.558   2.467
  228HOH     H2  890   1.464   1.581   2.377
  229HOH      O  891   2.136   3.692   2.852
  229HOH     H1  892   2.122   3.750   2.926
  229HOH     H2  893   2.113   3.605   2.885
  230HOH      O  894   0.350   0.385   3.296
  230HOH     H1  895   0.258   0.404   3.316
  230HOH     H2  896   0.400   0.445   3.351
  231HOH      O  897   2.013   3.051   1.525
  231HOH     H1  898   2.055   3.108   1.589
  231HOH     H2  899   2.085   3.016   1.473
  232HOH      O  900   2.762   1.129   0.987
  232HOH     H1  901   2.689   1.067   0.991
  232HOH     H2  902   2.720   1.214   0.972
  233HOH      O  903   2.948   3.438   3.275
  233HOH     H1  904   2.996   3.505   3.325
  233HOH     H2  905   3.016   3.379   3.243
  234HOH      O  906   2.899   1.320   3.710
  234HOH     H1  907   2.892   1.287   3.620
  234HOH     H2  908   2.873   1.245   3.765
  235HOH      O  909   0.693   2.637   2.167
  235HOH     H1  910   0.778   2.671   2.139
  235HOH     H2  911   0.714   2.568   2.230
  236HOH      O  912   1.336   3.207   1.895
  236HOH     H1  913   1.403   3.151   1.934
  236HOH     H2  914   1.277   3.147   1.849
  237HOH      O  915   1.267   1.777   2.168
  237HOH     H1  916   1.308   1.734   2.092
  237HOH     H2  917   1.265   1.709   2.235
  238HOH      O  918   2.981   3.998   0.091
  238HOH     H1  919   3.075   3.991   0.105
  238HOH     H2  920   2.973   4.036   0.003
  239HOH      O  921   3.371   0.703   0.914
  239HOH     H1  922   3.332   0.653   0.986
  239HOH     H2  923   3.366   0.794   0.943
  240HOH      O  924   3.674   1.814   0.756
  240HOH     H1  925   3.603   1.774   0.806
  240HOH     H2  926   3.629   1.867   0.690
  241HOH      O  927   2.840   3.289   0.541
  241HOH     H1  928   2.878   3.322   0.460
  241HOH     H2  929   2.810   3.201   0.520
  242HOH      O  930   0.686   1.174   3.516
  242HOH     H1  931   0.729   1.137   3.593
  242HOH     H2  932   0.643   1.099   3.474
  243HOH      O  933   1.028   1.930   2.450
  243HOH     H1  934   0.947   1.939   2.400
  243HOH     H2  935   1.059   1.842   2.430
  244HOH      O  936   2.991   2.527   2.661
  244HOH     H1  937   2.932   2.551   2.733
  244HOH     H2  938   3.071   2.577   2.679
  245HOH      O  939   0.596   1.839   0.681
  245HOH     H1  940   0.542   1.761   0.694
  245HOH     H2  941   0.611   1.843   0.587
  246HOH      O  942   0.958   0.071   1.110
  246HOH     H1  943   0.863   0.078   1.097
  246HOH     H2  944   0.968  -0.009   1.162
  247HOH      O  945   2.201   0.351   2.027
  247HOH     H1  946   2.193   0.256   2.034
  247HOH     H2  947   2.294   0.368   2.040
  248HOH      O  948   2.920   3.648   3.655
  248HOH     H1  949   2.982   3.619   3.722
  248HOH     H2  950   2.858   3.576   3.647
  249HOH      O  951   3.161   2.674   3.510
  249HOH     H1  952   3.102   2.650   3.439
  249HOH     H2  953   3.165   2.597   3.566
  250HOH      O  954   3.800   1.541   1.658
  250HOH     H1  955   3.887   1.510   1.631
  250HOH     H2  956   3.770   1.595   1.585
  251HOH      O  957   1.447   2.782  -0.012
  251HOH     H1  958   1.407   2.725   0.053
  251HOH     H2  959   1.459   2.866   0.032
  252HOH      O  960   0.839   0.056   0.380
  252HOH     H1  961   0.878   0.005   0.451
  252HOH     H2  962   0.746   0.062   0.403
  253HOH      O  963   0.064   2.622   2.965
  253HOH     H1  964   0.109   2.622   2.881
  253HOH     H2  965  -0.013   2.677   2.950
  254HOH      O  966   2.471   1.174   3.975
  254HOH     H1  967   2.474   1.267   3.995
  254HOH     H2  968   2.424   1.135   4.049
  255HOH      O  969   0.130   2.479   0.990
  255HOH     H1  970   0.177   2.560   0.969
  255HOH     H2  971   0.038   2.505   0.994
  256HOH      O  972   0.435   0.560   2.402
  256HOH     H1  973   0.368   0.535   2.467
  256HOH     H2  974   0.509   0.589   2.454
  257HOH      O  975   2.516   3.090   0.092
  257HOH     H1  976   2.555   3.091   0.180
  257HOH     H2  977   2.434   3.138   0.101
  258HOH      O  978   1.678   0.584   3.032
  258HOH     H1  979   1.638   0.670   3.045
  258HOH     H2  980   1.623   0.542   2.965
  259HOH      O  981   3.853   2.774   1.313
  259HOH     H1  982   3.863   2.847   1.374
  259HOH     H2  983   3.942   2.749   1.291
  260HOH      O  984   2.330   2.062   0.961
  260HOH     H1  985   2.378   2.105   1.032
  260HOH     H2  986   2.240   2.057   0.994
  261HOH      O  987   0.583   0.673   3.854
  261HOH     H1  988   0.510   0.669   3.916
  261HOH     H2  989   0.629   0.589   3.866
  262HOH      O  990   1.085   2.671   2.258
  262HOH     H1  991   1.077   2.582   2.294
  262HOH     H2  992   1.041   2.726   2.323
  263HOH      O  993   3.303   2.158   3.367
  263HOH     H1  994   3.304   2.135   3.274
  263HOH     H2  995   3.390   2.133   3.399
  264HOH      O  996   3.984   3.015   2.636
  264HOH     H1  997   4.032   2.977   2.710
  264HOH     H2  998   3.942   2.939   2.594
  265HOH      O  999   4.016   1.688   0.341
  265HOH     H1 1000   3.977   1.759   0.289
  265HOH     H2 1001   4.081   1.732   0.395
  266HOH      O 1002   1.059   0.837   4.011
  266HOH     H1 1003   0.968   0.838   3.980
  266HOH     H2 1004   1.070   0.921   4.055
  267HOH      O 1005   0.188   3.968   1.331
  267HOH     H1 1006   0.156   3.962   1.241
  267HOH     H2 1007   0.110   3.990   1.382
  268HOH      O 1008   1.880   1.898   0.402
  268HOH     H1 1009   1.797   1.931   0.369
  268HOH     H2 1010   1.858   1.812   0.439
  269HOH      O 1011   1.868   0.548   2.115
  269HOH     H1 1012   1.924   0.625   2.116
  269HOH     H2 1013   1.916   0.482   2.165
  270HOH      O 1014   2.342   1.813   3.195
  270HOH     H1 1015   2.252   1.783   3.209
  270HOH     H2 1016   2.396   1.751   3.245
  271HOH      O 1017   1.801   3.709   0.831
  271HOH     H1 1018   1.885   3.679   0.865
  271HOH     H2 1019   1.767   3.769   0.899
  272HOH      O 1020   2.522   3.350   1.310
  272HOH     H1 1021   2.515   3.349   1.214
  272HOH     H2 1022   2.506   3.259   1.335
  273HOH      O 1023   0.807   2.710   0.753
  273HOH     H1 1024   0.790   2.665   0.836
  273HOH     H2 1025   0.874   2.775   0.775
  274HOH      O 1026   0.776   2.578   0.994
  274HOH     H1 1027   0.765   2.620   1.079
  274HOH     H2 1028   0.773   2.484   1.012
  275HOH      O 1029   0.254   0.261   1.084
  275HOH     H1 1030   0.305   0.183   1.108
  275HOH     H2 1031   0.319   0.324   1.054
  276HOH      O 1032   0.678   2.862   0.480
  276HOH     H1 1033   0.712   2.847   0.568
  276HOH     H2 1034   0.665   2.956   0.474
  277HOH      O 1035   2.825   1.396   1.475
  277HOH     H1 1036   2.779   1.384   1.392
  277HOH     H2 1037   2.859   1.309   1.496
  278HOH      O 1038   3.688   1.979   3.697
  278HOH     H1 1039   3.651   2.023   3.773
  278HOH     H2 1040   3.783   1.986   3.709
  279HOH      O 1041   3.878   1.318   3.194
  279HOH     H1 1042   3.827   1.381   3.143
  279HOH     H2 1043   3.947   1.370   3.235
  280HOH      O 1044   0.394   0.085   1.414
  280HOH     H1 1045   0.343   0.004   1.410
  280HOH     H2 1046   0.375   0.121   1.501
  281HOH      O 1047   3.701   2.504   2.237
  281HOH     H1 1048   3.674   2.574   2.178
  281HOH     H2 1049   3.683   2.423   2.190
  282HOH      O 1050   0.292   2.187   2.241
  282HOH     H1 1051   0.217   2.138   2.276
  282HOH     H2 1052   0.253   2.267   2.206
  283HOH      O 1053   3.539   1.899   1.593
  283HOH     H1 1054   3.549   1.919   1.686
  283HOH     H2 1055   3.605   1.953   1.550
  284HOH      O 1056   3.374   1.001   0.977
  284HOH     H1 1057   3.350   1.036   0.892
  284HOH     H2 1058   3.470   1.007   0.979
  285HOH      O 1059   3.076   3.559   2.981
  285HOH     H1 1060   2.987   3.555   3.016
  285HOH     H2 1061   3.121   3.486   3.022
  286HOH      O 1062   2.392   0.913   1.400
  286HOH     H1 1063   2.373   0.829   1.441
  286HOH     H2 1064   2.308   0.944   1.367
  287HOH      O 1065   4.007   3.359   1.625
  287HOH     H1 1066   4.052   3.403   1.696
  287HOH     H2 1067   3.916   3.354   1.653
  288HOH      O 1068   3.248   0.113   1.194
  288HOH     H1 1069   3.246   0.186   1.132
  288HOH     H2 1070   3.156   0.090   1.207
  289HOH      O 1071   2.664   3.769   2.099
  289HOH     H1 1072   2.683   3.858   2.129
  289HOH     H2 1073   2.593   3.780   2.036
  290HOH      O 1074   0.105   1.078   2.735
  290HOH     H1 1075   0.101   0.986   2.711
  290HOH     H2 1076   0.194   1.091   2.768
  291HOH      O 1077   3.728   3.284   2.822
  291HOH     H1 1078   3.703   3.192   2.807
  291HOH     H2 1079   3.799   3.279   2.885
  292HOH      O 1080   1.120   0.288   1.215
  292HOH     H1 1081   1.082   0.226   1.152
  292HOH     H2 1082   1.208   0.254   1.231
  293HOH      O 1083   1.388   1.832   1.307
  293HOH     H1 1084   1.307   1.783   1.319
  293HOH     H2 1085   1.362   1.910   1.257
  294HOH      O 1086   2.406   3.189   0.587
  294HOH     H1 1087   2.452   3.204   0.504
  294HOH     H2 1088   2.379   3.277   0.615
  295HOH      O 1089   3.167   3.878   3.264
  295HOH     H1 1090   3.151   3.963   3.221
  295HOH     H2 1091   3.226   3.899   3.336
  296HOH      O 1092   3.578   2.114   3.934
  296HOH     H1 1093   3.516   2.186   3.948
  296HOH     H2 1094   3.570   2.060   4.012
  297HOH      O 1095   1.924   1.971   2.798
  297HOH     H1 1096   1.831   1.981   2.821
  297HOH     H2 1097   1.938   1.877   2.794
  298HOH      O 1098   1.891   1.009   3.547
  298HOH     H1 1099   1.907   1.100   3.525
  298HOH     H2 1100   1.809   1.010   3.597
  299HOH      O 1101   2.412   0.947   3.800
  299HOH     H1 1102   2.416   0.874   3.862
  299HOH     H2 1103   2.426   1.024   3.855
  300HOH      O 1104   2.734   1.728   2.292
  300HOH     H1 1105   2.687   1.727   2.376
  300HOH     H2 1106   2.735   1.637   2.265
  301HOH      O 1107   2.493   1.914   2.335
  301HOH     H1 1108   2.448   1.939   2.254
  301HOH     H2 1109   2.493   1.818   2.335
  302HOH      O 1110   0.631   3.601   0.776
  302HOH     H1 1111   0.649   3.514   0.741
  302HOH     H2 1112   0.627   3.658   0.700
  303HOH      O 1113   2.479   1.873   2.698
  303HOH     H1 1114   2.387   1.867   2.671
  303HOH     H2 1115   2.481   1.946   2.760
  304HOH      O 1116   3.185   0.238   2.106
  304HOH     H1 1117   3.175   0.276   2.193
  304HOH     H2 1118   3.144   0.152   2.112
  305HOH      O 1119   1.771   2.233   1.672
  305HOH     H1 1120   1.809   2.238   1.759
  305HOH     H2 1121   1.782   2.141   1.647
  306HOH      O 1122   1.225   0.324   0.606
  306HOH     H1 1123   1.320   0.315   0.609
  306HOH     H2 1124   1.195   0.281   0.686
  307HOH      O 1125   3.376   0.453   0.354
  307HOH     H1 1126   3.436   0.459   0.429
  307HOH     H2 1127   3.331   0.538   0.352
  308HOH      O 1128   1.836   1.544   1.911
  308HOH     H1 1129   1.801   1.544   2.000
  308HOH     H2 1130   1.820   1.455   1.879
  309HOH      O 1131   1.834   0.459   1.309
  309HOH     H1 1132   1.885   0.471   1.229
  309HOH     H2 1133   1.743   0.467   1.281
  310HOH      O 1134   0.083   1.458   0.487
  310HOH     H1 1135   0.017   1.521   0.459
  310HOH     H2 1136   0.142   1.450   0.412
  311HOH      O 1137   1.867   2.003   3.084
  311HOH     H1 1138   1.873   2.062   3.159
  311HOH     H2 1139   1.957   1.986   3.059
  312HOH      O 1140   1.848   1.503   0.915
  312HOH     H1 1141   1.787   1.439   0.951
  312HOH     H2 1142   1.803   1.540   0.839
  313HOH      O 1143   1.721   1.579   1.407
  313HOH     H1 1144   1.747   1.487   1.412
  313HOH     H2 1145   1.760   1.619   1.485
  314HOH      O 1146   1.619   1.298   1.673
  314HOH     H1 1147   1.658   1.323   1.757
  314HOH     H2 1148   1.579   1.213   1.689
  315HOH      O 1149   2.606   3.195   0.971
  315HOH     H1 1150   2.582   3.118   0.919
  315HOH     H2 1151   2.702   3.192   0.975
  316HOH      O 1152   1.235   3.310   2.944
  316HOH     H1 1153   1.229   3.259   2.863
  316HOH     H2 1154   1.145   3.337   2.961
  317HOH      O 1155   1.951   2.518   2.225
  317HOH     H1 1156   1.859   2.526   2.250
  317HOH     H2 1157   1.979   2.608   2.206
  318HOH      O 1158   1.208   3.560   3.715
  318HOH     H1 1159   1.268   3.612   3.661
  318HOH     H2 1160   1.264   3.496   3.758
  319HOH      O 1161   2.140   0.429   3.255
  319HOH     H1 1162   2.221   0.404   3.211
  319HOH     H2 1163   2.074   0.430   3.186
  320HOH      O 1164   0.688   1.505   0.074
  320HOH     H1 1165   0.651   1.465   0.154
  320HOH     H2 1166   0.615   1.505   0.012
  321HOH      O 1167   3.921   0.970   0.544
  321HOH     H1 1168   3.969   0.913   0.484
  321HOH     H2 1169   3.874   1.031   0.486
  322HOH      O 1170   0.926   1.288   2.854
  322HOH     H1 1171   0.950   1.293   2.761
  322HOH     H2 1172   0.945   1.375   2.889
  323HOH      O 1173   2.411   1.450   3.906
  323HOH     H1 1174   2.497   1.490   3.918
  323HOH     H2 1175   2.349   1.521   3.924
  324HOH      O 1176   2.269   0.252   0.419
  324HOH     H1 1177   2.244   0.160   0.411
  324HOH     H2 1178   2.361   0.250   0.445
  325HOH      O 1179   0.262   0.522   2.129
  325HOH     H1 1180   0.276   0.432   2.102
  325HOH     H2 1181   0.214   0.561   2.055
  326HOH      O 1182   1.559   2.939   1.984
  326HOH     H1 1183   1.614   2.870   1.946
  326HOH     H2 1184   1.586   2.943   2.076
  327HOH      O 1185   1.846   1.158   1.150
  327HOH     H1 1186   1.921   1.180   1.206
  327HOH     H2 1187   1.777   1.132   1.211
  328HOH      O 1188   3.572   0.447   1.028
  328HOH     H1 1189   3.542   0.394   0.953
  328HOH     H2 1190   3.584   0.383   1.098
  329HOH      O 1191   0.196   2.725   2.142
  329HOH     H1 1192   0.284   2.718   2.104
  329HOH     H2 1193   0.138   2.687   2.076
  330HOH      O 1194   1.953   2.909   0.582
  330HOH     H1 1195   1.867   2.887   0.545
  330HOH     H2 1196   2.011   2.841   0.548
  331HOH      O 1197   3.598   2.664   0.856
  331HOH     H1 1198   3.559   2.745   0.823
  331HOH     H2 1199   3.639   2.689   0.939
  332HOH      O 1200   2.246   3.855   1.492
  332HOH     H1 1201   2.203   3.916   1.434
  332HOH     H2 1202   2.253   3.774   1.442
  333HOH      O 1203   0.309   0.110   2.838
  333HOH     H1 1204   0.386   0.135   2.888
  333HOH     H2 1205   0.266   0.044   2.892
  334HOH      O 1206   1.114   2.212   2.947
  334HOH     H1 1207   1.142   2.287   2.999
  334HOH     H2 1208   1.136   2.235   2.857
  335HOH      O 1209   0.394   1.254   0.403
  335HOH     H1 1210   0.338   1.316   0.356
  335HOH     H2 1211   0.402   1.179   0.344
  336HOH      O 1212   3.417   1.407   0.990
  336HOH     H1 1213   3.484   1.420   0.923
  336HOH     H2 1214   3.353   1.477   0.974
  337HOH      O 1215   3.088   1.910   3.903
  337HOH     H1 1216   3.034   1.846   3.950
  337HOH     H2 1217   3.064   1.898   3.811
  338HOH      O 1218   2.625   1.184   3.427
  338HOH     H1 1219   2.618   1.214   3.517
  338HOH     H2 1220   2.648   1.092   3.433
  339HOH      O 1221   1.958   2.258   1.092
  339HOH     H1 1222   1.996   2.310   1.163
  339HOH     H2 1223   2.007   2.175   1.094
  340HOH      O 1224   1.013   3.933   2.784
  340HOH     H1 1225   0.944   3.974   2.837
  340HOH     H2 1226   0.984   3.946   2.694
  341HOH      O 1227   2.854   3.411   1.860
  341HOH     H1 1228   2.841   3.470   1.934
  341HOH     H2 1229   2.788   3.438   1.796
  342HOH      O 1230   0.976   2.782   1.481
  342HOH     H1 1231   0.901   2.840   1.471
  342HOH     H2 1232   0.970   2.750   1.571
  343HOH      O 1233   0.521   2.547   0.422
  343HOH     H1 1234   0.479   2.633   0.413
  343HOH     H2 1235   0.585   2.558   0.493
  344HOH      O 1236   0.911   3.461   1.054
  344HOH     H1 1237   0.830   3.511   1.059
  344HOH     H2 1238   0.884   3.370   1.065
  345HOH      O 1239   0.413   1.016   0.989
  345HOH     H1 1240   0.466   1.067   1.051
  345HOH     H2 1241   0.473   0.951   0.954
  346HOH      O 1242   0.480   1.544   3.963
  346HOH     H1 1243   0.389   1.571   3.971
  346HOH     H2 1244   0.503   1.565   3.873
  347HOH      O 1245   1.897   2.656   3.999
  347HOH     H1 1246   1.859   2.741   3.976
  347HOH     H2 1247   1.853   2.594   3.941
  348HOH      O 1248   3.997   1.161   3.948
  348HOH     H1 1249   4.030   1.089   3.894
  348HOH     H2 1250   4.029   1.141   4.036
  349HOH      O 1251   2.561   1.111   1.285
  349HOH     H1 1252   2.521   1.054   1.351
  349HOH     H2 1253   2.564   1.058   1.206
  350HOH      O 1254   2.715   0.971   0.641
  350HOH     H1 1255   2.654   1.022   0.694
  350HOH     H2 1256   2.714   0.884   0.681
  351HOH      O 1257   0.215   3.149   1.884
  351HOH     H1 1258   0.119   3.142   1.888
  351HOH     H2 1259   0.240   3.185   1.969
  352HOH      O 1260   1.157   0.240   1.936
  352HOH     H1 1261   1.072   0.279   1.960
  352HOH     H2 1262   1.221   0.302   1.970
  353HOH      O 1263   3.774   0.956   2.415
  353HOH     H1 1264   3.800   0.934   2.326
  353HOH     H2 1265   3.801   1.047   2.426
  354HOH      O 1266   3.425   1.652   1.738
  354HOH     H1 1267   3.460   1.737   1.714
  354HOH     H2 1268   3.434   1.599   1.659
  355HOH      O 1269   1.590   2.208   3.424
  355HOH     H1 1270   1.643   2.287   3.432
  355HOH     H2 1271   1.592   2.187   3.330
  356HOH      O 1272   0.934   2.652   0.522
  356HOH     H1 1273   0.879   2.692   0.589
  356HOH     H2 1274   0.982   2.726   0.484
  357HOH      O 1275   0.422   2.664   3.508
  357HOH     H1 1276   0.451   2.581   3.546
  357HOH     H2 1277   0.406   2.644   3.416
  358HOH      O 1278   2.842   2.271   3.470
  358HOH     H1 1279   2.841   2.251   3.564
  358HOH     H2 1280   2.756   2.309   3.452
  359HOH      O 1281   3.801   3.082   3.242
  359HOH     H1 1282   3.750   3.043   3.171
  359HOH     H2 1283   3.746   3.152   3.276
  360HOH      O 1284   2.703   1.587   3.411
  360HOH     H1 1285   2.743   1.524   3.351
  360HOH     H2 1286   2.614   1.599   3.378
  361HOH      O 1287   2.624   0.750   2.213
  361HOH     H1 1288   2.706   0.792   2.188
  361HOH     H2 1289   2.620   0.671   2.159
  362HOH      O 1290   3.829   1.068   0.267
  362HOH     H1 1291   3.889   1.142   0.269
  362HOH     H2 1292   3.743   1.107   0.258
  363HOH      O 1293   3.107   0.975   1.911
  363HOH     H1 1294   3.138   1.043   1.972
  363HOH     H2 1295   3.167   0.902   1.923
  364HOH      O 1296   3.896   3.772   2.681
  364HOH     H1 1297   3.904   3.755   2.775
  364HOH     H2 1298   3.829   3.840   2.674
  365HOH      O 1299   1.585   3.521   1.226
  365HOH     H1 1300   1.555   3.573   1.300
  365HOH     H2 1301   1.606   3.435   1.264
  366HOH      O 1302   2.285   0.999   0.736
  366HOH     H1 1303   2.350   1.066   0.719
  366HOH     H2 1304   2.283   0.990   0.831
  367HOH      O 1305   0.092   3.110   1.549
  367HOH     H1 1306   0.131   3.104   1.637
  367HOH     H2 1307   0.076   3.204   1.537
  368HOH      O 1308   0.321   1.133   0.779
  368HOH     H1 1309   0.249   1.085   0.739
  368HOH     H2 1310   0.336   1.088   0.863
  369HOH      O 1311   2.491   3.425   1.046
  369HOH     H1 1312   2.487   3.482   0.969
  369HOH     H2 1313   2.517   3.340   1.011
  370HOH      O 1314   1.951   0.036   0.598
  370HOH     H1 1315   1.987   0.116   0.560
  370HOH     H2 1316   2.018   0.006   0.659
  371HOH      O 1317   2.651   0.723   1.177
  371HOH     H1 1318   2.694   0.643   1.209
  371HOH     H2 1319   2.565   0.694   1.149
  372HOH      O 1320   3.616   3.021   3.052
  372HOH     H1 1321   3.636   3.010   2.959
  372HOH     H2 1322   3.529   2.982   3.062
  373HOH      O 1323   0.195   3.427   3.237
  373HOH     H1 1324   0.213   3.377   3.316
  373HOH     H2 1325   0.281   3.455   3.206
  374HOH      O 1326   2.065   1.975   1.905
  374HOH     H1 1327   2.111   2.030   1.967
  374HOH     H2 1328   2.049   1.893   1.953
  375HOH      O 1329   3.851   1.253   0.831
  375HOH     H1 1330   3.864   1.345   0.853
  375HOH     H2 1331   3.794   1.220   0.901
  376HOH      O 1332   1.421   1.417   1.091
  376HOH     H1 1333   1.398   1.509   1.074
  376HOH     H2 1334   1.517   1.416   1.086
  377HOH      O 1335   2.357   3.420   3.165
  377HOH     H1 1336   2.422   3.485   3.139
  377HOH     H2 1337   2.383   3.340   3.120
  378HOH      O 1338   2.200   3.296   1.951
  378HOH     H1 1339   2.286   3.327   1.981
  378HOH     H2 1340   2.143   3.303   2.028
  379HOH      O 1341   3.551   1.294   2.786
  379HOH     H1 1342   3.637   1.272   2.823
  379HOH     H2 1343   3.560   1.385   2.759
  380HOH      O 1344   3.164   1.146   0.128
  380HOH     H1 1345   3.151   1.104   0.213
  380HOH     H2 1346   3.133   1.081   0.065
  381HOH      O 1347   0.955   1.711   0.626
  381HOH     H1 1348   0.910   1.629   0.645
  381HOH     H2 1349   0.917   1.773   0.689
  382HOH      O 1350   1.351   0.938   0.733
  382HOH     H1 1351   1.266   0.896   0.738
  382HOH     H2 1352   1.413   0.873   0.766
  383HOH      O 1353   1.968   3.868   0.047
  383HOH     H1 1354   2.061   3.882   0.032
  383HOH     H2 1355   1.951   3.909   0.133
  384HOH      O 1356   0.399   0.035   2.085
  384HOH     H1 1357   0.458  -0.014   2.029
  384HOH     H2 1358   0.424   0.010   2.174
  385HOH      O 1359   1.101   3.587   0.097
  385HOH     H1 1360   1.154   3.635   0.034
  385HOH     H2 1361   1.079   3.505   0.052
  386HOH      O 1362   2.929   2.157   1.248
  386HOH     H1 1363   2.999   2.221   1.258
  386HOH     H2 1364   2.867   2.178   1.318
  387HOH      O 1365   3.726   2.245   3.209
  387HOH     H1 1366   3.766   2.316   3.157
  387HOH     H2 1367   3.742   2.271   3.300
  388HOH      O 1368   2.378   2.235   2.787
  388HOH     H1 1369   2.356   2.253   2.696
  388HOH     H2 1370   2.307   2.275   2.838
  389HOH      O 1371   0.469   3.472   3.113
  389HOH     H1 1372   0.431   3.431   3.035
  389HOH     H2 1373   0.550   3.513   3.082
  390HOH      O 1374   1.625   1.950   1.900
  390HOH     H1 1375   1.664   1.938   1.987
  390HOH     H2 1376   1.699   1.977   1.844
  391HOH      O 1377   0.538   3.281   0.220
  391HOH     H1 1378   0.521   3.205   0.164
  391HOH     H2 1379   0.483   3.351   0.184
  392HOH      O 1380   3.868   2.122   2.937
  392HOH     H1 1381   3.860   2.027   2.930
  392HOH     H2 1382   3.955   2.136   2.976
  393HOH      O 1383   3.254   1.771   2.680
  393HOH     H1 1384   3.241   1.823   2.759
  393HOH     H2 1385   3.168   1.735   2.660
  394HOH      O 1386   2.009   2.224   0.713
  394HOH     H1 1387   1.950   2.234   0.638
  394HOH     H2 1388   1.958   2.175   0.777
  395HOH      O 1389   2.565   2.514   3.902
  395HOH     H1 1390   2.513   2.594   3.906
  395HOH     H2 1391   2.604   2.506   3.990
  396HOH      O 1392   2.237   2.428   1.349
  396HOH     H1 1393   2.187   2.436   1.268
  396HOH     H2 1394   2.171   2.433   1.418
  397HOH      O 1395   2.196   0.926   2.717
  397HOH     H1 1396   2.234   0.912   2.630
  397HOH     H2 1397   2.271   0.927   2.776
  398HOH      O 1398   1.358   1.994   2.777
  398HOH     H1 1399   1.348   2.024   2.867
  398HOH     H2 1400   1.330   1.902   2.779
  399HOH      O 1401   0.092   2.739   1.272
  399HOH     H1 1402   0.103   2.644   1.278
  399HOH     H2 1403   0.159   2.774   1.331
  400HOH      O 1404   2.320   1.688   2.106
  400HOH     H1 1405   2.388   1.626   2.079
  400HOH     H2 1406   2.359   1.774   2.092
  401HOH      O 1407   3.742   1.465   0.293
  401HOH     H1 1408   3.694   1.512   0.361
  401HOH     H2 1409   3.685   1.391   0.271
  402HOH      O 1410   2.506   3.728   1.531
  402HOH     H1 1411   2.492   3.817   1.500
  402HOH     H2 1412   2.601   3.715   1.527
  403HOH      O 1413   1.139   0.192   2.369
  403HOH     H1 1414   1.124   0.228   2.457
  403HOH     H2 1415   1.223   0.145   2.377
  404HOH      O 1416   1.589   2.844   3.554
  404HOH     H1 1417   1.570   2.914   3.615
  404HOH     H2 1418   1.504   2.811   3.527
  405HOH      O 1419   0.194   0.862   1.312
  405HOH     H1 1420   0.132   0.797   1.345
  405HOH     H2 1421   0.150   0.902   1.238
  406HOH      O 1422   0.197   1.301   2.240
  406HOH     H1 1423   0.272   1.244   2.224
  406HOH     H2 1424   0.187   1.351   2.159
  407HOH      O 1425   2.097   3.607   2.104
  407HOH     H1 1426   2.153   3.579   2.032
  407HOH     H2 1427   2.151   3.594   2.182
  408HOH      O 1428   0.447   0.833   3.668
  408HOH     H1 1429   0.509   0.904   3.650
  408HOH     H2 1430   0.498   0.769   3.717
  409HOH      O 1431   2.317   1.845   3.944
  409HOH     H1 1432   2.278   1.773   3.994
  409HOH     H2 1433   2.394   1.871   3.994
  410HOH      O 1434   1.509   0.529   2.830
  410HOH     H1 1435   1.418   0.524   2.803
  410HOH     H2 1436   1.556   0.558   2.751
  411HOH      O 1437   1.371   3.183   0.809
  411HOH     H1 1438   1.358   3.262   0.757
  411HOH     H2 1439   1.290   3.175   0.860
  412HOH      O 1440   2.848   1.039   1.886
  412HOH     H1 1441   2.821   1.075   1.801
  412HOH     H2 1442   2.943   1.031   1.880
  413HOH      O 1443   0.840   2.787   1.741
  413HOH     H1 1444   0.864   2.878   1.725
  413HOH     H2 1445   0.747   2.783   1.719
  414HOH      O 1446   2.966   3.800   1.931
  414HOH     H1 1447   3.035   3.859   1.900
  414HOH     H2 1448   2.898   3.806   1.864
  415HOH      O 1449   0.583   2.851   1.902
  415HOH     H1 1450   0.671   2.882   1.921
  415HOH     H2 1451   0.574   2.859   1.807
  416HOH      O 1452   3.801   1.140   3.373
  416HOH     H1 1453   3.718   1.173   3.407
  416HOH     H2 1454   3.825   1.202   3.303
  417HOH      O 1455   3.427   2.389   2.587
  417HOH     H1 1456   3.462   2.319   2.531
  417HOH     H2 1457   3.333   2.375   2.587
  418HOH      O 1458   0.640   3.503   2.333
  418HOH     H1 1459   0.651   3.410   2.351
  418HOH     H2 1460   0.693   3.519   2.255
  419HOH      O 1461   1.527   2.963   1.533
  419HOH     H1 1462   1.558   2.930   1.449
  419HOH     H2 1463   1.437   2.931   1.541
  420HOH      O 1464   1.526   3.682   2.869
  420HOH     H1 1465   1.569   3.768   2.866
  420HOH     H2 1466   1.444   3.699   2.915
  421HOH      O 1467   1.129   3.649   1.098
  421HOH     H1 1468   1.054   3.604   1.061
  421HOH     H2 1469   1.204   3.594   1.074
  422HOH      O 1470   1.282   3.799   2.636
  422HOH     H1 1471   1.275   3.709   2.667
  422HOH     H2 1472   1.209   3.809   2.575
  423HOH      O 1473   2.788   1.307   0.303
  423HOH     H1 1474   2.803   1.372   0.371
  423HOH     H2 1475   2.792   1.223   0.349
  424HOH      O 1476   2.542   3.916   3.517
  424HOH     H1 1477   2.466   3.917   3.575
  424HOH     H2 1478   2.543   3.827   3.481
  425HOH      O 1479   2.262   0.517   1.321
  425HOH     H1 1480   2.283   0.604   1.354
  425HOH     H2 1481   2.214   0.475   1.394
  426HOH      O 1482   3.169   1.941   0.124
  426HOH     H1 1483   3.137   2.022   0.165
  426HOH     H2 1484   3.148   1.951   0.031
  427HOH      O 1485   0.082   0.364   2.287
  427HOH     H1 1486   0.150   0.333   2.347
  427HOH     H2 1487   0.128   0.424   2.228
  428HOH      O 1488   2.649   2.867   1.428
  428HOH     H1 1489   2.582   2.935   1.433
  428HOH     H2 1490   2.710   2.898   1.360
  429HOH      O 1491   1.895   1.498   3.846
  429HOH     H1 1492   1.800   1.494   3.857
  429HOH     H2 1493   1.928   1.518   3.934
  430HOH      O 1494   1.954   3.388   3.663
  430HOH     H1 1495   2.002   3.470   3.662
  430HOH     H2 1496   1.988   3.340   3.587
  431HOH      O 1497   1.104   3.969   4.002
  431HOH     H1 1498   1.136   3.886   3.967
  431HOH     H2 1499   1.183   4.024   4.009
  432HOH      O 1500   3.257   0.644   2.457
  432HOH     H1 1501   3.256   0.639   2.553
  432HOH     H2 1502   3.315   0.717   2.437
  433HOH      O 1503   1.615   3.510   0.105
  433HOH     H1 1504   1.607   3.564   0.026
  433HOH     H2 1505   1.708   3.489   0.110
  434HOH      O 1506   3.058   1.653   2.237
  434HOH     H1 1507   2.974   1.608   2.250
  434HOH     H2 1508   3.123   1.590   2.269
  435HOH      O 1509   3.844   1.388   3.583
  435HOH     H1 1510   3.865   1.313   3.527
  435HOH     H2 1511   3.758   1.417   3.553
  436HOH      O 1512   0.332   0.491   3.021
  436HOH     H1 1513   0.274   0.561   3.050
  436HOH     H2 1514   0.351   0.441   3.100
  437HOH      O 1515   3.837   2.123   0.362
  437HOH     H1 1516   3.752   2.134   0.319
  437HOH     H2 1517   3.816   2.111   0.454
  438HOH      O 1518   1.976   1.169   2.965
  438HOH     H1 1519   1.925   1.120   3.029
  438HOH     H2 1520   2.041   1.217   3.016
  439HOH      O 1521   3.058   0.695   3.409
  439HOH     H1 1522   3.123   0.742   3.356
  439HOH     H2 1523   3.043   0.752   3.484
  440HOH      O 1524   2.486   2.089   1.887
  440HOH     H1 1525   2.419   2.049   1.831
  440HOH     H2 1526   2.537   2.144   1.827
  441HOH      O 1527   3.331   0.232   0.931
  441HOH     H1 1528   3.268   0.300   0.953
  441HOH     H2 1529   3.397   0.276   0.878
  442HOH      O 1530   1.160   0.550   1.883
  442HOH     H1 1531   1.100   0.574   1.813
  442HOH     H2 1532   1.105   0.510   1.950
  443HOH      O 1533   1.993   2.433   3.805
  443HOH     H1 1534   2.015   2.523   3.778
  443HOH     H2 1535   2.051   2.415   3.878
  444HOH      O 1536   0.274   0.209   2.577
  444HOH     H1 1537   0.300   0.190   2.668
  444HOH     H2 1538   0.249   0.301   2.579
  445HOH      O 1539   1.202   2.328   1.294
  445HOH     H1 1540   1.240   2.344   1.380
  445HOH     H2 1541   1.112   2.361   1.300
  446HOH      O 1542   1.816   1.311   0.582
  446HOH     H1 1543   1.905   1.306   0.547
  446HOH     H2 1544   1.809   1.236   0.640
  447HOH      O 1545   2.360   2.344   3.282
  447HOH     H1 1546   2.317   2.258   3.280
  447HOH     H2 1547   2.292   2.402   3.316
  448HOH      O 1548   3.568   0.644   2.728
  448HOH     H1 1549   3.573   0.559   2.773
  448HOH     H2 1550   3.475   0.656   2.711
  449HOH      O 1551   0.485   1.676   2.500
  449HOH     H1 1552   0.517   1.713   2.582
  449HOH     H2 1553   0.552   1.613   2.474
  450HOH      O 1554   2.613   1.781   1.284
  450HOH     H1 1555   2.644   1.797   1.373
  450HOH     H2 1556   2.574   1.694   1.286
  451HOH      O 1557   3.337   2.420   3.453
  451HOH     H1 1558   3.271   2.415   3.522
  451HOH     H2 1559   3.325   2.339   3.403
  452HOH      O 1560   0.596   3.198   2.172
  452HOH     H1 1561   0.599   3.104   2.190
  452HOH     H2 1562   0.635   3.238   2.250
  453HOH      O 1563   1.677   0.611   1.588
  453HOH     H1 1564   1.586   0.639   1.578
  453HOH     H2 1565   1.674   0.515   1.589
  454HOH      O 1566   2.202   1.238   1.768
  454HOH     H1 1567   2.192   1.188   1.849
  454HOH     H2 1568   2.266   1.189   1.717
  455HOH      O 1569   2.190   2.842   1.669
  455HOH     H1 1570   2.130   2.773   1.640
  455HOH     H2 1571   2.256   2.847   1.599
  456HOH      O 1572   2.686   3.634   0.476
  456HOH     H1 1573   2.713   3.627   0.385
  456HOH     H2 1574   2.732   3.711   0.509
  457HOH      O 1575   2.775   1.371   3.260
  457HOH     H1 1576   2.730   1.310   3.318
  457HOH     H2 1577   2.837   1.318   3.210
  458HOH      O 1578   0.808   1.313   3.805
  458HOH     H1 1579   0.741   1.335   3.870
  458HOH     H2 1580   0.818   1.218   3.813
  459HOH      O 1581   2.164   2.472   2.734
  459HOH     H1 1582   2.097   2.460   2.667
  459HOH     H2 1583   2.154   2.395   2.790
  460HOH      O 1584   0.438   1.761   3.068
  460HOH     H1 1585   0.533   1.762   3.059
  460HOH     H2 1586   0.406   1.735   2.982
  461HOH      O 1587   2.073   1.540   0.757
  461HOH     H1 1588   2.006   1.511   0.819
  461HOH     H2 1589   2.116   1.613   0.802
  462HOH      O 1590   0.494   1.665   0.345
  462HOH     H1 1591   0.578   1.706   0.366
  462HOH     H2 1592   0.435   1.737   0.327
  463HOH      O 1593   1.014   2.069   3.874
  463HOH     H1 1594   0.978   1.990   3.914
  463HOH     H2 1595   1.014   2.134   3.945
  464HOH      O 1596   2.169   2.289   2.957
  464HOH     H1 1597   2.164   2.194   2.973
  464HOH     H2 1598   2.154   2.328   3.043
  465HOH      O 1599   2.172   2.001   3.721
  465HOH     H1 1600   2.099   2.013   3.660
  465HOH     H2 1601   2.175   1.906   3.736
  466HOH      O 1602   0.910   3.134   2.798
  466HOH     H1 1603   0.913   3.230   2.804
  466HOH     H2 1604   0.826   3.116   2.755
  467HOH      O 1605   3.180   2.226   2.487
  467HOH     H1 1606   3.107   2.179   2.447
  467HOH     H2 1607   3.255   2.166   2.478
  468HOH      O 1608   0.696   0.520   1.816
  468HOH     H1 1609   0.657   0.572   1.886
  468HOH     H2 1610   0.633   0.450   1.800
  469HOH      O 1611   3.136   1.098   2.603
  469HOH     H1 1612   3.114   1.185   2.638
  469HOH     H2 1613   3.231   1.092   2.611
  470HOH      O 1614   2.038   2.754   2.052
  470HOH     H1 1615   1.947   2.763   2.023
  470HOH     H2 1616   2.084   2.827   2.012
  471HOH      O 1617   3.028   1.195   2.074
  471HOH     H1 1618   2.993   1.216   1.987
  471HOH     H2 1619   2.952   1.200   2.132
  472HOH      O 1620   0.836   3.785   0.449
  472HOH     H1 1621   0.843   3.692   0.426
  472HOH     H2 1622   0.873   3.831   0.375
  473HOH      O 1623   2.293   1.914   0.242
  473HOH     H1 1624   2.299   1.894   0.335
  473HOH     H2 1625   2.383   1.904   0.210
  474HOH      O 1626   2.899   2.466   2.186
  474HOH     H1 1627   2.968   2.474   2.252
  474HOH     H2 1628   2.864   2.378   2.198
  475HOH      O 1629   3.303   1.970   1.250
  475HOH     H1 1630   3.311   2.042   1.313
  475HOH     H2 1631   3.342   1.895   1.295
  476HOH      O 1632   3.505   0.709   3.767
  476HOH     H1 1633   3.578   0.722   3.827
  476HOH     H2 1634   3.458   0.793   3.768
  477HOH      O 1635   2.495   0.854   0.055
  477HOH     H1 1636   2.472   0.904   0.134
  477HOH     H2 1637   2.451   0.770   0.066
  478HOH      O 1638   3.660   2.331   1.039
  478HOH     H1 1639   3.598   2.389   1.083
  478HOH     H2 1640   3.690   2.271   1.108
  479HOH      O 1641   1.042   3.850   0.849
  479HOH     H1 1642   1.058   3.778   0.788
  479HOH     H2 1643   0.951   3.840   0.874
  480HOH      O 1644   1.636   1.759   2.876
  480HOH     H1 1645   1.641   1.853   2.857
  480HOH     H2 1646   1.609   1.719   2.793
  481HOH      O 1647   1.214   1.833   3.157
  481HOH     H1 1648   1.237   1.914   3.112
  481HOH     H2 1649   1.122   1.844   3.181
  482HOH      O 1650   1.121   0.235   3.202
  482HOH     H1 1651   1.052   0.300   3.218
  482HOH     H2 1652   1.185   0.280   3.149
  483HOH      O 1653   1.332   2.527   2.651
  483HOH     H1 1654   1.316   2.575   2.733
  483HOH     H2 1655   1.289   2.581   2.584
  484HOH      O 1656   1.960   3.267   2.259
  484HOH     H1 1657   1.909   3.314   2.325
  484HOH     H2 1658   1.904   3.267   2.182
  485HOH      O 1659   1.650   1.096   1.326
  485HOH     H1 1660   1.630   1.003   1.319
  485HOH     H2 1661   1.572   1.140   1.294
  486HOH      O 1662   2.225   1.745   1.143
  486HOH     H1 1663   2.230   1.705   1.230
  486HOH     H2 1664   2.132   1.758   1.128
  487HOH      O 1665   2.808   2.964   1.255
  487HOH     H1 1666   2.741   2.965   1.188
  487HOH     H2 1667   2.836   3.055   1.263
  488HOH      O 1668   3.055   3.650   3.394
  488HOH     H1 1669   3.041   3.674   3.485
  488HOH     H2 1670   3.120   3.714   3.363
  489HOH      O 1671   0.092   3.974   0.754
  489HOH     H1 1672   0.170   3.921   0.736
  489HOH     H2 1673   0.113   4.061   0.720
  490HOH      O 1674   4.020   4.005   0.408
  490HOH     H1 1675   3.960   4.027   0.337
  490HOH     H2 1676   3.965   3.964   0.475
  491HOH      O 1677   0.645   3.252   2.428
  491HOH     H1 1678   0.677   3.219   2.512
  491HOH     H2 1679   0.554   3.278   2.445
  492HOH      O 1680   2.710   0.258   1.863
  492HOH     H1 1681   2.707   0.162   1.866
  492HOH     H2 1682   2.770   0.282   1.933
  493HOH      O 1683   2.659   1.489   1.660
  493HOH     H1 1684   2.730   1.453   1.607
  493HOH     H2 1685   2.658   1.582   1.638
  494HOH      O 1686   1.837   0.830   3.331
  494HOH     H1 1687   1.892   0.878   3.392
  494HOH     H2 1688   1.854   0.738   3.350
  495HOH      O 1689   3.963   1.133   1.216
  495HOH     H1 1690   4.028   1.080   1.171
  495HOH     H2 1691   4.006   1.161   1.297
  496HOH      O 1692   1.688   0.141   2.595
  496HOH     H1 1693   1.627   0.073   2.623
  496HOH     H2 1694   1.773   0.098   2.596
  497HOH      O 1695   2.478   2.820   3.335
  497HOH     H1 1696   2.491   2.915   3.334
  497HOH     H2 1697   2.479   2.797   3.428
  498HOH      O 1698   2.385   1.403   2.348
  498HOH     H1 1699   2.334   1.412   2.267
  498HOH     H2 1700   2.320   1.387   2.416
  499HOH      O 1701   3.013   1.602   1.487
  499HOH     H1 1702   3.083   1.548   1.450
  499HOH     H2 1703   2.936   1.545   1.487
  500HOH      O 1704   1.806   0.251   2.283
  500HOH     H1 1705   1.894   0.287   2.295
  500HOH     H2 1706   1.821   0.162   2.251
  501HOH      O 1707   1.885   3.078   0.833
  501HOH     H1 1708   1.798   3.045   0.855
  501HOH     H2 1709   1.907   3.033   0.751
  502HOH      O 1710   3.370   2.221   1.360
  502HOH     H1 1711   3.346   2.254   1.273
  502HOH     H2 1712   3.427   2.289   1.397
  503HOH      O 1713   0.278   1.911   1.522
  503HOH     H1 1714   0.340   1.962   1.471
  503HOH     H2 1715   0.222   1.869   1.456
  504HOH      O 1716   3.157   3.756   3.811
  504HOH     H1 1717   3.250   3.761   3.789
  504HOH     H2 1718   3.115   3.818   3.751
  505HOH      O 1719   1.622   3.617   2.294
  505HOH     H1 1720   1.693   3.573   2.247
  505HOH     H2 1721   1.580   3.547   2.344
  506HOH      O 1722   1.399   0.618   1.484
  506HOH     H1 1723   1.356   0.667   1.554
  506HOH     H2 1724   1.345   0.540   1.472
  507HOH      O 1725   3.684   1.715   1.160
  507HOH     H1 1726   3.693   1.621   1.147
  507HOH     H2 1727   3.613   1.740   1.101
  508HOH      O 1728   2.310   2.016   1.313
  508HOH     H1 1729   2.363   2.092   1.335
  508HOH     H2 1730   2.367   1.962   1.259
  509HOH      O 1731   2.944   1.883   1.189
  509HOH     H1 1732   2.983   1.870   1.275
  509HOH     H2 1733   2.904   1.970   1.194
  510HOH      O 1734   1.674   0.121   0.365
  510HOH     H1 1735   1.587   0.111   0.327
  510HOH     H2 1736   1.727   0.159   0.295
  511HOH      O 1737   1.866   1.692   1.669
  511HOH     H1 1738   1.955   1.658   1.663
  511HOH     H2 1739   1.834   1.660   1.754
  512HOH      O 1740   2.106   1.124   0.974
  512HOH     H1 1741   2.193   1.137   1.011
  512HOH     H2 1742   2.054   1.197   1.009
  513HOH      O 1743   0.735   3.243   1.338
  513HOH     H1 1744   0.745   3.269   1.429
  513HOH     H2 1745   0.641   3.236   1.325
  514HOH      O 1746   1.333   3.943   0.285
  514HOH     H1 1747   1.391   3.868   0.272
  514HOH     H2 1748   1.285   3.923   0.365
  515HOH      O 1749   1.292   2.848   1.457
  515HOH     H1 1750   1.206   2.809   1.474
  515HOH     H2 1751   1.285   2.887   1.370
  516HOH      O 1752   2.095   3.825   3.392
  516HOH     H1 1753   2.066   3.893   3.452
  516HOH     H2 1754   2.034   3.752   3.405
  517HOH      O 1755   0.985   1.557   2.941
  517HOH     H1 1756   1.072   1.593   2.958
  517HOH     H2 1757   0.946   1.544   3.028
  518HOH      O 1758   1.889   3.279   1.799
  518HOH     H1 1759   1.941   3.329   1.736
  518HOH     H2 1760   1.820   3.239   1.747
  519HOH      O 1761   1.871   1.010   1.570
  519HOH     H1 1762   1.913   1.070   1.630
  519HOH     H2 1763   1.822   0.950   1.626
  520HOH      O 1764   1.478   0.776   0.014
  520HOH     H1 1765   1.503   0.810  -0.072
  520HOH     H2 1766   1.552   0.799   0.071
  521HOH      O 1767   1.201   1.304   0.178
  521HOH     H1 1768   1.171   1.389   0.209
  521HOH     H2 1769   1.191   1.246   0.254
  522HOH      O 1770   1.060   2.790   3.266
  522HOH     H1 1771   1.056   2.696   3.283
  522HOH     H2 1772   1.008   2.829   3.337
  523HOH      O 1773   2.660   1.596   2.857
  523HOH     H1 1774   2.705   1.681   2.860
  523HOH     H2 1775   2.730   1.531   2.856
  524HOH      O 1776   2.130   1.771   1.397
  524HOH     H1 1777   2.209   1.825   1.404
  524HOH     H2 1778   2.080   1.793   1.476
  525HOH      O 1779   0.960   3.439   0.772
  525HOH     H1 1780   0.986   3.523   0.735
  525HOH     H2 1781   0.933   3.459   0.862
  526HOH      O 1782   2.850   0.919   1.225
  526HOH     H1 1783   2.783   0.892   1.162
  526HOH     H2 1784   2.813   0.896   1.311
  527HOH      O 1785   0.862   1.850   1.955
  527HOH     H1 1786   0.914   1.924   1.986
  527HOH     H2 1787   0.804   1.829   2.029
  528HOH      O 1788   2.138   0.054   2.511
  528HOH     H1 1789   2.108   0.109   2.583
  528HOH     H2 1790   2.146   0.114   2.437
  529HOH      O 1791   1.224   3.737   3.932
  529HOH     H1 1792   1.193   3.685   3.857
  529HOH     H2 1793   1.303   3.781   3.900
  530HOH      O 1794   2.142  -0.003   1.307
  530HOH     H1 1795   2.077   0.067   1.307
  530HOH     H2 1796   2.199   0.017   1.233
  531HOH      O 1797   0.194   1.765   0.185
  531HOH     H1 1798   0.199   1.815   0.104
  531HOH     H2 1799   0.113   1.713   0.177
  532HOH      O 1800   3.062   3.938   3.605
  532HOH     H1 1801   2.983   3.924   3.552
  532HOH     H2 1802   3.056   4.030   3.631
  533HOH      O 1803   0.154   1.517   2.415
  533HOH     H1 1804   0.059   1.513   2.408
  533HOH     H2 1805   0.186   1.453   2.351
  534HOH      O 1806   3.590   3.570   3.555
  534HOH     H1 1807   3.675   3.550   3.517
  534HOH     H2 1808   3.606   3.576   3.649
  535HOH      O 1809   2.319   0.717   2.072
  535HOH     H1 1810   2.393   0.762   2.113
  535HOH     H2 1811   2.267   0.684   2.145
  536HOH      O 1812   2.534   1.149   0.726
  536HOH     H1 1813   2.480   1.201   0.787
  536HOH     H2 1814   2.584   1.214   0.677
  537HOH      O 1815   2.772   1.775   1.551
  537HOH     H1 1816   2.837   1.808   1.488
  537HOH     H2 1817   2.729   1.854   1.584
  538HOH      O 1818   0.850   0.876   1.589
  538HOH     H1 1819   0.864   0.946   1.653
  538HOH     H2 1820   0.927   0.820   1.596
  539HOH      O 1821   0.462   0.691   3.419
  539HOH     H1 1822   0.458   0.754   3.490
  539HOH     H2 1823   0.389   0.713   3.362
  540HOH      O 1824   2.530   3.940   1.316
  540HOH     H1 1825   2.505   3.851   1.292
  540HOH     H2 1826   2.612   3.956   1.269
  541HOH      O 1827   0.463   0.662   1.902
  541HOH     H1 1828   0.372   0.635   1.891
  541HOH     H2 1829   0.481   0.717   1.826
  542HOH      O 1830   2.149   3.046   2.223
  542HOH     H1 1831   2.101   3.107   2.279
  542HOH     H2 1832   2.234   3.087   2.210
  543HOH      O 1833   1.467   3.602   0.941
  543HOH     H1 1834   1.459   3.579   1.034
  543HOH     H2 1835   1.541   3.662   0.938
  544HOH      O 1836   0.706   1.492   1.226
  544HOH     H1 1837   0.612   1.499   1.238
  544HOH     H2 1838   0.719   1.504   1.131
  545HOH      O 1839   0.399   3.851   2.853
  545HOH     H1 1840   0.333   3.789   2.823
  545HOH     H2 1841   0.379   3.932   2.807
  546HOH      O 1842   0.550   1.166   0.617
  546HOH     H1 1843   0.482   1.168   0.684
  546HOH     H2 1844   0.509   1.201   0.539
  547HOH      O 1845   2.651   3.650   2.675
  547HOH     H1 1846   2.703   3.678   2.599
  547HOH     H2 1847   2.586   3.719   2.686
  548HOH      O 1848   3.005   0.413   3.546
  548HOH     H1 1849   3.005   0.445   3.456
  548HOH     H2 1850   3.094   0.428   3.578
  549HOH      O 1851   0.263   2.833   1.450
  549HOH     H1 1852   0.282   2.753   1.499
  549HOH     H2 1853   0.248   2.900   1.518
  550HOH      O 1854   1.722   1.494   2.987
  550HOH     H1 1855   1.814   1.520   2.989
  550HOH     H2 1856   1.675   1.574   2.963
  551HOH      O 1857   1.242   2.406   3.075
  551HOH     H1 1858   1.327   2.450   3.088
  551HOH     H2 1859   1.229   2.357   3.156
  552HOH      O 1860   1.000   2.091   1.145
  552HOH     H1 1861   0.947   2.160   1.184
  552HOH     H2 1862   0.966   2.010   1.183
  553HOH      O 1863   2.794   3.048   3.704
  553HOH     H1 1864   2.883   3.082   3.714
  553HOH     H2 1865   2.738   3.115   3.744
  554HOH      O 1866   2.018   1.205   1.381
  554HOH     H1 1867   2.078   1.268   1.420
  554HOH     H2 1868   1.931   1.234   1.409
  555HOH      O 1869   0.250   1.891   3.983
  555HOH     H1 1870   0.246   1.894   3.888
  555HOH     H2 1871   0.314   1.957   4.007
  556HOH      O 1872   3.728   0.182   1.971
  556HOH     H1 1873   3.820   0.168   1.992
  556HOH     H2 1874   3.729   0.203   1.877
  557HOH      O 1875   1.625   0.479   2.114
  557HOH     H1 1876   1.620   0.389   2.148
  557HOH     H2 1877   1.718   0.501   2.119
  558HOH      O 1878   0.274   1.374   1.743
  558HOH     H1 1879   0.196   1.334   1.704
  558HOH     H2 1880   0.297   1.445   1.683
  559HOH      O 1881   2.398   2.936   1.021
  559HOH     H1 1882   2.418   3.012   1.075
  559HOH     H2 1883   2.436   2.958   0.935
  560HOH      O 1884   3.300   3.154   3.948
  560HOH     H1 1885   3.372   3.194   3.899
  560HOH     H2 1886   3.331   3.066   3.969
  561HOH      O 1887   3.352   2.535   0.935
  561HOH     H1 1888   3.445   2.546   0.917
  561HOH     H2 1889   3.328   2.453   0.893
  562HOH      O 1890   2.969   2.717   2.175
  562HOH     H1 1891   2.899   2.775   2.205
  562HOH     H2 1892   2.933   2.629   2.185
  563HOH      O 1893   3.269   0.009   0.093
  563HOH     H1 1894   3.294   0.061   0.169
  563HOH     H2 1895   3.324   0.041   0.022
  564HOH      O 1896   0.426   1.523   1.280
  564HOH     H1 1897   0.402   1.548   1.191
  564HOH     H2 1898   0.438   1.607   1.325
  565HOH      O 1899   1.772   3.305   2.044
  565HOH     H1 1900   1.824   3.296   1.964
  565HOH     H2 1901   1.682   3.293   2.015
  566HOH      O 1902   1.618   3.734   1.994
  566HOH     H1 1903   1.673   3.657   2.009
  566HOH     H2 1904   1.631   3.755   1.902
  567HOH      O 1905   2.922   0.768   2.694
  567HOH     H1 1906   2.857   0.730   2.752
  567HOH     H2 1907   3.000   0.779   2.749
  568HOH      O 1908   0.398   1.272   1.407
  568HOH     H1 1909   0.409   1.358   1.365
  568HOH     H2 1910   0.471   1.266   1.468
  569HOH      O 1911  -0.001   2.852   1.028
  569HOH     H1 1912   0.024   2.945   1.032
  569HOH     H2 1913   0.040   2.813   1.106
  570HOH      O 1914   3.885   1.599   2.963
  570HOH     H1 1915   3.981   1.608   2.961
  570HOH     H2 1916   3.853   1.686   2.939
  571HOH      O 1917   1.766   2.607   0.588
  571HOH     H1 1918   1.839   2.587   0.529
  571HOH     H2 1919   1.784   2.555   0.666
  572HOH      O 1920   0.879   2.702   0.246
  572HOH     H1 1921   0.961   2.748   0.233
  572HOH     H2 1922   0.879   2.680   0.339
  573HOH      O 1923   2.274   2.239   0.197
  573HOH     H1 1924   2.359   2.209   0.164
  573HOH     H2 1925   2.290   2.260   0.289
  574HOH      O 1926   1.749   3.134   0.198
  574HOH     H1 1927   1.747   3.198   0.269
  574HOH     H2 1928   1.815   3.070   0.225
  575HOH      O 1929   3.434   1.337   1.262
  575HOH     H1 1930   3.393   1.253   1.284
  575HOH     H2 1931   3.410   1.352   1.171
  576HOH      O 1932   0.581   1.971   3.417
  576HOH     H1 1933   0.572   1.879   3.394
  576HOH     H2 1934   0.500   2.012   3.387
  577HOH      O 1935   1.514   1.586   1.724
  577HOH     H1 1936   1.601   1.559   1.754
  577HOH     H2 1937   1.498   1.532   1.647
  578HOH      O 1938   3.027   0.341   0.056
  578HOH     H1 1939   2.949   0.286   0.047
  578HOH     H2 1940   3.055   0.327   0.146
  579HOH      O 1941   1.157   3.484   1.666
  579HOH     H1 1942   1.207   3.509   1.588
  579HOH     H2 1943   1.101   3.560   1.683
  580HOH      O 1944   3.216   2.317   1.929
  580HOH     H1 1945   3.231   2.352   2.016
  580HOH     H2 1946   3.262   2.234   1.928
  581HOH      O 1947   2.096   2.099   0.048
  581HOH     H1 1948   2.163   2.145   0.098
  581HOH     H2 1949   2.133   2.094  -0.041
  582HOH      O 1950   3.424   1.777   2.978
  582HOH     H1 1951   3.446   1.736   3.062
  582HOH     H2 1952   3.506   1.812   2.945
  583HOH      O 1953   0.533   2.270   2.325
  583HOH     H1 1954   0.474   2.198   2.305
  583HOH     H2 1955   0.476   2.340   2.356
  584HOH      O 1956   1.350   2.477   3.482
  584HOH     H1 1957   1.341   2.382   3.478
  584HOH     H2 1958   1.317   2.501   3.569
  585HOH      O 1959   3.143   0.857   1.011
  585HOH     H1 1960   3.217   0.916   0.995
  585HOH     H2 1961   3.137   0.851   1.106
  586HOH      O 1962   1.457   3.530   1.791
  586HOH     H1 1963   1.462   3.455   1.732
  586HOH     H2 1964   1.522   3.592   1.758
  587HOH      O 1965   1.658   1.740   1.155
  587HOH     H1 1966   1.628   1.664   1.205
  587HOH     H2 1967   1.725   1.780   1.210
  588HOH      O 1968   0.276   2.621   1.631
  588HOH     H1 1969   0.272   2.528   1.650
  588HOH     H2 1970   0.188   2.653   1.648
  589HOH      O 1971   0.377   1.355   3.113
  589HOH     H1 1972   0.325   1.282   3.148
  589HOH     H2 1973   0.457   1.355   3.165
  590HOH      O 1974   2.285   0.669   2.969
  590HOH     H1 1975   2.192   0.689   2.956
  590HOH     H2 1976   2.302   0.695   3.060
  591HOH      O 1977   1.565   1.998   1.059
  591HOH     H1 1978   1.584   1.909   1.090
  591HOH     H2 1979   1.552   1.988   0.965
  592HOH      O 1980   3.959   1.991   3.978
  592HOH     H1 1981   3.896   2.045   3.931
  592HOH     H2 1982   3.982   1.922   3.917
  593HOH      O 1983   0.297   2.049   0.704
  593HOH     H1 1984   0.251   2.115   0.755
  593HOH     H2 1985   0.389   2.077   0.706
  594HOH      O 1986   2.945   1.166   3.485
  594HOH     H1 1987   2.907   1.110   3.418
  594HOH     H2 1988   3.020   1.207   3.442
  595HOH      O 1989   3.859   0.340   3.195
  595HOH     H1 1990   3.876   0.434   3.193
  595HOH     H2 1991   3.920   0.303   3.131
  596HOH      O 1992   3.346   1.754   0.087
  596HOH     H1 1993   3.327   1.710   0.004
  596HOH     H2 1994   3.270   1.811   0.102
  597HOH      O 1995   1.027   1.912   3.559
  597HOH     H1 1996   1.122   1.927   3.561
  597HOH     H2 1997   0.990   1.985   3.608
  598HOH      O 1998   2.837   3.863   3.829
  598HOH     H1 1999   2.890   3.883   3.906
  598HOH     H2 2000   2.887   3.797   3.782
  599HOH      O 2001   0.627   1.498   0.963
  599HOH     H1 2002   0.535   1.513   0.986
  599HOH     H2 2003   0.643   1.558   0.891
  600HOH      O 2004   0.085   1.605   0.869
  600HOH     H1 2005   0.094   1.676   0.806
  600HOH     H2 2006   0.127   1.530   0.827
  601HOH      O 2007   1.222   3.341   1.141
  601HOH     H1 2008   1.176   3.345   1.225
  601HOH     H2 2009   1.314   3.331   1.165
  602HOH      O 2010   0.130   0.372   0.041
  602HOH     H1 2011   0.135   0.280   0.066
  602HOH     H2 2012   0.143   0.420   0.122
  603HOH      O 2013   1.545   3.046   2.856
  603HOH     H1 2014   1.479   2.982   2.881
  603HOH     H2 2015   1.619   3.028   2.913
  604HOH      O 2016   2.616   2.949   2.680
  604HOH     H1 2017   2.601   3.007   2.605
  604HOH     H2 2018   2.672   2.880   2.645
  605HOH      O 2019   1.168   2.975   1.242
  605HOH     H1 2020   1.104   2.906   1.223
  605HOH     H2 2021   1.151   3.042   1.176
  606HOH      O 2022   0.853   0.401   3.554
  606HOH     H1 2023   0.879   0.405   3.462
  606HOH     H2 2024   0.760   0.380   3.551
  607HOH      O 2025   0.873   2.295   1.271
  607HOH     H1 2026   0.800   2.284   1.211
  607HOH     H2 2027   0.833   2.318   1.354
  608HOH      O 2028   1.202   2.767   2.549
  608HOH     H1 2029   1.106   2.763   2.553
  608HOH     H2 2030   1.220   2.857   2.523
  609HOH      O 2031   3.286   3.166   2.044
  609HOH     H1 2032   3.225   3.225   1.999
  609HOH     H2 2033   3.232   3.121   2.109
  610HOH      O 2034   3.865   0.812   2.661
  610HOH     H1 2035   3.957   0.812   2.637
  610HOH     H2 2036   3.819   0.837   2.581
  611HOH      O 2037   1.281   2.930   2.871
  611HOH     H1 2038   1.239   2.966   2.793
  611HOH     H2 2039   1.234   2.972   2.944
  612HOH      O 2040   0.228   1.706   2.594
  612HOH     H1 2041   0.298   1.732   2.535
  612HOH     H2 2042   0.183   1.635   2.548
  613HOH      O 2043   0.569   0.397   2.110
  613HOH     H1 2044   0.556   0.330   2.043
  613HOH     H2 2045   0.623   0.354   2.176
  614HOH      O 2046   0.204   1.430   2.672
  614HOH     H1 2047   0.285   1.379   2.667
  614HOH     H2 2048   0.186   1.455   2.581
  615HOH      O 2049   3.856   0.234   1.703
  615HOH     H1 2050   3.814   0.305   1.654
  615HOH     H2 2051   3.838   0.155   1.653
  616HOH      O 2052   0.329   3.263   2.111
  616HOH     H1 2053   0.289   3.259   2.198
  616HOH     H2 2054   0.408   3.209   2.119
  617HOH      O 2055   0.375   3.422   1.400
  617HOH     H1 2056   0.331   3.410   1.484
  617HOH     H2 2057   0.318   3.482   1.352
  618HOH      O 2058   0.995   0.841   2.572
  618HOH     H1 2059   1.001   0.890   2.490
  618HOH     H2 2060   1.082   0.803   2.584
  619HOH      O 2061   3.195   3.375   2.259
  619HOH     H1 2062   3.271   3.411   2.304
  619HOH     H2 2063   3.202   3.280   2.271
  620HOH      O 2064   0.934   3.173   0.741
  620HOH     H1 2065   0.867   3.169   0.809
  620HOH     H2 2066   0.948   3.267   0.727
  621HOH      O 2067   0.874   1.138   1.221
  621HOH     H1 2068   0.810   1.161   1.154
  621HOH     H2 2069   0.822   1.103   1.294
  622HOH      O 2070   3.090   2.192   0.477
  622HOH     H1 2071   3.136   2.274   0.459
  622HOH     H2 2072   3.069   2.196   0.570
  623HOH      O 2073   3.106   2.625   1.973
  623HOH     H1 2074   3.056   2.662   2.046
  623HOH     H2 2075   3.159   2.556   2.013
  624HOH      O 2076   1.815   0.723   0.096
  624HOH     H1 2077   1.827   0.647   0.039
  624HOH     H2 2078   1.890   0.720   0.156
  625HOH      O 2079   3.638   2.682   0.276
  625HOH     H1 2080   3.571   2.687   0.208
  625HOH     H2 2081   3.636   2.591   0.305
  626HOH      O 2082   2.216   2.724   3.323
  626HOH     H1 2083   2.310   2.733   3.308
  626HOH     H2 2084   2.175   2.762   3.246
  627HOH      O 2085   1.631   3.935   2.881
  627HOH     H1 2086   1.720   3.970   2.869
  627HOH     H2 2087   1.582   3.969   2.806
  628HOH      O 2088   3.742   2.407   0.133
  628HOH     H1 2089   3.799   2.348   0.084
  628HOH     H2 2090   3.739   2.487   0.081
  629HOH      O 2091   2.601   1.707   0.520
  629HOH     H1 2092   2.515   1.707   0.563
  629HOH     H2 2093   2.630   1.798   0.524
  630HOH      O 2094   2.970   3.505   2.347
  630HOH     H1 2095   2.945   3.506   2.255
  630HOH     H2 2096   3.059   3.470   2.348
  631HOH      O 2097   0.236   1.918   3.709
  631HOH     H1 2098   0.208   1.895   3.620
  631HOH     H2 2099   0.326   1.949   3.698
  632HOH      O 2100   2.444   3.994   1.688
  632HOH     H1 2101   2.411   3.909   1.660
  632HOH     H2 2102   2.375   4.056   1.664
  633HOH      O 2103   2.847   2.773   3.522
  633HOH     H1 2104   2.823   2.733   3.605
  633HOH     H2 2105   2.810   2.861   3.526
  634HOH      O 2106   3.090   0.773   1.292
  634HOH     H1 2107   3.069   0.680   1.292
  634HOH     H2 2108   3.005   0.817   1.290
  635HOH      O 2109   3.825   1.359   3.874
  635HOH     H1 2110   3.850   1.382   3.785
  635HOH     H2 2111   3.894   1.300   3.904
  636HOH      O 2112   2.111   1.291   0.629
  636HOH     H1 2113   2.113   1.381   0.664
  636HOH     H2 2114   2.106   1.236   0.708
  637HOH      O 2115   1.955   2.317   1.478
  637HOH     H1 2116   1.904   2.349   1.403
  637HOH     H2 2117   1.890   2.302   1.546
  638HOH      O 2118   3.921   2.610   0.976
  638HOH     H1 2119   3.841   2.649   1.013
  638HOH     H2 2120   3.964   2.682   0.931
  639HOH      O 2121   2.707   2.683   0.726
  639HOH     H1 2122   2.769   2.648   0.662
  639HOH     H2 2123   2.708   2.778   0.711
  640HOH      O 2124   1.271   0.319   0.227
  640HOH     H1 2125   1.204   0.258   0.259
  640HOH     H2 2126   1.350   0.266   0.221
  641HOH      O 2127   1.312   0.614   3.073
  641HOH     H1 2128   1.265   0.695   3.052
  641HOH     H2 2129   1.386   0.614   3.012
  642HOH      O 2130   2.381   2.266   0.466
  642HOH     H1 2131   2.375   2.305   0.552
  642HOH     H2 2132   2.419   2.179   0.481
  643HOH      O 2133   1.879   1.834   0.096
  643HOH     H1 2134   1.843   1.763   0.149
  643HOH     H2 2135   1.888   1.797   0.009
  644HOH      O 2136   2.543   2.218   2.144
  644HOH     H1 2137   2.535   2.313   2.135
  644HOH     H2 2138   2.522   2.184   2.057
  645HOH      O 2139   2.882   0.773   1.742
  645HOH     H1 2140   2.858   0.865   1.754
  645HOH     H2 2141   2.917   0.746   1.827
  646HOH      O 2142   1.556   0.538   1.255
  646HOH     H1 2143   1.496   0.596   1.208
  646HOH     H2 2144   1.533   0.549   1.347
  647HOH      O 2145   1.865   2.319   0.499
  647HOH     H1 2146   1.907   2.375   0.435
  647HOH     H2 2147   1.771   2.335   0.487
  648HOH      O 2148   0.377   2.493   2.463
  648HOH     H1 2149   0.420   2.555   2.521
  648HOH     H2 2150   0.324   2.548   2.404
  649HOH      O 2151   2.741   2.945   3.159
  649HOH     H1 2152   2.746   2.851   3.141
  649HOH     H2 2153   2.708   2.984   3.079
  650HOH      O 2154   1.225   0.612   0.588
  650HOH     H1 2155   1.135   0.645   0.591
  650HOH     H2 2156   1.221   0.528   0.634
  651HOH      O 2157   1.582   1.387   3.585
  651HOH     H1 2158   1.513   1.320   3.591
  651HOH     H2 2159   1.569   1.441   3.663
  652HOH      O 2160   2.270   2.014   0.692
  652HOH     H1 2161   2.307   2.029   0.779
  652HOH     H2 2162   2.182   2.050   0.698
  653HOH      O 2163   2.662   1.958   3.147
  653HOH     H1 2164   2.612   1.969   3.228
  653HOH     H2 2165   2.748   1.995   3.167
  654HOH      O 2166   2.424   3.745   1.950
  654HOH     H1 2167   2.392   3.763   2.038
  654HOH     H2 2168   2.363   3.791   1.892
  655HOH      O 2169   2.160   0.987   2.317
  655HOH     H1 2170   2.255   0.975   2.321
  655HOH     H2 2171   2.146   1.079   2.337
  656HOH      O 2172   0.694   0.699   2.232
  656HOH     H1 2173   0.743   0.641   2.289
  656HOH     H2 2174   0.760   0.758   2.195
  657HOH      O 2175   1.460   3.256   1.290
  657HOH     H1 2176   1.443   3.164   1.310
  657HOH     H2 2177   1.503   3.255   1.205
  658HOH      O 2178   2.663   3.626   0.173
  658HOH     H1 2179   2.600   3.554   0.177
  658HOH     H2 2180   2.741   3.587   0.133
  659HOH      O 2181   0.101   0.803   2.348
  659HOH     H1 2182   0.075   0.894   2.332
  659HOH     H2 2183   0.085   0.759   2.264
  660HOH      O 2184   0.998   2.258   0.037
  660HOH     H1 2185   0.933   2.318   0.002
  660HOH     H2 2186   1.000   2.277   0.131
  661HOH      O 2187   1.705   0.633   0.531
  661HOH     H1 2188   1.751   0.550   0.530
  661HOH     H2 2189   1.651   0.629   0.610
  662HOH      O 2190   0.233   3.687   1.294
  662HOH     H1 2191   0.145   3.649   1.290
  662HOH     H2 2192   0.220   3.776   1.325
  663HOH      O 2193   0.817   2.107   3.397
  663HOH     H1 2194   0.736   2.060   3.419
  663HOH     H2 2195   0.845   2.146   3.480
  664HOH      O 2196   3.447   2.401   3.857
  664HOH     H1 2197   3.367   2.452   3.859
  664HOH     H2 2198   3.493   2.431   3.778
  665HOH      O 2199   2.510   1.160   2.086
  665HOH     H1 2200   2.535   1.213   2.010
  665HOH     H2 2201   2.569   1.189   2.155
  666HOH      O 2202   0.660   0.130   3.928
  666HOH     H1 2203   0.679   0.087   3.845
  666HOH     H2 2204   0.742   0.126   3.977
  667HOH      O 2205   2.783   3.548   2.949
  667HOH     H1 2206   2.694   3.567   2.977
  667HOH     H2 2207   2.790   3.587   2.862
  668HOH      O 2208   3.687   0.242   3.736
  668HOH     H1 2209   3.762   0.256   3.679
  668HOH     H2 2210   3.647   0.161   3.703
  669HOH      O 2211   3.504   1.516   1.476
  669HOH     H1 2212   3.591   1.549   1.451
  669HOH     H2 2213   3.481   1.455   1.406
  670HOH      O 2214   1.992   0.775   1.145
  670HOH     H1 2215   1.988   0.681   1.128
  670HOH     H2 2216   1.954   0.785   1.232
  671HOH      O 2217   0.595   1.447   2.022
  671HOH     H1 2218   0.634   1.526   2.059
  671HOH     H2 2219   0.501   1.458   2.037
  672HOH      O 2220   0.800   2.476   3.721
  672HOH     H1 2221   0.883   2.508   3.685
  672HOH     H2 2222   0.796   2.515   3.809
  673HOH      O 2223   0.271   0.979   0.015
  673HOH     H1 2224   0.222   0.929   0.080
  673HOH     H2 2225   0.257   0.932  -0.067
  674HOH      O 2226   3.275   0.796   0.329
  674HOH     H1 2227   3.224   0.718   0.350
  674HOH     H2 2228   3.323   0.772   0.249
  675HOH      O 2229   0.169   3.564   2.831
  675HOH     H1 2230   0.120   3.601   2.758
  675HOH     H2 2231   0.114   3.580   2.908
  676HOH      O 2232   0.292   1.713   3.479
  676HOH     H1 2233   0.298   1.667   3.395
  676HOH     H2 2234   0.272   1.804   3.455
  677HOH      O 2235   0.343   2.439   1.990
  677HOH     H1 2236   0.261   2.425   2.037
  677HOH     H2 2237   0.384   2.513   2.035
  678HOH      O 2238   0.426   1.082   0.214
  678HOH     H1 2239   0.478   1.003   0.203
  678HOH     H2 2240   0.353   1.072   0.152
  679HOH      O 2241   1.549   1.263   2.695
  679HOH     H1 2242   1.568   1.225   2.609
  679HOH     H2 2243   1.633   1.296   2.726
  680HOH      O 2244   3.281   1.470   0.761
  680HOH     H1 2245   3.341   1.399   0.738
  680HOH     H2 2246   3.200   1.426   0.787
  681HOH      O 2247   3.285   2.757   1.667
  681HOH     H1 2248   3.243   2.829   1.715
  681HOH     H2 2249   3.276   2.681   1.725
  682HOH      O 2250   3.974   1.266   2.625
  682HOH     H1 2251   4.066   1.244   2.643
  682HOH     H2 2252   3.938   1.286   2.711
  683HOH      O 2253   1.018   3.599   2.748
  683HOH     H1 2254   0.976   3.528   2.700
  683HOH     H2 2255   1.111   3.576   2.749
  684HOH      O 2256   0.943   0.304   0.516
  684HOH     H1 2257   0.936   0.223   0.466
  684HOH     H2 2258   1.035   0.308   0.542
  685HOH      O 2259   1.688   2.854   0.716
  685HOH     H1 2260   1.613   2.870   0.773
  685HOH     H2 2261   1.731   2.776   0.752
  686HOH      O 2262   0.887   1.991   2.692
  686HOH     H1 2263   0.861   1.906   2.727
  686HOH     H2 2264   0.950   1.970   2.623
  687HOH      O 2265   0.913   1.288   3.428
  687HOH     H1 2266   0.891   1.223   3.361
  687HOH     H2 2267   0.830   1.303   3.475
  688HOH      O 2268   1.900   2.410   2.953
  688HOH     H1 2269   1.933   2.354   3.023
  688HOH     H2 2270   1.974   2.419   2.892
  689HOH      O 2271   3.574   1.750   3.774
  689HOH     H1 2272   3.621   1.691   3.833
  689HOH     H2 2273   3.619   1.834   3.783
  690HOH      O 2274   2.864   2.657   3.110
  690HOH     H1 2275   2.874   2.587   3.045
  690HOH     H2 2276   2.778   2.642   3.149
  691HOH      O 2277   0.423   2.265   1.074
  691HOH     H1 2278   0.383   2.192   1.122
  691HOH     H2 2279   0.375   2.342   1.105
  692HOH      O 2280   3.885   2.990   2.098
  692HOH     H1 2281   3.920   3.022   2.015
  692HOH     H2 2282   3.961   2.950   2.142
  693HOH      O 2283   0.541   1.081   3.167
  693HOH     H1 2284   0.605   1.148   3.141
  693HOH     H2 2285   0.570   1.001   3.124
  694HOH      O 2286   0.190   1.414   4.076
  694HOH     H1 2287   0.223   1.347   4.016
  694HOH     H2 2288   0.146   1.477   4.019
  695HOH      O 2289   0.652   4.039   3.690
  695HOH     H1 2290   0.584   4.058   3.626
  695HOH     H2 2291   0.716   3.986   3.641
  696HOH      O 2292   1.456   4.008   2.631
  696HOH     H1 2293   1.415   3.922   2.634
  696HOH     H2 2294   1.398   4.065   2.681
  697HOH      O 2295   3.381   0.426   2.083
  697HOH     H1 2296   3.389   0.365   2.010
  697HOH     H2 2297   3.290   0.417   2.112
  698HOH      O 2298   1.634   1.098   3.250
  698HOH     H1 2299   1.666   1.008   3.239
  698HOH     H2 2300   1.671   1.126   3.334
  699HOH      O 2301   1.861   3.696   3.204
  699HOH     H1 2302   1.791   3.749   3.165
  699HOH     H2 2303   1.853   3.713   3.298
  700HOH      O 2304   1.881   3.002   2.123
  700HOH     H1 2305   1.961   3.009   2.176
  700HOH     H2 2306   1.912   2.993   2.033
  701HOH      O 2307   2.424   2.779   0.261
  701HOH     H1 2308   2.506   2.827   0.271
  701HOH     H2 2309   2.444   2.691   0.294
  702HOH      O 2310   1.513   1.012   1.701
  702HOH     H1 2311   1.487   1.025   1.610
  702HOH     H2 2312   1.432   0.996   1.748
  703HOH      O 2313   2.970   0.064   0.824
  703HOH     H1 2314   2.936   0.117   0.897
  703HOH     H2 2315   2.958   0.118   0.747
  704HOH      O 2316   0.719   1.729   3.085
  704HOH     H1 2317   0.795   1.785   3.100
  704HOH     H2 2318   0.711   1.678   3.166
  705HOH      O 2319   1.214   0.839   2.036
  705HOH     H1 2320   1.239   0.929   2.058
  705HOH     H2 2321   1.177   0.845   1.948
  706HOH      O 2322   1.431   1.754   1.916
  706HOH     H1 2323   1.478   1.697   1.854
  706HOH     H2 2324   1.467   1.841   1.900
  707HOH      O 2325   3.002   2.101   1.631
  707HOH     H1 2326   3.054   2.152   1.569
  707HOH     H2 2327   3.040   2.014   1.628
  708HOH      O 2328   1.513   3.958   0.815
  708HOH     H1 2329   1.566   3.984   0.740
  708HOH     H2 2330   1.575   3.919   0.876
  709HOH      O 2331   3.619   3.265   3.344
  709HOH     H1 2332   3.680   3.299   3.410
  709HOH     H2 2333   3.546   3.230   3.395
  710HOH      O 2334   2.541   1.205   2.857
  710HOH     H1 2335   2.503   1.212   2.945
  710HOH     H2 2336   2.633   1.228   2.868
  711HOH      O 2337   2.040   1.177   2.700
  711HOH     H1 2338   2.013   1.183   2.792
  711HOH     H2 2339   2.074   1.088   2.691
  712HOH      O 2340   2.979   1.761   3.307
  712HOH     H1 2341   3.031   1.757   3.227
  712HOH     H2 2342   2.952   1.852   3.314
  713HOH      O 2343   0.806   1.013   0.312
  713HOH     H1 2344   0.896   1.045   0.308
  713HOH     H2 2345   0.810   0.935   0.367
  714HOH      O 2346   1.245   0.862   2.930
  714HOH     H1 2347   1.235   0.941   2.877
  714HOH     H2 2348   1.227   0.891   3.020
  715HOH      O 2349   0.049   3.816   2.268
  715HOH     H1 2350  -0.045   3.831   2.274
  715HOH     H2 2351   0.087   3.883   2.326
  716HOH      O 2352   1.990   2.263   2.330
  716HOH     H1 2353   1.996   2.298   2.419
  716HOH     H2 2354   1.981   2.341   2.275
  717HOH      O 2355   3.121   3.376   1.945
  717HOH     H1 2356   3.127   3.435   2.019
  717HOH     H2 2357   3.032   3.388   1.912
  718HOH      O 2358   3.949   1.301   0.371
  718HOH     H1 2359   3.993   1.341   0.446
  718HOH     H2 2360   3.897   1.372   0.333
  719HOH      O 2361   1.402   3.470   1.464
  719HOH     H1 2362   1.414   3.416   1.542
  719HOH     H2 2363   1.410   3.409   1.391
  720HOH      O 2364   0.606   0.436   3.485
  720HOH     H1 2365   0.545   0.393   3.545
  720HOH     H2 2366   0.583   0.528   3.489
  721HOH      O 2367   0.018   3.931   3.928
  721HOH     H1 2368  -0.002   3.861   3.991
  721HOH     H2 2369   0.112   3.923   3.912
  722HOH      O 2370   2.296   3.555   1.619
  722HOH     H1 2371   2.367   3.602   1.576
  722HOH     H2 2372   2.292   3.470   1.573
  723HOH      O 2373   3.178   2.431   0.018
  723HOH     H1 2374   3.109   2.385   0.065
  723HOH     H2 2375   3.133   2.499  -0.032
  724HOH      O 2376   1.836   0.837   1.378
  724HOH     H1 2377   1.846   0.913   1.436
  724HOH     H2 2378   1.743   0.834   1.358
  725HOH      O 2379   1.655   3.724   1.735
  725HOH     H1 2380   1.591   3.783   1.694
  725HOH     H2 2381   1.735   3.736   1.684
  726HOH      O 2382   3.545   1.560   2.234
  726HOH     H1 2383   3.522   1.606   2.153
  726HOH     H2 2384   3.640   1.568   2.240
  727HOH      O 2385   1.294   2.205   4.046
  727HOH     H1 2386   1.297   2.236   3.955
  727HOH     H2 2387   1.218   2.249   4.084
  728HOH      O 2388   2.113   0.541   3.727
  728HOH     H1 2389   2.081   0.631   3.730
  728HOH     H2 2390   2.137   0.526   3.636
  729HOH      O 2391   3.797   1.701   2.221
  729HOH     H1 2392   3.806   1.721   2.128
  729HOH     H2 2393   3.763   1.781   2.261
  730HOH      O 2394   1.366   1.089   2.402
  730HOH     H1 2395   1.454   1.127   2.404
  730HOH     H2 2396   1.377   1.001   2.438
  731HOH      O 2397   1.190   0.713   0.165
  731HOH     H1 2398   1.174   0.619   0.168
  731HOH     H2 2399   1.162   0.740   0.078
  732HOH      O 2400   2.339   1.180   1.152
  732HOH     H1 2401   2.418   1.193   1.203
  732HOH     H2 2402   2.283   1.125   1.208
  733HOH      O 2403   2.257   1.113   2.025
  733HOH     H1 2404   2.247   1.020   2.009
  733HOH     H2 2405   2.348   1.123   2.053
  734HOH      O 2406   0.018   0.724   2.082
  734HOH     H1 2407  -0.021   0.664   2.018
  734HOH     H2 2408   0.025   0.807   2.036
  735HOH      O 2409   1.059   1.341   2.600
  735HOH     H1 2410   1.150   1.340   2.572
  735HOH     H2 2411   1.039   1.434   2.613
  736HOH      O 2412   3.946   0.507   3.967
  736HOH     H1 2413   3.874   0.448   3.946
  736HOH     H2 2414   4.016   0.449   3.999
  737HOH      O 2415   3.320   0.668   1.413
  737HOH     H1 2416   3.250   0.655   1.478
  737HOH     H2 2417   3.313   0.761   1.390
  738HOH      O 2418   2.547   3.601   3.064
  738HOH     H1 2419   2.551   3.647   3.148
  738HOH     H2 2420   2.481   3.648   3.013
  739HOH      O 2421   1.197   3.936   1.347
  739HOH     H1 2422   1.277   3.936   1.399
  739HOH     H2 2423   1.227   3.940   1.256
  740HOH      O 2424   0.663   0.215   1.040
  740HOH     H1 2425   0.617   0.278   0.985
  740HOH     H2 2426   0.596   0.151   1.065
  741HOH      O 2427   2.182   1.630   3.691
  741HOH     H1 2428   2.205   1.537   3.683
  741HOH     H2 2429   2.099   1.638   3.646
  742HOH      O 2430   1.789   1.964   1.641
  742HOH     H1 2431   1.840   1.884   1.652
  742HOH     H2 2432   1.702   1.935   1.616
  743HOH      O 2433   3.182   2.872   1.911
  743HOH     H1 2434   3.105   2.929   1.918
  743HOH     H2 2435   3.154   2.789   1.951
  744HOH      O 2436   1.852   0.856   0.510
  744HOH     H1 2437   1.767   0.814   0.496
  744HOH     H2 2438   1.887   0.814   0.589
  745HOH      O 2439   2.736   1.453   2.200
  745HOH     H1 2440   2.779   1.469   2.115
  745HOH     H2 2441   2.802   1.408   2.252
  746HOH      O 2442   0.604   0.087   0.538
  746HOH     H1 2443   0.665   0.060   0.606
  746HOH     H2 2444   0.565   0.168   0.572
  747HOH      O 2445   1.199   1.607   1.672
  747HOH     H1 2446   1.293   1.616   1.689
  747HOH     H2 2447   1.158   1.673   1.728
  748HOH      O 2448   0.505   2.871   2.325
  748HOH     H1 2449   0.499   2.828   2.240
  748HOH     H2 2450   0.421   2.853   2.367
  749HOH      O 2451   1.363   2.845   3.761
  749HOH     H1 2452   1.407   2.802   3.835
  749HOH     H2 2453   1.414   2.925   3.746
  750HOH      O 2454   0.060   0.253   1.851
  750HOH     H1 2455  -0.012   0.245   1.788
  750HOH     H2 2456   0.025   0.215   1.932
  751HOH      O 2457   2.583   1.682   2.519
  751HOH     H1 2458   2.504   1.629   2.510
  751HOH     H2 2459   2.559   1.752   2.579
  752HOH      O 2460   0.727   1.767   0.429
  752HOH     H1 2461   0.770   1.834   0.376
  752HOH     H2 2462   0.799   1.723   0.474
  753HOH      O 2463   3.857   3.745   1.591
  753HOH     H1 2464   3.934   3.692   1.608
  753HOH     H2 2465   3.845   3.797   1.670
  754HOH      O 2466   1.769   2.943   3.335
  754HOH     H1 2467   1.679   2.913   3.347
  754HOH     H2 2468   1.823   2.868   3.361
  755HOH      O 2469   1.340   0.713   2.318
  755HOH     H1 2470   1.427   0.748   2.337
  755HOH     H2 2471   1.290   0.731   2.397
  756HOH      O 2472   0.142   0.457   1.532
  756HOH     H1 2473   0.153   0.362   1.541
  756HOH     H2 2474   0.230   0.489   1.511
  757HOH      O 2475   1.909   3.806   1.611
  757HOH     H1 2476   1.921   3.792   1.517
  757HOH     H2 2477   1.930   3.898   1.625
  758HOH      O 2478   2.274   4.010   0.637
  758HOH     H1 2479   2.323   3.935   0.669
  758HOH     H2 2480   2.267   3.996   0.542
  759HOH      O 2481   3.833   0.450   2.245
  759HOH     H1 2482   3.765   0.518   2.242
  759HOH     H2 2483   3.898   0.478   2.180
  760HOH      O 2484   2.497   1.539   1.263
  760HOH     H1 2485   2.442   1.519   1.188
  760HOH     H2 2486   2.439   1.533   1.338
  761HOH      O 2487   1.992   1.562   3.020
  761HOH     H1 2488   2.054   1.490   3.032
  761HOH     H2 2489   1.946   1.567   3.104
  762HOH      O 2490   1.993   1.540   2.463
  762HOH     H1 2491   2.042   1.621   2.473
  762HOH     H2 2492   2.053   1.472   2.492
  763HOH      O 2493   3.076   1.399   3.990
  763HOH     H1 2494   3.115   1.318   4.023
  763HOH     H2 2495   2.982   1.383   3.992
  764HOH      O 2496   0.147   1.027   1.966
  764HOH     H1 2497   0.165   1.120   1.980
  764HOH     H2 2498   0.232   0.989   1.946
  765HOH      O 2499   2.683   0.817   1.476
  765HOH     H1 2500   2.592   0.816   1.449
  765HOH     H2 2501   2.698   0.729   1.512
  766HOH      O 2502   3.451   2.018   2.207
  766HOH     H1 2503   3.523   2.075   2.179
  766HOH     H2 2504   3.391   2.017   2.132
  767HOH      O 2505   3.367   0.682   3.369
  767HOH     H1 2506   3.328   0.639   3.445
  767HOH     H2 2507   3.440   0.732   3.406
  768HOH      O 2508   3.601   2.469   3.643
  768HOH     H1 2509   3.683   2.441   3.603
  768HOH     H2 2510   3.536   2.461   3.573
  769HOH      O 2511   3.988   2.001   3.661
  769HOH     H1 2512   4.057   1.967   3.717
  769HOH     H2 2513   4.016   2.089   3.638
  770HOH      O 2514   3.485   0.414   3.353
  770HOH     H1 2515   3.497   0.404   3.447
  770HOH     H2 2516   3.516   0.502   3.333
  771HOH      O 2517   1.363   0.031   3.026
  771HOH     H1 2518   1.293   0.078   3.071
  771HOH     H2 2519   1.416  -0.007   3.096
  772HOH      O 2520   3.797   1.275   2.911
  772HOH     H1 2521   3.848   1.216   2.966
  772HOH     H2 2522   3.832   1.362   2.930
  773HOH      O 2523   0.644   1.813   2.739
  773HOH     H1 2524   0.550   1.803   2.757
  773HOH     H2 2525   0.650   1.889   2.682
  774HOH      O 2526   1.794   2.744   2.912
  774HOH     H1 2527   1.716   2.733   2.967
  774HOH     H2 2528   1.823   2.655   2.894
  775HOH      O 2529   0.261   1.999   1.216
  775HOH     H1 2530   0.225   1.917   1.250
  775HOH     H2 2531   0.334   1.972   1.161
  776HOH      O 2532   1.490   1.020   0.252
  776HOH     H1 2533   1.518   1.112   0.250
  776HOH     H2 2534   1.569   0.973   0.280
  777HOH      O 2535   1.067   0.560   2.140
  777HOH     H1 2536   1.047   0.653   2.149
  777HOH     H2 2537   1.019   0.518   2.211
  778HOH      O 2538   1.876   3.999   1.174
  778HOH     H1 2539   1.914   3.941   1.240
  778HOH     H2 2540   1.951   4.050   1.142
  779HOH      O 2541   0.193   0.729   2.987
  779HOH     H1 2542   0.211   0.822   2.976
  779HOH     H2 2543   0.099   0.720   2.976
  780HOH      O 2544   2.800   0.793   2.455
  780HOH     H1 2545   2.852   0.800   2.535
  780HOH     H2 2546   2.807   0.879   2.414
  781HOH      O 2547   1.967   2.566   0.391
  781HOH     H1 2548   2.029   2.624   0.434
  781HOH     H2 2549   1.992   2.570   0.298
  782HOH      O 2550   3.232   0.505   0.696
  782HOH     H1 2551   3.200   0.415   0.691
  782HOH     H2 2552   3.218   0.541   0.609
  783HOH      O 2553   1.431   1.274   2.052
  783HOH     H1 2554   1.347   1.265   2.008
  783HOH     H2 2555   1.433   1.201   2.114
  784HOH      O 2556   0.784   3.527   2.111
  784HOH     H1 2557   0.785   3.596   2.044
  784HOH     H2 2558   0.875   3.497   2.114
  785HOH      O 2559   2.194   0.819   0.077
  785HOH     H1 2560   2.203   0.914   0.081
  785HOH     H2 2561   2.158   0.795   0.163
  786HOH      O 2562   3.281   2.618   2.485
  786HOH     H1 2563   3.261   2.671   2.562
  786HOH     H2 2564   3.355   2.563   2.512
  787HOH      O 2565   1.473   0.588   0.800
  787HOH     H1 2566   1.397   0.624   0.845
  787HOH     H2 2567   1.484   0.501   0.838
  788HOH      O 2568   2.217   0.929   0.449
  788HOH     H1 2569   2.215   0.967   0.537
  788HOH     H2 2570   2.127   0.900   0.433
  789HOH      O 2571   1.194   3.115   3.629
  789HOH     H1 2572   1.283   3.147   3.615
  789HOH     H2 2573   1.138   3.184   3.594
  790HOH      O 2574   3.159   3.935   2.601
  790HOH     H1 2575   3.094   3.901   2.663
  790HOH     H2 2576   3.218   3.988   2.655
  791HOH      O 2577   1.019   3.745   3.453
  791HOH     H1 2578   1.045   3.753   3.361
  791HOH     H2 2579   1.006   3.651   3.466
  792HOH      O 2580   0.377   2.055   2.884
  792HOH     H1 2581   0.363   2.038   2.978
  792HOH     H2 2582   0.325   1.988   2.840
  793HOH      O 2583   3.134   2.561   0.692
  793HOH     H1 2584   3.151   2.650   0.724
  793HOH     H2 2585   3.196   2.507   0.740
  794HOH      O 2586   2.855   3.268   2.899
  794HOH     H1 2587   2.841   3.361   2.915
  794HOH     H2 2588   2.887   3.263   2.809
  795HOH      O 2589   0.678   2.360   3.996
  795HOH     H1 2590   0.598   2.412   3.990
  795HOH     H2 2591   0.746   2.424   4.019
  796HOH      O 2592   1.794   0.506   3.554
  796HOH     H1 2593   1.725   0.475   3.495
  796HOH     H2 2594   1.862   0.539   3.495
  797HOH      O 2595   3.285   0.176   2.686
  797HOH     H1 2596   3.266   0.238   2.756
  797HOH     H2 2597   3.358   0.215   2.639
  798HOH      O 2598   1.762   2.082   0.028
  798HOH     H1 2599   1.818   2.006   0.041
  798HOH     H2 2600   1.812   2.138  -0.033
  799HOH      O 2601   0.649   2.489   1.718
  799HOH     H1 2602   0.578   2.432   1.747
  799HOH     H2 2603   0.710   2.492   1.792
  800HOH      O 2604   2.328   3.905   3.723
  800HOH     H1 2605   2.301   3.818   3.755
  800HOH     H2 2606   2.273   3.966   3.771
  801HOH      O 2607   3.645   0.337   1.553
  801HOH     H1 2608   3.556   0.373   1.555
  801HOH     H2 2609   3.634   0.248   1.522
  802HOH      O 2610   3.054   0.151   3.684
  802HOH     H1 2611   3.026   0.216   3.620
  802HOH     H2 2612   3.139   0.183   3.715
  803HOH      O 2613   0.113   3.466   3.961
  803HOH     H1 2614   0.054   3.470   4.037
  803HOH     H2 2615   0.163   3.548   3.966
  804HOH      O 2616   1.354   2.139   3.550
  804HOH     H1 2617   1.432   2.152   3.496
  804HOH     H2 2618   1.354   2.045   3.569
  805HOH      O 2619   3.910   1.028   1.859
  805HOH     H1 2620   3.996   1.050   1.896
  805HOH     H2 2621   3.875   1.112   1.829
  806HOH      O 2622   2.789   3.258   0.237
  806HOH     H1 2623   2.789   3.236   0.144
  806HOH     H2 2624   2.828   3.345   0.241
  807HOH      O 2625   0.865   1.512   1.870
  807HOH     H1 2626   0.945   1.491   1.918
  807HOH     H2 2627   0.826   1.585   1.919
  808HOH      O 2628   3.483   2.741   3.765
  808HOH     H1 2629   3.460   2.824   3.722
  808HOH     H2 2630   3.507   2.683   3.692
  809HOH      O 2631   3.137   3.586   2.707
  809HOH     H1 2632   3.123   3.512   2.647
  809HOH     H2 2633   3.116   3.551   2.794
  810HOH      O 2634   3.094   0.967   0.616
  810HOH     H1 2635   3.069   0.988   0.706
  810HOH     H2 2636   3.065   0.876   0.604
  811HOH      O 2637   0.387   3.642   2.202
  811HOH     H1 2638   0.390   3.727   2.247
  811HOH     H2 2639   0.420   3.580   2.266
  812HOH      O 2640   2.746   0.139   0.136
  812HOH     H1 2641   2.735   0.107   0.225
  812HOH     H2 2642   2.797   0.071   0.092
  813HOH      O 2643   2.533   1.429   0.550
  813HOH     H1 2644   2.534   1.446   0.455
  813HOH     H2 2645   2.521   1.515   0.590
  814HOH      O 2646   3.332   0.425   0.043
  814HOH     H1 2647   3.422   0.396   0.060
  814HOH     H2 2648   3.286   0.410   0.126
  815HOH      O 2649   3.585   0.805   3.508
  815HOH     H1 2650   3.571   0.747   3.583
  815HOH     H2 2651   3.588   0.893   3.547
  816HOH      O 2652   1.431   0.828   1.077
  816HOH     H1 2653   1.359   0.780   1.037
  816HOH     H2 2654   1.510   0.794   1.034
  817HOH      O 2655   0.508   3.549   2.703
  817HOH     H1 2656   0.442   3.494   2.746
  817HOH     H2 2657   0.587   3.536   2.755
  818HOH      O 2658   2.567   1.104   2.612
  818HOH     H1 2659   2.570   1.145   2.698
  818HOH     H2 2660   2.594   1.014   2.627
  819HOH      O 2661   0.470   2.033   2.638
  819HOH     H1 2662   0.469   2.046   2.733
  819HOH     H2 2663   0.413   2.101   2.604
  820HOH      O 2664   2.387   2.653   1.066
  820HOH     H1 2665   2.366   2.746   1.067
  820HOH     H2 2666   2.473   2.648   1.026
  821HOH      O 2667   1.855   3.984   3.508
  821HOH     H1 2668   1.829   4.038   3.434
  821HOH     H2 2669   1.921   4.036   3.554
  822HOH      O 2670   0.818   1.992   2.287
  822HOH     H1 2671   0.738   1.965   2.334
  822HOH     H2 2672   0.794   2.071   2.241
  823HOH      O 2673   2.885   0.211   1.353
  823HOH     H1 2674   2.923   0.137   1.305
  823HOH     H2 2675   2.955   0.276   1.356
  824HOH      O 2676   0.594   3.301   1.580
  824HOH     H1 2677   0.537   3.357   1.527
  824HOH     H2 2678   0.598   3.346   1.665
  825HOH      O 2679   3.185   3.129   2.387
  825HOH     H1 2680   3.105   3.084   2.415
  825HOH     H2 2681   3.253   3.095   2.444
  826HOH      O 2682   3.447   1.704   0.849
  826HOH     H1 2683   3.379   1.642   0.823
  826HOH     H2 2684   3.424   1.727   0.940
  827HOH      O 2685   0.601   1.169   2.586
  827HOH     H1 2686   0.590   1.075   2.569
  827HOH     H2 2687   0.525   1.210   2.545
  828HOH      O 2688   2.719   2.644   0.421
  828HOH     H1 2689   2.791   2.585   0.445
  828HOH     H2 2690   2.640   2.591   0.430
  829HOH      O 2691   0.154   0.167   1.597
  829HOH     H1 2692   0.180   0.152   1.688
  829HOH     H2 2693   0.122   0.082   1.568
  830HOH      O 2694   2.978   2.618   1.691
  830HOH     H1 2695   2.894   2.633   1.648
  830HOH     H2 2696   3.004   2.705   1.723
  831HOH      O 2697   1.088   0.085   0.288
  831HOH     H1 2698   0.999   0.060   0.314
  831HOH     H2 2699   1.145   0.023   0.334
  832HOH      O 2700   1.293   0.853   3.648
  832HOH     H1 2701   1.257   0.940   3.662
  832HOH     H2 2702   1.242   0.797   3.708
  833HOH      O 2703   2.065   2.965   3.465
  833HOH     H1 2704   2.058   2.888   3.409
  833HOH     H2 2705   2.138   2.946   3.524
  834HOH      O 2706   0.837   4.028   3.036
  834HOH     H1 2707   0.765   3.966   3.023
  834HOH     H2 2708   0.809   4.107   2.990
  835HOH      O 2709   1.502   3.615   3.296
  835HOH     H1 2710   1.587   3.573   3.307
  835HOH     H2 2711   1.440   3.542   3.290
  836HOH      O 2712   3.598   3.738   2.571
  836HOH     H1 2713   3.582   3.738   2.477
  836HOH     H2 2714   3.513   3.755   2.611
  837HOH      O 2715   2.891   2.911   1.890
  837HOH     H1 2716   2.888   2.934   1.797
  837HOH     H2 2717   2.833   2.836   1.898
  838HOH      O 2718   3.098   2.690  -0.016
  838HOH     H1 2719   3.034   2.760  -0.004
  838HOH     H2 2720   3.139   2.681   0.071
  839HOH      O 2721   0.360   3.549   3.598
  839HOH     H1 2722   0.334   3.641   3.590
  839HOH     H2 2723   0.366   3.534   3.692
  840HOH      O 2724   2.738   3.277   3.180
  840HOH     H1 2725   2.714   3.335   3.107
  840HOH     H2 2726   2.807   3.325   3.227
  841HOH      O 2727   2.459   0.954   2.273
  841HOH     H1 2728   2.519   0.885   2.243
  841HOH     H2 2729   2.475   1.027   2.213
  842HOH      O 2730   1.839   1.088   2.024
  842HOH     H1 2731   1.778   1.154   1.992
  842HOH     H2 2732   1.895   1.135   2.086
  843HOH      O 2733   3.716   2.193   1.313
  843HOH     H1 2734   3.769   2.267   1.343
  843HOH     H2 2735   3.637   2.195   1.367
  844HOH      O 2736   3.365   0.901   1.643
  844HOH     H1 2737   3.412   0.931   1.721
  844HOH     H2 2738   3.367   0.805   1.650
  845HOH      O 2739   2.225   0.328   1.145
  845HOH     H1 2740   2.279   0.257   1.181
  845HOH     H2 2741   2.244   0.403   1.201
  846HOH      O 2742   3.580   0.278   3.162
  846HOH     H1 2743   3.557   0.333   3.237
  846HOH     H2 2744   3.676   0.286   3.155
  847HOH      O 2745   0.909   3.157   1.137
  847HOH     H1 2746   0.847   3.191   1.202
  847HOH     H2 2747   0.877   3.070   1.116
  848HOH      O 2748   2.416   2.812   2.483
  848HOH     H1 2749   2.348   2.861   2.530
  848HOH     H2 2750   2.396   2.720   2.501
  849HOH      O 2751   1.766   2.719   1.927
  849HOH     H1 2752   1.804   2.740   1.841
  849HOH     H2 2753   1.758   2.624   1.927
  850HOH      O 2754   2.172   0.180   0.803
  850HOH     H1 2755   2.214   0.265   0.792
  850HOH     H2 2756   2.226   0.120   0.752
  851HOH      O 2757   1.396   0.546   0.344
  851HOH     H1 2758   1.353   0.559   0.429
  851HOH     H2 2759   1.349   0.473   0.304
  852HOH      O 2760   1.283   1.733   2.743
  852HOH     H1 2761   1.299   1.682   2.823
  852HOH     H2 2762   1.370   1.753   2.710
  853HOH      O 2763   1.723   0.873   1.816
  853HOH     H1 2764   1.659   0.921   1.764
  853HOH     H2 2765   1.699   0.891   1.907
  854HOH      O 2766   0.255   2.787   2.392
  854HOH     H1 2767   0.236   2.764   2.301
  854HOH     H2 2768   0.184   2.746   2.441
  855HOH      O 2769   2.596   0.210   0.934
  855HOH     H1 2770   2.653   0.183   1.006
  855HOH     H2 2771   2.560   0.128   0.900
  856HOH      O 2772   1.480   2.192   2.199
  856HOH     H1 2773   1.451   2.146   2.278
  856HOH     H2 2774   1.412   2.258   2.183
  857HOH      O 2775   1.864   0.201   1.988
  857HOH     H1 2776   1.825   0.214   1.902
  857HOH     H2 2777   1.836   0.278   2.039
  858HOH      O 2778   1.337   0.017   3.645
  858HOH     H1 2779   1.431   0.017   3.629
  858HOH     H2 2780   1.303   0.088   3.591
  859HOH      O 2781   2.207   3.302   3.861
  859HOH     H1 2782   2.210   3.386   3.907
  859HOH     H2 2783   2.282   3.304   3.802
  860HOH      O 2784   2.653   0.625   1.961
  860HOH     H1 2785   2.733   0.664   1.924
  860HOH     H2 2786   2.620   0.569   1.890
  861HOH      O 2787   0.281   1.472   0.294
  861HOH     H1 2788   0.361   1.525   0.296
  861HOH     H2 2789   0.244   1.489   0.208
  862HOH      O 2790   1.964   3.008   0.303
  862HOH     H1 2791   2.040   2.960   0.267
  862HOH     H2 2792   1.994   3.038   0.388
  863HOH      O 2793   3.576   0.870   2.099
  863HOH     H1 2794   3.588   0.777   2.117
  863HOH     H2 2795   3.631   0.915   2.164
  864HOH      O 2796   2.259   1.337   3.695
  864HOH     H1 2797   2.222   1.256   3.731
  864HOH     H2 2798   2.321   1.367   3.762
  865HOH      O 2799   3.688   3.384   2.279
  865HOH     H1 2800   3.707   3.454   2.341
  865HOH     H2 2801   3.637   3.320   2.329
  866HOH      O 2802   1.719   1.819   3.730
  866HOH     H1 2803   1.798   1.802   3.780
  866HOH     H2 2804   1.697   1.911   3.749
  867HOH      O 2805   2.826   1.844   2.052
  867HOH     H1 2806   2.820   1.814   2.143
  867HOH     H2 2807   2.790   1.773   2.000
  868HOH      O 2808   2.016   0.828   2.479
  868HOH     H1 2809   2.064   0.749   2.507
  868HOH     H2 2810   2.072   0.867   2.411
  869HOH      O 2811   2.155   2.477   3.422
  869HOH     H1 2812   2.185   2.567   3.412
  869HOH     H2 2813   2.136   2.467   3.515
  870HOH      O 2814   1.545   0.241   3.641
  870HOH     H1 2815   1.475   0.305   3.632
  870HOH     H2 2816   1.577   0.227   3.552
  871HOH      O 2817   0.510   3.222   1.192
  871HOH     H1 2818   0.468   3.144   1.227
  871HOH     H2 2819   0.448   3.293   1.210
  872HOH      O 2820   3.641   1.065   3.644
  872HOH     H1 2821   3.607   1.121   3.574
  872HOH     H2 2822   3.591   1.091   3.721
  873HOH      O 2823   3.602   0.436   0.107
  873HOH     H1 2824   3.671   0.388   0.059
  873HOH     H2 2825   3.636   0.443   0.196
  874HOH      O 2826   0.826   4.018   3.449
  874HOH     H1 2827   0.879   4.043   3.373
  874HOH     H2 2828   0.889   4.012   3.521
  875HOH      O 2829   3.843   2.431   1.459
  875HOH     H1 2830   3.837   2.518   1.419
  875HOH     H2 2831   3.933   2.426   1.491
  876HOH      O 2832   3.448   0.983   0.219
  876HOH     H1 2833   3.377   0.923   0.241
  876HOH     H2 2834   3.502   0.987   0.298
  877HOH      O 2835   1.100   2.324   3.579
  877HOH     H1 2836   1.085   2.405   3.529
  877HOH     H2 2837   1.019   2.275   3.568
  878HOH      O 2838   2.750   3.260   2.241
  878HOH     H1 2839   2.805   3.203   2.187
  878HOH     H2 2840   2.811   3.303   2.301
  879HOH      O 2841   2.393   3.917   3.255
  879HOH     H1 2842   2.476   3.932   3.300
  879HOH     H2 2843   2.348   3.852   3.310
  880HOH      O 2844   0.310   0.094   3.704
  880HOH     H1 2845   0.319  -0.001   3.712
  880HOH     H2 2846   0.318   0.126   3.794
  881HOH      O 2847   2.400   1.650   0.731
  881HOH     H1 2848   2.401   1.716   0.800
  881HOH     H2 2849   2.381   1.568   0.777
  882HOH      O 2850   3.187   3.940   1.823
  882HOH     H1 2851   3.262   3.980   1.780
  882HOH     H2 2852   3.149   3.882   1.756
  883HOH      O 2853   0.872   0.709   1.313
  883HOH     H1 2854   0.883   0.615   1.329
  883HOH     H2 2855   0.883   0.749   1.399
  884HOH      O 2856   3.306   3.710   3.050
  884HOH     H1 2857   3.255   3.655   2.990
  884HOH     H2 2858   3.248   3.724   3.125
  885HOH      O 2859   0.036   2.672   2.512
  885HOH     H1 2860   0.008   2.602   2.451
  885HOH     H2 2861  -0.039   2.685   2.569
  886HOH      O 2862   1.871   1.530   3.254
  886HOH     H1 2863   1.888   1.459   3.316
  886HOH     H2 2864   1.801   1.581   3.294
  887HOH      O 2865   0.587   1.915   2.390
  887HOH     H1 2866   0.552   1.960   2.467
  887HOH     H2 2867   0.564   1.823   2.402
  888HOH      O 2868   1.900   4.053   2.219
  888HOH     H1 2869   1.903   3.957   2.218
  888HOH     H2 2870   1.972   4.080   2.162
  889HOH      O 2871   2.657   1.463   0.992
  889HOH     H1 2872   2.689   1.423   1.073
  889HOH     H2 2873   2.688   1.553   0.996
  890HOH      O 2874   0.059   0.535   0.495
  890HOH     H1 2875   0.076   0.442   0.511
  890HOH     H2 2876  -0.036   0.542   0.490
  891HOH      O 2877   3.298   0.201   0.310
  891HOH     H1 2878   3.219   0.186   0.361
  891HOH     H2 2879   3.326   0.289   0.334
  892HOH      O 2880   2.931   2.192   3.731
  892HOH     H1 2881   2.898   2.105   3.749
  892HOH     H2 2882   3.007   2.202   3.788
  893HOH      O 2883   1.476   3.720   1.474
  893HOH     H1 2884   1.554   3.700   1.423
  893HOH     H2 2885   1.447   3.635   1.507
  894HOH      O 2886   2.722   0.657   2.887
  894HOH     H1 2887   2.654   0.590   2.887
  894HOH     H2 2888   2.795   0.617   2.934
  895HOH      O 2889   3.363   3.770   2.685
  895HOH     H1 2890   3.318   3.706   2.741
  895HOH     H2 2891   3.303   3.786   2.613
  896HOH      O 2892   2.591   2.385   0.910
  896HOH     H1 2893   2.608   2.456   0.973
  896HOH     H2 2894   2.656   2.399   0.841
  897HOH      O 2895   3.427   0.987   3.979
  897HOH     H1 2896   3.497   1.049   3.958
  897HOH     H2 2897   3.433   0.975   4.073
  898HOH      O 2898   0.022   2.477   3.217
  898HOH     H1 2899   0.010   2.524   3.299
  898HOH     H2 2900   0.068   2.539   3.160
  899HOH      O 2901   3.149   2.410   1.648
  899HOH     H1 2902   3.082   2.477   1.658
  899HOH     H2 2903   3.172   2.385   1.737
  900HOH      O 2904   2.237   0.710   1.504
  900HOH     H1 2905   2.278   0.732   1.588
  900HOH     H2 2906   2.146   0.691   1.525
  901HOH      O 2907   0.265   3.934   0.060
  901HOH     H1 2908   0.353   3.927   0.023
  901HOH     H2 2909   0.263   4.020   0.101
  902HOH      O 2910   2.109   0.358   1.557
  902HOH     H1 2911   2.114   0.368   1.652
  902HOH     H2 2912   2.059   0.435   1.528
  903HOH      O 2913   0.550   0.985   2.032
  903HOH     H1 2914   0.591   0.930   1.965
  903HOH     H2 2915   0.481   1.032   1.985
  904HOH      O 2916   0.672   3.957   2.600
  904HOH     H1 2917   0.751   3.971   2.548
  904HOH     H2 2918   0.630   3.880   2.560
  905HOH      O 2919   0.893   0.306   0.813
  905HOH     H1 2920   0.870   0.280   0.724
  905HOH     H2 2921   0.810   0.333   0.853
  906HOH      O 2922   3.420   1.261   1.643
  906HOH     H1 2923   3.491   1.223   1.593
  906HOH     H2 2924   3.448   1.351   1.660
  907HOH      O 2925   2.883   2.484   0.575
  907HOH     H1 2926   2.882   2.407   0.632
  907HOH     H2 2927   2.949   2.541   0.613
  908HOH      O 2928   3.164   3.326   3.065
  908HOH     H1 2929   3.250   3.286   3.054
  908HOH     H2 2930   3.106   3.252   3.084
  909HOH      O 2931   0.945   1.827   1.201
  909HOH     H1 2932   0.917   1.778   1.278
  909HOH     H2 2933   1.000   1.767   1.152
  910HOH      O 2934   2.834   3.851   3.501
  910HOH     H1 2935   2.739   3.854   3.503
  910HOH     H2 2936   2.856   3.769   3.545
  911HOH      O 2937   2.389   0.127   1.261
  911HOH     H1 2938   2.421   0.040   1.285
  911HOH     H2 2939   2.467   0.183   1.266
  912HOH      O 2940   0.104   2.210   1.283
  912HOH     H1 2941   0.186   2.165   1.263
  912HOH     H2 2942   0.036   2.145   1.262
  913HOH      O 2943  -0.012   2.052   1.998
  913HOH     H1 2944  -0.033   1.974   1.947
  913HOH     H2 2945   0.046   2.021   2.067
  914HOH      O 2946   0.943   4.023   2.513
  914HOH     H1 2947   0.927   4.079   2.437
  914HOH     H2 2948   0.963   3.937   2.476
  915HOH      O 2949   1.100   0.721   1.532
  915HOH     H1 2950   1.073   0.646   1.586
  915HOH     H2 2951   1.139   0.681   1.455
  916HOH      O 2952   3.052   0.137   1.700
  916HOH     H1 2953   2.987   0.079   1.662
  916HOH     H2 2954   3.103   0.081   1.758
  917HOH      O 2955   3.398   1.111   2.365
  917HOH     H1 2956   3.406   1.140   2.456
  917HOH     H2 2957   3.486   1.121   2.329
  918HOH      O 2958   0.736   2.937   3.226
  918HOH     H1 2959   0.646   2.918   3.255
  918HOH     H2 2960   0.791   2.915   3.301
  919HOH      O 2961   3.755   3.650   2.124
  919HOH     H1 2962   3.701   3.729   2.125
  919HOH     H2 2963   3.807   3.656   2.204
  920HOH      O 2964   2.356   3.168   3.518
  920HOH     H1 2965   2.317   3.147   3.433
  920HOH     H2 2966   2.322   3.101   3.577
  921HOH      O 2967   3.261   1.783   2.100
  921HOH     H1 2968   3.192   1.762   2.163
  921HOH     H2 2969   3.214   1.816   2.023
  922HOH      O 2970   3.067   2.177   0.208
  922HOH     H1 2971   3.000   2.232   0.166
  922HOH     H2 2972   3.061   2.199   0.300
  923HOH      O 2973   0.952   0.533   1.691
  923HOH     H1 2974   0.877   0.551   1.748
  923HOH     H2 2975   0.924   0.460   1.636
  924HOH      O 2976   3.893   0.603   3.134
  924HOH     H1 2977   3.852   0.666   3.194
  924HOH     H2 2978   3.933   0.657   3.066
  925HOH      O 2979   3.440   1.397   3.195
  925HOH     H1 2980   3.462   1.305   3.183
  925HOH     H2 2981   3.374   1.397   3.265
  926HOH      O 2982   2.583   2.355   3.411
  926HOH     H1 2983   2.545   2.371   3.497
  926HOH     H2 2984   2.509   2.360   3.351
  927HOH      O 2985   1.873   1.106   0.265
  927HOH     H1 2986   1.876   1.136   0.355
  927HOH     H2 2987   1.957   1.134   0.228
  928HOH      O 2988   1.609   1.780   0.842
  928HOH     H1 2989   1.573   1.738   0.920
  928HOH     H2 2990   1.538   1.835   0.809
  929HOH      O 2991   1.378   3.321   0.071
  929HOH     H1 2992   1.433   3.374   0.129
  929HOH     H2 2993   1.337   3.257   0.130
  930HOH      O 2994   1.773   2.609   0.985
  930HOH     H1 2995   1.823   2.555   0.924
  930HOH     H2 2996   1.690   2.562   0.996
  931HOH      O 2997   3.239   1.620   3.916
  931HOH     H1 2998   3.161   1.566   3.929
  931HOH     H2 2999   3.211   1.688   3.855
  932HOH      O 3000   1.240   3.917   1.073
  932HOH     H1 3001   1.317   3.888   1.025
  932HOH     H2 3002   1.170   3.860   1.042
  933HOH      O 3003   3.486   0.311   1.835
  933HOH     H1 3004   3.474   0.219   1.809
  933HOH     H2 3005   3.473   0.360   1.754
  934HOH      O 3006   0.699   0.981   1.377
  934HOH     H1 3007   0.635   0.910   1.372
  934HOH     H2 3008   0.762   0.952   1.443
  935HOH      O 3009   2.761   2.260   1.441
  935HOH     H1 3010   2.800   2.239   1.526
  935HOH     H2 3011   2.803   2.342   1.414
  936HOH      O 3012   0.763   3.679   2.779
  936HOH     H1 3013   0.857   3.675   2.760
  936HOH     H2 3014   0.737   3.765   2.747
  937HOH      O 3015   2.794   2.771   2.543
  937HOH     H1 3016   2.758   2.739   2.461
  937HOH     H2 3017   2.819   2.692   2.592
  938HOH      O 3018   0.251   1.420   0.730
  938HOH     H1 3019   0.287   1.333   0.747
  938HOH     H2 3020   0.195   1.408   0.654
  939HOH      O 3021   3.202   2.736   2.711
  939HOH     H1 3022   3.138   2.800   2.743
  939HOH     H2 3023   3.286   2.769   2.743
  940HOH      O 3024   3.710   0.879   0.694
  940HOH     H1 3025   3.790   0.890   0.642
  940HOH     H2 3026   3.710   0.787   0.720
  941HOH      O 3027   1.453   0.104   0.160
  941HOH     H1 3028   1.409   0.095   0.075
  941HOH     H2 3029   1.423   0.028   0.210
  942HOH      O 3030   4.012   0.707   3.790
  942HOH     H1 3031   3.958   0.780   3.818
  942HOH     H2 3032   3.995   0.638   3.854
  943HOH      O 3033   1.731   2.740   1.400
  943HOH     H1 3034   1.745   2.749   1.495
  943HOH     H2 3035   1.638   2.719   1.392
  944HOH      O 3036   1.588   2.222   1.198
  944HOH     H1 3037   1.561   2.201   1.288
  944HOH     H2 3038   1.562   2.146   1.147
  945HOH      O 3039   0.454   3.575   0.051
  945HOH     H1 3040   0.422   3.558   0.140
  945HOH     H2 3041   0.437   3.668   0.037
  946HOH      O 3042   2.218   0.408   2.846
  946HOH     H1 3043   2.260   0.485   2.885
  946HOH     H2 3044   2.279   0.337   2.863
  947HOH      O 3045   0.498   2.687   0.167
  947HOH     H1 3046   0.576   2.730   0.203
  947HOH     H2 3047   0.430   2.702   0.232
  948HOH      O 3048   0.417   2.062   2.020
  948HOH     H1 3049   0.360   2.125   2.063
  948HOH     H2 3050   0.502   2.106   2.014
  949HOH      O 3051   1.321   0.827   0.455
  949HOH     H1 3052   1.271   0.753   0.490
  949HOH     H2 3053   1.361   0.867   0.532
  950HOH      O 3054   3.362   3.677   1.887
  950HOH     H1 3055   3.427   3.729   1.838
  950HOH     H2 3056   3.322   3.740   1.946
  951HOH      O 3057   1.983   0.501   0.224
  951HOH     H1 3058   1.961   0.482   0.133
  951HOH     H2 3059   2.074   0.473   0.233
  952HOH      O 3060   1.440   2.967   1.225
  952HOH     H1 3061   1.346   2.954   1.211
  952HOH     H2 3062   1.482   2.897   1.175
  953HOH      O 3063   0.694   1.312   1.442
  953HOH     H1 3064   0.723   1.320   1.351
  953HOH     H2 3065   0.757   1.364   1.491
  954HOH      O 3066   0.560   2.449   3.606
  954HOH     H1 3067   0.541   2.356   3.620
  954HOH     H2 3068   0.648   2.461   3.643
  955HOH      O 3069   3.671   1.906   2.372
  955HOH     H1 3070   3.628   1.887   2.456
  955HOH     H2 3071   3.598   1.927   2.313
  956HOH      O 3072   1.888   1.873   0.942
  956HOH     H1 3073   1.906   1.852   1.034
  956HOH     H2 3074   1.805   1.829   0.924
  957HOH      O 3075   1.182   1.132   2.037
  957HOH     H1 3076   1.098   1.088   2.026
  957HOH     H2 3077   1.199   1.172   1.951
  958HOH      O 3078   3.363  -0.007   2.024
  958HOH     H1 3079   3.339   0.084   2.041
  958HOH     H2 3080   3.296  -0.039   1.964
  959HOH      O 3081   2.248   3.799   0.938
  959HOH     H1 3082   2.307   3.869   0.910
  959HOH     H2 3083   2.202   3.773   0.858
  960HOH      O 3084   1.668   2.615   3.665
  960HOH     H1 3085   1.624   2.602   3.749
  960HOH     H2 3086   1.628   2.695   3.630
  961HOH      O 3087   0.059   2.145   2.592
  961HOH     H1 3088  -0.028   2.182   2.609
  961HOH     H2 3089   0.058   2.124   2.499
  962HOH      O 3090   2.962   0.656   2.276
  962HOH     H1 3091   3.034   0.718   2.290
  962HOH     H2 3092   2.887   0.695   2.320
  963HOH      O 3093   2.031   0.377   1.821
  963HOH     H1 3094   2.053   0.378   1.914
  963HOH     H2 3095   1.966   0.446   1.811
  964HOH      O 3096   3.553   3.837   1.735
  964HOH     H1 3097   3.577   3.843   1.643
  964HOH     H2 3098   3.637   3.844   1.782
  965HOH      O 3099   1.690   3.040   1.001
  965HOH     H1 3100   1.604   3.008   0.974
  965HOH     H2 3101   1.719   2.976   1.066
  966HOH      O 3102   3.866   3.969   2.975
  966HOH     H1 3103   3.832   3.988   2.887
  966HOH     H2 3104   3.796   3.994   3.034
  967HOH      O 3105   2.790   1.822   2.915
  967HOH     H1 3106   2.729   1.834   2.988
  967HOH     H2 3107   2.789   1.907   2.870
  968HOH      O 3108   0.923   3.955   1.406
  968HOH     H1 3109   0.927   4.021   1.476
  968HOH     H2 3110   1.014   3.943   1.380
  969HOH      O 3111   2.576   3.562   1.829
  969HOH     H1 3112   2.511   3.621   1.868
  969HOH     H2 3113   2.553   3.560   1.736
  970HOH      O 3114   2.710   3.928   0.570
  970HOH     H1 3115   2.773   3.998   0.552
  970HOH     H2 3116   2.639   3.943   0.507
  971HOH      O 3117   0.293   1.217   3.888
  971HOH     H1 3118   0.271   1.155   3.957
  971HOH     H2 3119   0.303   1.164   3.809
  972HOH      O 3120   3.949   1.740   3.795
  972HOH     H1 3121   3.961   1.735   3.700
  972HOH     H2 3122   3.865   1.697   3.810
  973HOH      O 3123   3.768   2.865   0.104
  973HOH     H1 3124   3.693   2.904   0.058
  973HOH     H2 3125   3.731   2.827   0.183
  974HOH      O 3126   2.354   3.561  -0.028
  974HOH     H1 3127   2.296   3.582   0.044
  974HOH     H2 3128   2.426   3.512   0.012
  975HOH      O 3129   3.887   0.232   2.696
  975HOH     H1 3130   3.878   0.145   2.735
  975HOH     H2 3131   3.871   0.218   2.603
  976HOH      O 3132   3.059   0.479   1.314
  976HOH     H1 3133   3.112   0.459   1.392
  976HOH     H2 3134   3.090   0.418   1.248
  977HOH      O 3135   1.833   0.630   2.728
  977HOH     H1 3136   1.875   0.675   2.801
  977HOH     H2 3137   1.903   0.576   2.690
  978HOH      O 3138   1.476   2.859   0.934
  978HOH     H1 3139   1.396   2.899   0.901
  978HOH     H2 3140   1.450   2.771   0.959
  979HOH      O 3141   0.707   2.277   1.016
  979HOH     H1 3142   0.720   2.264   0.922
  979HOH     H2 3143   0.612   2.276   1.027
  980HOH      O 3144   0.577   3.863   3.045
  980HOH     H1 3145   0.517   3.853   3.119
  980HOH     H2 3146   0.521   3.860   2.967
  981HOH      O 3147   1.229   3.431   0.535
  981HOH     H1 3148   1.232   3.503   0.472
  981HOH     H2 3149   1.314   3.435   0.579
  982HOH      O 3150   0.214   2.678   2.742
  982HOH     H1 3151   0.172   2.660   2.657
  982HOH     H2 3152   0.307   2.684   2.722
  983HOH      O 3153   3.041   2.898   3.316
  983HOH     H1 3154   3.096   2.827   3.349
  983HOH     H2 3155   2.954   2.858   3.306
  984HOH      O 3156   0.096   1.773   3.009
  984HOH     H1 3157   0.150   1.694   3.002
  984HOH     H2 3158   0.129   1.832   2.941
  985HOH      O 3159   1.983   0.604   1.482
  985HOH     H1 3160   1.922   0.555   1.427
  985HOH     H2 3161   1.943   0.690   1.492
  986HOH      O 3162   3.274   1.496   1.890
  986HOH     H1 3163   3.336   1.544   1.835
  986HOH     H2 3164   3.289   1.530   1.978
  987HOH      O 3165   1.753   1.535   2.600
  987HOH     H1 3166   1.763   1.464   2.664
  987HOH     H2 3167   1.837   1.537   2.554
  988HOH      O 3168   1.480   2.161   2.616
  988HOH     H1 3169   1.416   2.132   2.681
  988HOH     H2 3170   1.495   2.085   2.560
  989HOH      O 3171   3.773   2.162   0.636
  989HOH     H1 3172   3.858   2.181   0.674
  989HOH     H2 3173   3.710   2.185   0.704
  990HOH      O 3174   0.849   1.959   0.274
  990HOH     H1 3175   0.853   1.976   0.180
  990HOH     H2 3176   0.891   2.035   0.314
  991HOH      O 3177   2.094   1.864   3.464
  991HOH     H1 3178   2.117   1.778   3.427
  991HOH     H2 3179   2.004   1.878   3.437
  992HOH      O 3180   3.826   0.042   3.957
  992HOH     H1 3181   3.908  -0.005   3.941
  992HOH     H2 3182   3.758  -0.015   3.921
  993HOH      O 3183   1.741   2.093   3.663
  993HOH     H1 3184   1.676   2.137   3.608
  993HOH     H2 3185   1.749   2.149   3.740
  994HOH      O 3186   0.411   3.210   2.597
  994HOH     H1 3187   0.406   3.248   2.685
  994HOH     H2 3188   0.426   3.116   2.613
  995HOH      O 3189   1.462   0.022   1.127
  995HOH     H1 3190   1.479   0.107   1.168
  995HOH     H2 3191   1.366   0.017   1.124
  996HOH      O 3192   0.612   0.569   3.035
  996HOH     H1 3193   0.519   0.568   3.011
  996HOH     H2 3194   0.623   0.493   3.091
  997HOH      O 3195   2.455   2.723   0.545
  997HOH     H1 3196   2.524   2.789   0.536
  997HOH     H2 3197   2.497   2.652   0.594
  998HOH      O 3198   2.338   1.383   0.287
  998HOH     H1 3199   2.399   1.328   0.335
  998HOH     H2 3200   2.388   1.463   0.268
  999HOH      O 3201   3.353   2.091   0.468
  999HOH     H1 3202   3.406   2.087   0.388
  999HOH     H2 3203   3.265   2.112   0.437
 1000HOH      O 3204   0.515   2.326   2.785
 1000HOH     H1 3205   0.514   2.398   2.723
 1000HOH     H2 3206   0.450   2.264   2.752
 1001HOH      O 3207   1.304   2.875   2.036
 1001HOH     H1 3208   1.252   2.884   1.957
 1001HOH     H2 3209   1.394   2.893   2.008
 1002HOH      O 3210   1.130   1.068   1.237
 1002HOH     H1 3211   1.037   1.090   1.228
 1002HOH     H2 3212   1.174   1.123   1.171
 1003HOH      O 3213   0.385   1.595   1.008
 1003HOH     H1 3214   0.417   1.669   0.956
 1003HOH     H2 3215   0.300   1.574   0.969
 1004HOH      O 3216   2.240   0.469   0.272
 1004HOH     H1 3217   2.270   0.524   0.344
 1004HOH     H2 3218   2.235   0.381   0.310
 1005HOH      O 3219   2.757   0.039   3.093
 1005HOH     H1 3220   2.664   0.043   3.074
 1005HOH     H2 3221   2.769  -0.041   3.143
 1006HOH      O 3222   0.125   0.826   0.436
 1006HOH     H1 3223   0.211   0.822   0.395
 1006HOH     H2 3224   0.133   0.772   0.514
 1007HOH      O 3225   1.765   2.123   2.136
 1007HOH     H1 3226   1.796   2.181   2.067
 1007HOH     H2 3227   1.685   2.165   2.169
 1008HOH      O 3228   2.714   0.482   0.406
 1008HOH     H1 3229   2.690   0.572   0.429
 1008HOH     H2 3230   2.651   0.456   0.340
 1009HOH      O 3231   2.686   1.020   0.375
 1009HOH     H1 3232   2.748   0.969   0.323
 1009HOH     H2 3233   2.707   0.998   0.465
 1010HOH      O 3234   1.370   1.932   3.975
 1010HOH     H1 3235   1.328   2.015   3.997
 1010HOH     H2 3236   1.299   1.876   3.944
 1011HOH      O 3237   2.930   2.527   1.344
 1011HOH     H1 3238   2.954   2.558   1.256
 1011HOH     H2 3239   3.003   2.471   1.370
 1012HOH      O 3240   0.877   1.658   2.701
 1012HOH     H1 3241   0.903   1.618   2.784
 1012HOH     H2 3242   0.786   1.684   2.714
 1013HOH      O 3243   0.545   3.938   4.014
 1013HOH     H1 3244   0.600   3.873   3.968
 1013HOH     H2 3245   0.563   4.020   3.968
 1014HOH      O 3246   0.014   1.086   2.304
 1014HOH     H1 3247   0.005   1.123   2.391
 1014HOH     H2 3248   0.064   1.151   2.255
 1015HOH      O 3249   2.928   0.682   1.997
 1015HOH     H1 3250   2.895   0.769   2.021
 1015HOH     H2 3251   2.959   0.645   2.080
 1016HOH      O 3252   3.978   2.974   3.399
 1016HOH     H1 3253   3.940   2.939   3.480
 1016HOH     H2 3254   3.906   3.021   3.357
 1017HOH      O 3255   3.212   1.974   2.317
 1017HOH     H1 3256   3.157   1.985   2.239
 1017HOH     H2 3257   3.301   1.982   2.283
 1018HOH      O 3258   2.141   2.178   2.100
 1018HOH     H1 3259   2.061   2.184   2.154
 1018HOH     H2 3260   2.188   2.259   2.120
 1019HOH      O 3261   0.124   1.224   3.176
 1019HOH     H1 3262   0.034   1.204   3.150
 1019HOH     H2 3263   0.120   1.237   3.271
 1020HOH      O 3264   3.515   3.828   1.465
 1020HOH     H1 3265   3.445   3.887   1.434
 1020HOH     H2 3266   3.474   3.742   1.468
 1021HOH      O 3267   1.966   2.116   3.333
 1021HOH     H1 3268   1.925   2.054   3.393
 1021HOH     H2 3269   2.060   2.099   3.341
 1022HOH      O 3270   0.595   3.869   1.946
 1022HOH     H1 3271   0.622   3.932   2.012
 1022HOH     H2 3272   0.670   3.810   1.937
 1023HOH      O 3273   3.084   3.804   1.597
 1023HOH     H1 3274   3.070   3.716   1.562
 1023HOH     H2 3275   2.997   3.844   1.596
 1024HOH      O 3276   0.852   3.521   0.381
 1024HOH     H1 3277   0.932   3.468   0.385
 1024HOH     H2 3278   0.822   3.511   0.290
 1025HOH      O 3279   0.153   3.523   1.849
 1025HOH     H1 3280   0.144   3.594   1.785
 1025HOH     H2 3281   0.237   3.538   1.890
 1026HOH      O 3282   3.988   4.023   1.491
 1026HOH     H1 3283   3.992   4.091   1.424
 1026HOH     H2 3284   3.894   4.007   1.502
 1027HOH      O 3285   0.508   2.574   3.977
 1027HOH     H1 3286   0.485   2.637   3.908
 1027HOH     H2 3287   0.513   2.627   4.057
 1028HOH      O 3288   2.328   3.434   3.442
 1028HOH     H1 3289   2.341   3.421   3.348
 1028HOH     H2 3290   2.329   3.346   3.479
 1029HOH      O 3291   2.971   3.122   3.125
 1029HOH     H1 3292   2.915   3.136   3.048
 1029HOH     H2 3293   2.920   3.062   3.180
 1030HOH      O 3294   1.906   1.269   3.678
 1030HOH     H1 3295   1.896   1.343   3.738
 1030HOH     H2 3296   2.000   1.265   3.661
 1031HOH      O 3297   0.706   3.128   3.041
 1031HOH     H1 3298   0.704   3.052   3.099
 1031HOH     H2 3299   0.799   3.145   3.026
 1032HOH      O 3300   3.623   0.136   0.261
 1032HOH     H1 3301   3.643   0.229   0.266
 1032HOH     H2 3302   3.529   0.131   0.275
 1033HOH      O 3303   1.239   3.196   3.342
 1033HOH     H1 3304   1.200   3.273   3.384
 1033HOH     H2 3305   1.319   3.230   3.301
 1034HOH      O 3306   2.620   3.409   0.659
 1034HOH     H1 3307   2.680   3.334   0.652
 1034HOH     H2 3308   2.643   3.465   0.585
 1035HOH      O 3309   2.324   3.836   2.185
 1035HOH     H1 3310   2.247   3.815   2.237
 1035HOH     H2 3311   2.336   3.930   2.198
 1036HOH      O 3312   1.468   2.975   0.213
 1036HOH     H1 3313   1.518   2.931   0.282
 1036HOH     H2 3314   1.487   3.068   0.225
 1037HOH      O 3315   3.668   3.913   2.062
 1037HOH     H1 3316   3.696   4.000   2.034
 1037HOH     H2 3317   3.573   3.917   2.064
 1038HOH      O 3318   3.702   0.763   0.335
 1038HOH     H1 3319   3.676   0.714   0.258
 1038HOH     H2 3320   3.685   0.855   0.312
 1039HOH      O 3321   3.384   0.366   1.318
 1039HOH     H1 3322   3.339   0.291   1.356
 1039HOH     H2 3323   3.469   0.332   1.291
 1040HOH      O 3324   2.280   1.510   1.866
 1040HOH     H1 3325   2.255   1.418   1.852
 1040HOH     H2 3326   2.371   1.506   1.894
 1041HOH      O 3327   1.122   1.395   0.700
 1041HOH     H1 3328   1.210   1.421   0.727
 1041HOH     H2 3329   1.113   1.429   0.611
 1042HOH      O 3330   0.479   0.064   1.745
 1042HOH     H1 3331   0.547   0.020   1.694
 1042HOH     H2 3332   0.400   0.012   1.729
 1043HOH      O 3333   2.220   2.667   0.841
 1043HOH     H1 3334   2.276   2.745   0.837
 1043HOH     H2 3335   2.228   2.637   0.932
 1044HOH      O 3336   2.975   1.168   1.493
 1044HOH     H1 3337   2.999   1.197   1.405
 1044HOH     H2 3338   3.058   1.143   1.533
 1045HOH      O 3339   0.519   3.782   1.200
 1045HOH     H1 3340   0.497   3.830   1.120
 1045HOH     H2 3341   0.435   3.748   1.232
 1046HOH      O 3342   1.060   3.445   2.176
 1046HOH     H1 3343   1.124   3.493   2.228
 1046HOH     H2 3344   1.105   3.428   2.093
 1047HOH      O 3345   2.819   0.509   3.709
 1047HOH     H1 3346   2.867   0.481   3.787
 1047HOH     H2 3347   2.871   0.476   3.635
 1048HOH      O 3348   0.687   1.079   2.264
 1048HOH     H1 3349   0.684   1.027   2.183
 1048HOH     H2 3350   0.775   1.117   2.264
 1049HOH      O 3351   2.048   3.244   3.463
 1049HOH     H1 3352   2.064   3.150   3.469
 1049HOH     H2 3353   2.105   3.273   3.391
 1050HOH      O 3354   1.333   3.724   1.942
 1050HOH     H1 3355   1.391   3.730   2.018
 1050HOH     H2 3356   1.371   3.655   1.888
 1051HOH      O 3357   2.587   1.656   0.041
 1051HOH     H1 3358   2.670   1.609   0.041
 1051HOH     H2 3359   2.583   1.696  -0.046
 1052HOH      O 3360   1.763   2.402   1.296
 1052HOH     H1 3361   1.716   2.349   1.233
 1052HOH     H2 3362   1.694   2.438   1.353
 1053HOH      O 3363   2.964   3.142   0.037
 1053HOH     H1 3364   3.022   3.215   0.057
 1053HOH     H2 3365   2.967   3.135  -0.059
 1054HOH      O 3366   0.864   3.137   0.172
 1054HOH     H1 3367   0.871   3.161   0.264
 1054HOH     H2 3368   0.808   3.059   0.172
 1055HOH      O 3369   1.547   1.287   0.273
 1055HOH     H1 3370   1.636   1.314   0.248
 1055HOH     H2 3371   1.532   1.330   0.357
 1056HOH      O 3372   3.564   0.276   2.197
 1056HOH     H1 3373   3.512   0.353   2.174
 1056HOH     H2 3374   3.602   0.248   2.114
 1057HOH      O 3375   2.878   3.586   2.092
 1057HOH     H1 3376   2.921   3.663   2.055
 1057HOH     H2 3377   2.792   3.617   2.121
 1058HOH      O 3378   2.586   0.321   3.037
 1058HOH     H1 3379   2.670   0.301   3.078
 1058HOH     H2 3380   2.606   0.327   2.943
 1059HOH      O 3381   0.676   4.004   0.767
 1059HOH     H1 3382   0.582   3.991   0.761
 1059HOH     H2 3383   0.708   3.930   0.819
 1060HOH      O 3384   3.423   3.238   3.073
 1060HOH     H1 3385   3.506   3.194   3.060
 1060HOH     H2 3386   3.447   3.328   3.097
 1061HOH      O 3387   2.136   0.973   1.295
 1061HOH     H1 3388   2.095   1.053   1.329
 1061HOH     H2 3389   2.076   0.942   1.227
 1062HOH      O 3390   0.077   2.551   0.029
 1062HOH     H1 3391   0.122   2.630   0.059
 1062HOH     H2 3392  -0.008   2.582  -0.002
 1063HOH      O 3393  -0.002   1.553   3.264
 1063HOH     H1 3394  -0.000   1.616   3.192
 1063HOH     H2 3395   0.090   1.531   3.278
 1064HOH      O 3396   1.634   2.321   0.682
 1064HOH     H1 3397   1.617   2.227   0.673
 1064HOH     H2 3398   1.656   2.332   0.775
 1065HOH      O 3399   3.769   0.253   2.395
 1065HOH     H1 3400   3.702   0.249   2.327
 1065HOH     H2 3401   3.836   0.311   2.359
 1066HOH      O 3402   1.880   1.061   2.529
 1066HOH     H1 3403   1.942   1.105   2.587
 1066HOH     H2 3404   1.925   0.982   2.500
 1067HOH      O 3405   0.680   4.007   2.184
 1067HOH     H1 3406   0.700   3.931   2.238
 1067HOH     H2 3407   0.740   4.075   2.215
 1068HOH      O 3408   0.545   3.024   1.649
 1068HOH     H1 3409   0.532   3.119   1.656
 1068HOH     H2 3410   0.600   3.014   1.571
 1069HOH      O 3411   1.064   1.758   0.383
 1069HOH     H1 3412   1.010   1.741   0.461
 1069HOH     H2 3413   1.010   1.815   0.329
 1070HOH      O 3414   3.524   2.718   1.497
 1070HOH     H1 3415   3.486   2.740   1.582
 1070HOH     H2 3416   3.449   2.709   1.439
 1071HOH      O 3417   1.055   1.475   3.745
 1071HOH     H1 3418   1.006   1.417   3.803
 1071HOH     H2 3419   1.089   1.418   3.677
 1072HOH      O 3420   0.895   0.316   2.768
 1072HOH     H1 3421   0.831   0.245   2.774
 1072HOH     H2 3422   0.845   0.396   2.785
 1073HOH      O 3423   0.707   2.558   3.001
 1073HOH     H1 3424   0.795   2.580   3.032
 1073HOH     H2 3425   0.715   2.469   2.966
 1074HOH      O 3426   2.956   1.972   0.383
 1074HOH     H1 3427   3.015   1.899   0.399
 1074HOH     H2 3428   3.009   2.050   0.397
 1075HOH      O 3429   3.388   3.587   1.508
 1075HOH     H1 3430   3.314   3.596   1.569
 1075HOH     H2 3431   3.387   3.495   1.483
 1076HOH      O 3432   4.000   2.282   4.057
 1076HOH     H1 3433   4.085   2.326   4.049
 1076HOH     H2 3434   4.011   2.200   4.009
 1077HOH      O 3435   2.170   3.506   2.345
 1077HOH     H1 3436   2.091   3.477   2.390
 1077HOH     H2 3437   2.222   3.549   2.412
 1078HOH      O 3438   0.754   2.921   2.404
 1078HOH     H1 3439   0.659   2.909   2.395
 1078HOH     H2 3440   0.782   2.951   2.318
 1079HOH      O 3441   0.232   3.213   2.369
 1079HOH     H1 3442   0.150   3.204   2.418
 1079HOH     H2 3443   0.295   3.245   2.434
 1080HOH      O 3444   0.927   1.729   3.361
 1080HOH     H1 3445   0.978   1.765   3.434
 1080HOH     H2 3446   0.934   1.796   3.292
 1081HOH      O 3447   1.070   1.492   2.123
 1081HOH     H1 3448   1.071   1.400   2.151
 1081HOH     H2 3449   1.161   1.512   2.104
 1082HOH      O 3450   3.389   3.968   3.016
 1082HOH     H1 3451   3.362   3.877   3.024
 1082HOH     H2 3452   3.315   4.011   2.973
 1083HOH      O 3453   0.807   0.484   0.337
 1083HOH     H1 3454   0.849   0.402   0.309
 1083HOH     H2 3455   0.826   0.489   0.431
 1084HOH      O 3456   1.633   1.998   0.327
 1084HOH     H1 3457   1.669   2.036   0.247
 1084HOH     H2 3458   1.545   1.970   0.303
 1085HOH      O 3459   0.711   3.356   0.552
 1085HOH     H1 3460   0.785   3.408   0.521
 1085HOH     H2 3461   0.636   3.416   0.545
 1086HOH      O 3462   1.245   0.909   3.206
 1086HOH     H1 3463   1.320   0.921   3.266
 1086HOH     H2 3464   1.193   0.989   3.218
 1087HOH      O 3465   3.354   1.534   3.669
 1087HOH     H1 3466   3.288   1.603   3.683
 1087HOH     H2 3467   3.435   1.582   3.651
 1088HOH      O 3468   0.080   0.547   0.826
 1088HOH     H1 3469   0.014   0.520   0.762
 1088HOH     H2 3470   0.068   0.486   0.899
 1089HOH      O 3471   0.480   0.123   2.375
 1089HOH     H1 3472   0.408   0.162   2.424
 1089HOH     H2 3473   0.467   0.028   2.383
 1090HOH      O 3474   0.730   3.600   3.565
 1090HOH     H1 3475   0.678   3.539   3.513
 1090HOH     H2 3476   0.796   3.545   3.608
 1091HOH      O 3477   0.617   1.804   3.998
 1091HOH     H1 3478   0.637   1.784   3.906
 1091HOH     H2 3479   0.569   1.728   4.029
 1092HOH      O 3480   1.185   1.169   3.854
 1092HOH     H1 3481   1.155   1.099   3.912
 1092HOH     H2 3482   1.231   1.230   3.912
 1093HOH      O 3483   2.429   0.786   3.584
 1093HOH     H1 3484   2.450   0.704   3.628
 1093HOH     H2 3485   2.440   0.853   3.651
 1094HOH      O 3486   0.109   3.715   0.049
 1094HOH     H1 3487   0.177   3.781   0.064
 1094HOH     H2 3488   0.082   3.688   0.137
 1095HOH      O 3489   2.637   3.254   3.543
 1095HOH     H1 3490   2.688   3.173   3.535
 1095HOH     H2 3491   2.565   3.243   3.481
 1096HOH      O 3492   0.547   0.167   2.983
 1096HOH     H1 3493   0.571   0.242   3.038
 1096HOH     H2 3494   0.574   0.090   3.033
 1097HOH      O 3495   2.292   0.628   0.499
 1097HOH     H1 3496   2.353   0.641   0.572
 1097HOH     H2 3497   2.255   0.715   0.483
 1098HOH      O 3498   1.285   2.592   3.729
 1098HOH     H1 3499   1.303   2.684   3.747
 1098HOH     H2 3500   1.343   2.544   3.788
 1099HOH      O 3501   0.688   1.430   3.142
 1099HOH     H1 3502   0.677   1.463   3.231
 1099HOH     H2 3503   0.759   1.367   3.148
 1100HOH      O 3504   2.376   3.455   0.734
 1100HOH     H1 3505   2.353   3.525   0.673
 1100HOH     H2 3506   2.468   3.437   0.716
 1101HOH      O 3507   1.569   0.855   1.370
 1101HOH     H1 3508   1.532   0.893   1.449
 1101HOH     H2 3509   1.494   0.812   1.327
 1102HOH      O 3510   0.232   1.895   1.853
 1102HOH     H1 3511   0.297   1.867   1.788
 1102HOH     H2 3512   0.276   1.964   1.903
 1103HOH      O 3513   3.818   2.789   3.545
 1103HOH     H1 3514   3.743   2.801   3.604
 1103HOH     H2 3515   3.892   2.772   3.604
 1104HOH      O 3516   2.884   2.116   3.234
 1104HOH     H1 3517   2.834   2.167   3.298
 1104HOH     H2 3518   2.957   2.173   3.210
 1105HOH      O 3519   1.427   0.411   3.854
 1105HOH     H1 3520   1.514   0.449   3.869
 1105HOH     H2 3521   1.406   0.433   3.764
 1106HOH      O 3522   1.546   3.056   3.722
 1106HOH     H1 3523   1.523   3.140   3.681
 1106HOH     H2 3524   1.551   3.075   3.815
 1107HOH      O 3525   3.517   2.769   2.171
 1107HOH     H1 3526   3.427   2.778   2.203
 1107HOH     H2 3527   3.519   2.821   2.090
 1108HOH      O 3528   1.092   2.463   0.684
 1108HOH     H1 3529   1.033   2.389   0.698
 1108HOH     H2 3530   1.033   2.536   0.663
 1109HOH      O 3531   1.622   3.099   2.267
 1109HOH     H1 3532   1.703   3.052   2.246
 1109HOH     H2 3533   1.648   3.166   2.330
 1110HOH      O 3534   2.410   2.453   3.046
 1110HOH     H1 3535   2.333   2.438   2.991
 1110HOH     H2 3536   2.391   2.407   3.128
 1111HOH      O 3537   3.783   1.377   1.335
 1111HOH     H1 3538   3.743   1.416   1.258
 1111HOH     H2 3539   3.751   1.287   1.336
 1112HOH      O 3540   1.247   2.366   1.591
 1112HOH     H1 3541   1.204   2.425   1.653
 1112HOH     H2 3542   1.243   2.280   1.632
 1113HOH      O 3543   1.779   2.460   1.984
 1113HOH     H1 3544   1.749   2.371   2.005
 1113HOH     H2 3545   1.763   2.511   2.063
 1114HOH      O 3546   0.071   3.625   1.552
 1114HOH     H1 3547   0.167   3.628   1.555
 1114HOH     H2 3548   0.050   3.533   1.538
 1115HOH      O 3549   0.655   3.566   1.053
 1115HOH     H1 3550   0.593   3.594   1.119
 1115HOH     H2 3551   0.610   3.580   0.969
 1116HOH      O 3552   1.665   3.881   1.028
 1116HOH     H1 3553   1.588   3.923   1.067
 1116HOH     H2 3554   1.736   3.901   1.089
 1117HOH      O 3555   3.274   1.480   2.229
 1117HOH     H1 3556   3.365   1.496   2.256
 1117HOH     H2 3557   3.254   1.392   2.262
 1118HOH      O 3558   1.305   2.115   1.700
 1118HOH     H1 3559   1.346   2.149   1.780
 1118HOH     H2 3560   1.322   2.021   1.702
 1119HOH      O 3561   3.743   1.610   3.914
 1119HOH     H1 3562   3.757   1.650   4.000
 1119HOH     H2 3563   3.781   1.523   3.922
 1120HOH      O 3564   2.807   1.800   3.532
 1120HOH     H1 3565   2.775   1.721   3.488
 1120HOH     H2 3566   2.898   1.808   3.502
 1121HOH      O 3567   2.918   0.076   3.884
 1121HOH     H1 3568   2.978   0.118   3.823
 1121HOH     H2 3569   2.873   0.010   3.832
 1122HOH      O 3570   0.546   0.918   2.481
 1122HOH     H1 3571   0.614   0.934   2.416
 1122HOH     H2 3572   0.576   0.841   2.529
 1123HOH      O 3573   1.455   3.290   1.661
 1123HOH     H1 3574   1.516   3.219   1.642
 1123HOH     H2 3575   1.420   3.270   1.747
 1124HOH      O 3576   2.414   1.657   3.435
 1124HOH     H1 3577   2.346   1.590   3.441
 1124HOH     H2 3578   2.426   1.687   3.525
 1125HOH      O 3579   1.605   2.394   2.652
 1125HOH     H1 3580   1.537   2.460   2.644
 1125HOH     H2 3581   1.560   2.311   2.636
 1126HOH      O 3582   1.988   2.661   1.409
 1126HOH     H1 3583   1.898   2.690   1.392
 1126HOH     H2 3584   2.006   2.596   1.340
 1127HOH      O 3585   1.666   2.594   2.219
 1127HOH     H1 3586   1.576   2.616   2.241
 1127HOH     H2 3587   1.716   2.673   2.239
 1128HOH      O 3588   3.185   0.856   2.225
 1128HOH     H1 3589   3.249   0.814   2.282
 1128HOH     H2 3590   3.213   0.833   2.137
 1129HOH      O 3591   3.548   2.399   1.402
 1129HOH     H1 3592   3.537   2.456   1.325
 1129HOH     H2 3593   3.627   2.432   1.445
 1130HOH      O 3594   0.568   3.416   3.447
 1130HOH     H1 3595   0.500   3.466   3.493
 1130HOH     H2 3596   0.535   3.326   3.445
 1131HOH      O 3597   0.276   1.587   3.213
 1131HOH     H1 3598   0.305   1.503   3.178
 1131HOH     H2 3599   0.319   1.652   3.158
 1132HOH      O 3600   3.018   4.049   2.165
 1132HOH     H1 3601   3.033   3.973   2.221
 1132HOH     H2 3602   2.947   4.023   2.107
 1133HOH      O 3603   0.343   0.091   3.318
 1133HOH     H1 3604   0.341   0.186   3.322
 1133HOH     H2 3605   0.263   0.064   3.364
 1134HOH      O 3606   1.985   3.048   3.075
 1134HOH     H1 3607   2.046   3.042   3.002
 1134HOH     H2 3608   1.975   2.958   3.106
 1135HOH      O 3609   0.519   2.600   2.664
 1135HOH     H1 3610   0.598   2.570   2.619
 1135HOH     H2 3611   0.542   2.687   2.696
 1136HOH      O 3612  -0.013   0.318   1.046
 1136HOH     H1 3613  -0.036   0.253   0.980
 1136HOH     H2 3614   0.076   0.293   1.073
 1137HOH      O 3615   3.895   2.203   1.772
 1137HOH     H1 3616   3.909   2.155   1.690
 1137HOH     H2 3617   3.931   2.145   1.839
 1138HOH      O 3618   3.093   0.992   0.340
 1138HOH     H1 3619   3.085   1.023   0.430
 1138HOH     H2 3620   3.164   0.928   0.343
 1139HOH      O 3621   2.191   3.754   1.769
 1139HOH     H1 3622   2.232   3.671   1.745
 1139HOH     H2 3623   2.187   3.803   1.687
 1140HOH      O 3624   3.866   0.381   0.766
 1140HOH     H1 3625   3.856   0.298   0.813
 1140HOH     H2 3626   3.907   0.357   0.684
 1141HOH      O 3627   3.612   1.963   1.888
 1141HOH     H1 3628   3.598   2.048   1.931
 1141HOH     H2 3629   3.563   1.901   1.941
 1142HOH      O 3630   0.468   2.039   0.050
 1142HOH     H1 3631   0.523   1.980  -0.002
 1142HOH     H2 3632   0.525   2.067   0.122
 1143HOH      O 3633   1.378   1.405   0.821
 1143HOH     H1 3634   1.390   1.419   0.915
 1143HOH     H2 3635   1.414   1.317   0.806
 1144HOH      O 3636   2.402   0.713   0.720
 1144HOH     H1 3637   2.358   0.797   0.704
 1144HOH     H2 3638   2.352   0.672   0.790
 1145HOH      O 3639   1.057   2.403   2.344
 1145HOH     H1 3640   0.964   2.378   2.342
 1145HOH     H2 3641   1.101   2.330   2.387
 1146HOH      O 3642   1.195   1.115   0.375
 1146HOH     H1 3643   1.272   1.061   0.393
 1146HOH     H2 3644   1.134   1.095   0.446
 1147HOH      O 3645   2.785   0.514   2.534
 1147HOH     H1 3646   2.809   0.428   2.498
 1147HOH     H2 3647   2.865   0.566   2.524
 1148HOH      O 3648   1.140   3.017   2.321
 1148HOH     H1 3649   1.138   2.957   2.246
 1148HOH     H2 3650   1.228   3.006   2.357
 1149HOH      O 3651   1.697   1.577   2.149
 1149HOH     H1 3652   1.649   1.537   2.222
 1149HOH     H2 3653   1.693   1.671   2.165
 1150HOH      O 3654   3.375   1.758   0.361
 1150HOH     H1 3655   3.375   1.781   0.268
 1150HOH     H2 3656   3.293   1.794   0.394
 1151HOH      O 3657   3.978   3.420   1.987
 1151HOH     H1 3658   4.020   3.458   2.065
 1151HOH     H2 3659   4.039   3.439   1.916
 1152HOH      O 3660   1.686   1.323   1.971
 1152HOH     H1 3661   1.710   1.370   2.051
 1152HOH     H2 3662   1.595   1.298   1.985
 1153HOH      O 3663   1.000   3.289   0.489
 1153HOH     H1 3664   0.969   3.246   0.568
 1153HOH     H2 3665   1.071   3.347   0.519
 1154HOH      O 3666   1.771   2.834   1.136
 1154HOH     H1 3667   1.769   2.757   1.078
 1154HOH     H2 3668   1.772   2.797   1.224
 1155HOH      O 3669   1.993   0.747   0.716
 1155HOH     H1 3670   2.054   0.690   0.764
 1155HOH     H2 3671   1.981   0.822   0.774
 1156HOH      O 3672   0.692   1.742   3.724
 1156HOH     H1 3673   0.677   1.670   3.663
 1156HOH     H2 3674   0.787   1.747   3.733
 1157HOH      O 3675   1.864   3.393   0.089
 1157HOH     H1 3676   1.830   3.345   0.164
 1157HOH     H2 3677   1.852   3.333   0.015
 1158HOH      O 3678   2.144   3.714   0.696
 1158HOH     H1 3679   2.109   3.716   0.607
 1158HOH     H2 3680   2.116   3.629   0.731
 1159HOH      O 3681   3.670   2.588   3.991
 1159HOH     H1 3682   3.586   2.604   4.035
 1159HOH     H2 3683   3.646   2.562   3.902
 1160HOH      O 3684   0.633   3.352   2.889
 1160HOH     H1 3685   0.665   3.296   2.959
 1160HOH     H2 3686   0.541   3.329   2.879
 1161HOH      O 3687   1.903   3.275   3.169
 1161HOH     H1 3688   1.833   3.243   3.226
 1161HOH     H2 3689   1.949   3.195   3.141
 1162HOH      O 3690   1.277   2.392   2.177
 1162HOH     H1 3691   1.207   2.394   2.242
 1162HOH     H2 3692   1.301   2.484   2.164
 1163HOH      O 3693   3.785   0.892   3.231
 1163HOH     H1 3694   3.805   0.969   3.285
 1163HOH     H2 3695   3.721   0.924   3.168
 1164HOH      O 3696   1.727   3.122   2.626
 1164HOH     H1 3697   1.752   3.190   2.687
 1164HOH     H2 3698   1.652   3.079   2.667
 1165HOH      O 3699   1.405   3.893   3.300
 1165HOH     H1 3700   1.421   3.802   3.323
 1165HOH     H2 3701   1.377   3.934   3.382
 1166HOH      O 3702   3.560   2.697   1.839
 1166HOH     H1 3703   3.634   2.717   1.782
 1166HOH     H2 3704   3.539   2.779   1.882
 1167HOH      O 3705   3.700   0.057   3.322
 1167HOH     H1 3706   3.681   0.144   3.288
 1167HOH     H2 3707   3.691  -0.001   3.246
 1168HOH      O 3708   0.992   0.897   3.488
 1168HOH     H1 3709   0.968   0.814   3.527
 1168HOH     H2 3710   0.927   0.913   3.420
 1169HOH      O 3711   3.686   1.223   2.283
 1169HOH     H1 3712   3.710   1.219   2.190
 1169HOH     H2 3713   3.713   1.311   2.310
 1170HOH      O 3714   3.476   1.177   3.439
 1170HOH     H1 3715   3.460   1.124   3.361
 1170HOH     H2 3716   3.401   1.238   3.442
 1171HOH      O 3717   1.368   1.999   2.342
 1171HOH     H1 3718   1.453   1.956   2.355
 1171HOH     H2 3719   1.320   1.941   2.283
 1172HOH      O 3720   1.594   0.800   2.382
 1172HOH     H1 3721   1.604   0.742   2.457
 1172HOH     H2 3722   1.679   0.796   2.338
 1173HOH      O 3723   3.339   3.488   2.465
 1173HOH     H1 3724   3.273   3.433   2.508
 1173HOH     H2 3725   3.418   3.476   2.517
 1174HOH      O 3726   1.916   0.238   3.051
 1174HOH     H1 3727   1.825   0.213   3.033
 1174HOH     H2 3728   1.918   0.333   3.036
 1175HOH      O 3729   1.288   3.545   2.753
 1175HOH     H1 3730   1.304   3.594   2.833
 1175HOH     H2 3731   1.372   3.503   2.734
 1176HOH      O 3732   3.240  -0.011   0.863
 1176HOH     H1 3733   3.290   0.065   0.892
 1176HOH     H2 3734   3.149   0.010   0.883
 1177HOH      O 3735   3.838   0.554   3.454
 1177HOH     H1 3736   3.759   0.576   3.503
 1177HOH     H2 3737   3.869   0.637   3.419
 1178HOH      O 3738   2.470   4.024   3.004
 1178HOH     H1 3739   2.427   4.005   3.087
 1178HOH     H2 3740   2.459   3.944   2.952
 1179HOH      O 3741   0.143   1.130   1.398
 1179HOH     H1 3742   0.163   1.039   1.373
 1179HOH     H2 3743   0.225   1.176   1.387
 1180HOH      O 3744   2.403   3.415   2.824
 1180HOH     H1 3745   2.316   3.388   2.853
 1180HOH     H2 3746   2.390   3.447   2.735
 1181HOH      O 3747   1.310   1.614   3.005
 1181HOH     H1 3748   1.333   1.535   3.054
 1181HOH     H2 3749   1.292   1.679   3.072
 1182HOH      O 3750   0.978   3.851   0.208
 1182HOH     H1 3751   1.025   3.912   0.151
 1182HOH     H2 3752   1.016   3.766   0.189
 1183HOH      O 3753   3.869   0.006   0.211
 1183HOH     H1 3754   3.856   0.016   0.117
 1183HOH     H2 3755   3.790   0.044   0.250
 1184HOH      O 3756   1.985   3.425   2.511
 1184HOH     H1 3757   1.987   3.477   2.592
 1184HOH     H2 3758   1.897   3.387   2.509
 1185HOH      O 3759   1.398   3.962   1.530
 1185HOH     H1 3760   1.413   3.985   1.622
 1185HOH     H2 3761   1.430   3.872   1.523
 1186HOH      O 3762   4.019   0.242   2.997
 1186HOH     H1 3763   4.064   0.160   2.976
 1186HOH     H2 3764   3.998   0.281   2.912
 1187HOH      O 3765   2.968   1.246   3.147
 1187HOH     H1 3766   3.044   1.302   3.134
 1187HOH     H2 3767   2.983   1.171   3.088
 1188HOH      O 3768   3.207   1.470   1.374
 1188HOH     H1 3769   3.251   1.489   1.456
 1188HOH     H2 3770   3.269   1.416   1.326
 1189HOH      O 3771   0.842   3.708   1.880
 1189HOH     H1 3772   0.865   3.711   1.787
 1189HOH     H2 3773   0.919   3.741   1.925
 1190HOH      O 3774   3.459   2.295   0.105
 1190HOH     H1 3775   3.535   2.352   0.095
 1190HOH     H2 3776   3.386   2.344   0.068
 1191HOH      O 3777   0.333   3.721   1.680
 1191HOH     H1 3778   0.296   3.809   1.674
 1191HOH     H2 3779   0.428   3.733   1.674
 1192HOH      O 3780   1.518   2.191   1.498
 1192HOH     H1 3781   1.433   2.219   1.531
 1192HOH     H2 3782   1.578   2.206   1.571
 1193HOH      O 3783   3.604   1.424   0.781
 1193HOH     H1 3784   3.613   1.515   0.753
 1193HOH     H2 3785   3.652   1.374   0.716
 1194HOH      O 3786   3.797   3.594   2.395
 1194HOH     H1 3787   3.891   3.574   2.391
 1194HOH     H2 3788   3.786   3.638   2.480
 1195HOH      O 3789   3.714   0.615   0.789
 1195HOH     H1 3790   3.759   0.532   0.779
 1195HOH     H2 3791   3.692   0.620   0.881
 1196HOH      O 3792   3.363   1.206   2.979
 1196HOH     H1 3793   3.326   1.285   3.018
 1196HOH     H2 3794   3.425   1.238   2.913
 1197HOH      O 3795   2.617   2.262   1.717
 1197HOH     H1 3796   2.683   2.306   1.772
 1197HOH     H2 3797   2.585   2.331   1.658
 1198HOH      O 3798   2.621   0.817   2.659
 1198HOH     H1 3799   2.642   0.761   2.734
 1198HOH     H2 3800   2.656   0.771   2.583
 1199HOH      O 3801   2.822   1.176   2.251
 1199HOH     H1 3802   2.736   1.193   2.291
 1199HOH     H2 3803   2.863   1.113   2.309
 1200HOH      O 3804   1.086   2.649   1.217
 1200HOH     H1 3805   1.049   2.656   1.305
 1200HOH     H2 3806   1.018   2.607   1.165
 1201HOH      O 3807   1.830   2.784   2.295
 1201HOH     H1 3808   1.867   2.855   2.243
 1201HOH     H2 3809   1.887   2.778   2.371
 1202HOH      O 3810   2.232   0.100   1.573
 1202HOH     H1 3811   2.213   0.069   1.484
 1202HOH     H2 3812   2.225   0.195   1.567
 1203HOH      O 3813   4.065   2.593   1.988
 1203HOH     H1 3814   3.987   2.536   1.991
 1203HOH     H2 3815   4.049   2.651   1.913
 1204HOH      O 3816   3.042   2.202   0.733
 1204HOH     H1 3817   3.032   2.133   0.800
 1204HOH     H2 3818   3.090   2.271   0.778
 1205HOH      O 3819   2.975   0.982   2.382
 1205HOH     H1 3820   3.008   1.032   2.456
 1205HOH     H2 3821   3.052   0.971   2.325
 1206HOH      O 3822   2.414   0.983   0.277
 1206HOH     H1 3823   2.498   1.010   0.315
 1206HOH     H2 3824   2.361   0.956   0.352
 1207HOH      O 3825   0.993   3.114   1.979
 1207HOH     H1 3826   0.903   3.135   1.953
 1207HOH     H2 3827   1.038   3.198   1.977
 1208HOH      O 3828   2.289   0.186   3.722
 1208HOH     H1 3829   2.382   0.189   3.742
 1208HOH     H2 3830   2.272   0.265   3.670
 1209HOH      O 3831   2.044   1.218   2.195
 1209HOH     H1 3832   2.077   1.308   2.200
 1209HOH     H2 3833   2.115   1.168   2.155
 1210HOH      O 3834   2.151   0.088   3.041
 1210HOH     H1 3835   2.164  -0.002   3.071
 1210HOH     H2 3836   2.062   0.110   3.068
 1211HOH      O 3837   2.816   1.935   3.785
 1211HOH     H1 3838   2.811   1.869   3.854
 1211HOH     H2 3839   2.792   1.888   3.705
 1212HOH      O 3840   3.747   1.230   1.789
 1212HOH     H1 3841   3.685   1.225   1.862
 1212HOH     H2 3842   3.782   1.319   1.794
 1213HOH      O 3843   3.821   3.774   1.868
 1213HOH     H1 3844   3.903   3.729   1.889
 1213HOH     H2 3845   3.769   3.766   1.948
 1214HOH      O 3846   3.312   0.754   3.085
 1214HOH     H1 3847   3.398   0.790   3.065
 1214HOH     H2 3848   3.314   0.741   3.180
 1215HOH      O 3849   0.444   3.048   3.067
 1215HOH     H1 3850   0.538   3.066   3.061
 1215HOH     H2 3851   0.410   3.118   3.122
 1216HOH      O 3852   3.765   2.715   1.665
 1216HOH     H1 3853   3.703   2.727   1.594
 1216HOH     H2 3854   3.834   2.779   1.649
 1217HOH      O 3855   2.682   0.111   3.492
 1217HOH     H1 3856   2.634   0.031   3.467
 1217HOH     H2 3857   2.662   0.123   3.585
 1218HOH      O 3858   1.225   2.289   2.708
 1218HOH     H1 3859   1.201   2.235   2.632
 1218HOH     H2 3860   1.262   2.368   2.670
 1219HOH      O 3861   3.414   2.972   3.653
 1219HOH     H1 3862   3.353   3.042   3.630
 1219HOH     H2 3863   3.496   2.996   3.609
 1220HOH      O 3864   0.719   0.101   2.782
 1220HOH     H1 3865   0.695   0.042   2.711
 1220HOH     H2 3866   0.636   0.137   2.813
 1221HOH      O 3867   1.779   3.084   1.356
 1221HOH     H1 3868   1.846   3.059   1.419
 1221HOH     H2 3869   1.697   3.051   1.394
 1222HOH      O 3870   0.795   2.234   0.756
 1222HOH     H1 3871   0.854   2.160   0.738
 1222HOH     H2 3872   0.828   2.305   0.701
 1223HOH      O 3873   0.434   0.177   0.152
 1223HOH     H1 3874   0.393   0.211   0.072
 1223HOH     H2 3875   0.495   0.110   0.121
 1224HOH      O 3876   1.683   0.327   1.572
 1224HOH     H1 3877   1.710   0.340   1.481
 1224HOH     H2 3878   1.720   0.242   1.596
 1225HOH      O 3879   3.042   2.045   2.104
 1225HOH     H1 3880   2.982   2.111   2.138
 1225HOH     H2 3881   2.992   1.999   2.036
 1226HOH      O 3882   1.968   2.520   0.785
 1226HOH     H1 3883   2.047   2.574   0.792
 1226HOH     H2 3884   1.999   2.437   0.750
 1227HOH      O 3885   2.056   0.843   3.698
 1227HOH     H1 3886   2.053   0.904   3.772
 1227HOH     H2 3887   2.007   0.887   3.629
 1228HOH      O 3888   1.359   3.733   0.623
 1228HOH     H1 3889   1.380   3.720   0.715
 1228HOH     H2 3890   1.440   3.714   0.576
 1229HOH      O 3891   3.935   0.907   0.047
 1229HOH     H1 3892   3.891   0.923   0.130
 1229HOH     H2 3893   4.006   0.846   0.069
 1230HOH      O 3894   2.865   3.206   2.639
 1230HOH     H1 3895   2.787   3.174   2.594
 1230HOH     H2 3896   2.937   3.155   2.602
 1231HOH      O 3897   2.584   1.913   3.403
 1231HOH     H1 3898   2.662   1.915   3.457
 1231HOH     H2 3899   2.528   1.847   3.444
 1232HOH      O 3900   2.965   1.423   2.391
 1232HOH     H1 3901   2.920   1.359   2.446
 1232HOH     H2 3902   3.041   1.376   2.357
 1233HOH      O 3903   0.717   1.236   1.011
 1233HOH     H1 3904   0.679   1.324   1.013
 1233HOH     H2 3905   0.661   1.184   1.070
 1234HOH      O 3906   2.144   2.820   0.226
 1234HOH     H1 3907   2.133   2.727   0.247
 1234HOH     H2 3908   2.230   2.842   0.261
 1235HOH      O 3909   1.704   0.274   0.865
 1235HOH     H1 3910   1.723   0.186   0.898
 1235HOH     H2 3911   1.620   0.297   0.906
 1236HOH      O 3912   0.274   0.914   1.662
 1236HOH     H1 3913   0.221   0.978   1.614
 1236HOH     H2 3914   0.213   0.873   1.724
 1237HOH      O 3915   2.449   3.208   3.009
 1237HOH     H1 3916   2.504   3.134   2.985
 1237HOH     H2 3917   2.475   3.278   2.948
 1238HOH      O 3918   2.887   1.053   2.744
 1238HOH     H1 3919   2.973   1.034   2.705
 1238HOH     H2 3920   2.860   0.970   2.784
 1239HOH      O 3921   0.604   2.067   1.710
 1239HOH     H1 3922   0.573   2.136   1.770
 1239HOH     H2 3923   0.675   2.025   1.756
 1240HOH      O 3924   3.049   1.318   1.815
 1240HOH     H1 3925   3.073   1.255   1.747
 1240HOH     H2 3926   3.125   1.375   1.822
 1241HOH      O 3927   2.338   3.721   3.469
 1241HOH     H1 3928   2.332   3.626   3.458
 1241HOH     H2 3929   2.248   3.751   3.475
 1242HOH      O 3930   3.229   3.105   3.290
 1242HOH     H1 3931   3.138   3.077   3.280
 1242HOH     H2 3932   3.262   3.111   3.201
 1243HOH      O 3933   1.905   0.332   3.737
 1243HOH     H1 3934   1.983   0.387   3.746
 1243HOH     H2 3935   1.867   0.359   3.653
 1244HOH      O 3936   2.360   2.669   2.043
 1244HOH     H1 3937   2.290   2.671   2.109
 1244HOH     H2 3938   2.423   2.734   2.072
 1245HOH      O 3939   0.274   1.088   3.635
 1245HOH     H1 3940   0.235   1.014   3.682
 1245HOH     H2 3941   0.318   1.048   3.560
 1246HOH      O 3942   3.703   3.479   3.203
 1246HOH     H1 3943   3.798   3.468   3.214
 1246HOH     H2 3944   3.665   3.408   3.256
 1247HOH      O 3945   1.420   1.096   1.167
 1247HOH     H1 3946   1.356   1.138   1.110
 1247HOH     H2 3947   1.418   1.003   1.142
 1248HOH      O 3948   2.793   0.587   3.344
 1248HOH     H1 3949   2.864   0.651   3.348
 1248HOH     H2 3950   2.766   0.575   3.435
 1249HOH      O 3951   1.373   0.205   1.524
 1249HOH     H1 3952   1.459   0.194   1.566
 1249HOH     H2 3953   1.325   0.125   1.546
 1250HOH      O 3954   3.089   1.071   3.706
 1250HOH     H1 3955   3.133   1.154   3.727
 1250HOH     H2 3956   3.032   1.092   3.633
 1251HOH      O 3957   0.621   2.109   0.365
 1251HOH     H1 3958   0.698   2.052   0.359
 1251HOH     H2 3959   0.641   2.182   0.306
 1252HOH      O 3960   2.753   0.909   3.992
 1252HOH     H1 3961   2.658   0.908   3.979
 1252HOH     H2 3962   2.773   0.826   4.035
 1253HOH      O 3963   2.057   3.652   3.678
 1253HOH     H1 3964   2.152   3.646   3.669
 1253HOH     H2 3965   2.043   3.722   3.742
 1254HOH      O 3966   0.626   1.426   0.350
 1254HOH     H1 3967   0.577   1.508   0.357
 1254HOH     H2 3968   0.561   1.358   0.363
 1255HOH      O 3969   3.457   1.560   2.753
 1255HOH     H1 3970   3.381   1.534   2.701
 1255HOH     H2 3971   3.427   1.636   2.803
 1256HOH      O 3972   0.571   2.227   3.797
 1256HOH     H1 3973   0.545   2.142   3.832
 1256HOH     H2 3974   0.616   2.270   3.869
 1257HOH      O 3975   3.865   2.439   3.041
 1257HOH     H1 3976   3.890   2.380   2.970
 1257HOH     H2 3977   3.933   2.428   3.107
 1258HOH      O 3978   3.846   0.972   2.136
 1258HOH     H1 3979   3.913   1.031   2.171
 1258HOH     H2 3980   3.857   0.977   2.041
 1259HOH      O 3981   1.023   3.361   1.335
 1259HOH     H1 3982   1.007   3.456   1.339
 1259HOH     H2 3983   0.952   3.327   1.280
 1260HOH      O 3984   3.871   0.501   1.167
 1260HOH     H1 3985   3.911   0.448   1.098
 1260HOH     H2 3986   3.827   0.572   1.120
 1261HOH      O 3987   3.611   1.432   3.455
 1261HOH     H1 3988   3.539   1.438   3.392
 1261HOH     H2 3989   3.622   1.522   3.487
 1262HOH      O 3990   0.319   2.235   2.584
 1262HOH     H1 3991   0.228   2.208   2.587
 1262HOH     H2 3992   0.318   2.322   2.544
 1263HOH      O 3993   1.424   3.905   3.891
 1263HOH     H1 3994   1.396   3.995   3.908
 1263HOH     H2 3995   1.460   3.908   3.802
 1264HOH      O 3996   1.520   0.343   1.836
 1264HOH     H1 3997   1.453   0.357   1.770
 1264HOH     H2 3998   1.602   0.365   1.793
 1265HOH      O 3999   0.289   3.811   3.525
 1265HOH     H1 4000   0.205   3.839   3.490
 1265HOH     H2 4001   0.344   3.798   3.448
 1266HOH      O 4002   2.659   0.121   2.751
 1266HOH     H1 4003   2.713   0.091   2.678
 1266HOH     H2 4004   2.569   0.098   2.727
 1267HOH      O 4005   1.395   2.568   0.166
 1267HOH     H1 4006   1.402   2.580   0.261
 1267HOH     H2 4007   1.468   2.511   0.144
 1268HOH      O 4008   3.682   3.536   1.561
 1268HOH     H1 4009   3.744   3.607   1.545
 1268HOH     H2 4010   3.596   3.577   1.552
 1269HOH      O 4011   1.554   0.206   3.356
 1269HOH     H1 4012   1.640   0.162   3.356
 1269HOH     H2 4013   1.575   0.299   3.348
 1270HOH      O 4014   2.236   3.183   3.259
 1270HOH     H1 4015   2.176   3.136   3.201
 1270HOH     H2 4016   2.319   3.184   3.210
 1271HOH      O 4017   0.537   0.894   1.710
 1271HOH     H1 4018   0.573   0.962   1.653
 1271HOH     H2 4019   0.449   0.878   1.676
 1272HOH      O 4020   1.716   0.209   3.883
 1272HOH     H1 4021   1.639   0.261   3.860
 1272HOH     H2 4022   1.783   0.234   3.819
 1273HOH      O 4023   3.198   0.433   3.297
 1273HOH     H1 4024   3.292   0.439   3.281
 1273HOH     H2 4025   3.173   0.522   3.323
 1274HOH      O 4026   1.479   2.839   2.627
 1274HOH     H1 4027   1.516   2.823   2.714
 1274HOH     H2 4028   1.385   2.824   2.638
 1275HOH      O 4029   0.362   2.528   1.219
 1275HOH     H1 4030   0.270   2.552   1.233
 1275HOH     H2 4031   0.391   2.584   1.147
 1276HOH      O 4032   3.135   2.981   3.575
 1276HOH     H1 4033   3.181   2.899   3.592
 1276HOH     H2 4034   3.075   2.961   3.504
 1277HOH      O 4035   1.123   1.141   3.261
 1277HOH     H1 4036   1.174   1.220   3.246
 1277HOH     H2 4037   1.122   1.131   3.356
 1278HOH      O 4038   1.004   3.270   2.366
 1278HOH     H1 4039   1.057   3.194   2.343
 1278HOH     H2 4040   1.013   3.329   2.291
 1279HOH      O 4041   3.176   1.246   2.303
 1279HOH     H1 4042   3.127   1.228   2.223
 1279HOH     H2 4043   3.246   1.180   2.303
 1280HOH      O 4044   2.913   0.144   3.328
 1280HOH     H1 4045   2.887   0.077   3.266
 1280HOH     H2 4046   2.852   0.135   3.401
 1281HOH      O 4047   3.452   2.374   1.714
 1281HOH     H1 4048   3.474   2.452   1.665
 1281HOH     H2 4049   3.358   2.380   1.729
 1282HOH      O 4050   0.283   2.319   3.773
 1282HOH     H1 4051   0.276   2.345   3.865
 1282HOH     H2 4052   0.377   2.311   3.758
 1283HOH      O 4053   3.528   1.649   3.186
 1283HOH     H1 4054   3.518   1.555   3.172
 1283HOH     H2 4055   3.558   1.658   3.276
 1284HOH      O 4056   2.055   3.556   1.369
 1284HOH     H1 4057   2.128   3.495   1.382
 1284HOH     H2 4058   2.083   3.610   1.296
 1285HOH      O 4059   2.187   1.656   1.644
 1285HOH     H1 4060   2.162   1.743   1.677
 1285HOH     H2 4061   2.214   1.608   1.723
 1286HOH      O 4062   2.999   0.175   2.635
 1286HOH     H1 4063   3.094   0.178   2.639
 1286HOH     H2 4064   2.973   0.122   2.710
 1287HOH      O 4065   1.714   2.466   3.434
 1287HOH     H1 4066   1.719   2.518   3.514
 1287HOH     H2 4067   1.683   2.527   3.368
 1288HOH      O 4068   2.051   3.357   0.461
 1288HOH     H1 4069   2.119   3.423   0.475
 1288HOH     H2 4070   2.093   3.274   0.483
 1289HOH      O 4071   2.643   3.565   3.775
 1289HOH     H1 4072   2.670   3.561   3.683
 1289HOH     H2 4073   2.575   3.632   3.777
 1290HOH      O 4074   3.542   2.908   3.988
 1290HOH     H1 4075   3.550   2.857   3.907
 1290HOH     H2 4076   3.558   2.998   3.960
 1291HOH      O 4077   1.092   0.334   3.632
 1291HOH     H1 4078   1.093   0.240   3.618
 1291HOH     H2 4079   0.999   0.357   3.635
 1292HOH      O 4080   0.937   0.077   2.222
 1292HOH     H1 4081   0.944   0.056   2.129
 1292HOH     H2 4082   1.022   0.114   2.245
 1293HOH      O 4083   2.847   3.745   2.479
 1293HOH     H1 4084   2.911   3.798   2.432
 1293HOH     H2 4085   2.864   3.655   2.450
 1294HOH      O 4086   0.449   3.168   3.443
 1294HOH     H1 4087   0.358   3.187   3.466
 1294HOH     H2 4088   0.446   3.080   3.406
 1295HOH      O 4089   1.334   0.442   3.587
 1295HOH     H1 4090   1.239   0.435   3.599
 1295HOH     H2 4091   1.345   0.513   3.525
 1296HOH      O 4092   0.820   2.390   0.513
 1296HOH     H1 4093   0.827   2.339   0.432
 1296HOH     H2 4094   0.857   2.476   0.491
 1297HOH      O 4095   2.227   2.736   2.277
 1297HOH     H1 4096   2.178   2.816   2.259
 1297HOH     H2 4097   2.291   2.761   2.343
 1298HOH      O 4098   1.739   3.718   0.337
 1298HOH     H1 4099   1.679   3.700   0.409
 1298HOH     H2 4100   1.732   3.642   0.280
 1299HOH      O 4101   3.280   2.062   1.638
 1299HOH     H1 4102   3.358   2.087   1.589
 1299HOH     H2 4103   3.239   2.145   1.662
 1300HOH      O 4104   0.257   0.795   3.252
 1300HOH     H1 4105   0.174   0.817   3.293
 1300HOH     H2 4106   0.233   0.756   3.168
 1301HOH      O 4107   1.032   2.585   3.615
 1301HOH     H1 4108   1.012   2.676   3.595
 1301HOH     H2 4109   1.121   2.587   3.651
 1302HOH      O 4110   0.469   0.794   1.376
 1302HOH     H1 4111   0.379   0.815   1.400
 1302HOH     H2 4112   0.500   0.737   1.447
 1303HOH      O 4113   1.677   3.891   3.158
 1303HOH     H1 4114   1.653   3.888   3.065
 1303HOH     H2 4115   1.594   3.881   3.204
 1304HOH      O 4116   1.275   2.052   1.215
 1304HOH     H1 4117   1.188   2.045   1.176
 1304HOH     H2 4118   1.277   2.139   1.254
 1305HOH      O 4119   3.115   0.598   0.412
 1305HOH     H1 4120   3.066   0.521   0.383
 1305HOH     H2 4121   3.051   0.651   0.459
 1306HOH      O 4122   3.725   1.173   1.069
 1306HOH     H1 4123   3.810   1.156   1.109
 1306HOH     H2 4124   3.688   1.087   1.052
 1307HOH      O 4125   1.574   3.660   3.930
 1307HOH     H1 4126   1.531   3.746   3.925
 1307HOH     H2 4127   1.639   3.662   3.859
 1308HOH      O 4128   1.617   2.146   3.150
 1308HOH     H1 4129   1.665   2.067   3.125
 1308HOH     H2 4130   1.608   2.195   3.068
 1309HOH      O 4131   2.722   0.917   2.984
 1309HOH     H1 4132   2.689   0.827   2.983
 1309HOH     H2 4133   2.651   0.968   3.024
 1310HOH      O 4134   3.199   1.426   3.050
 1310HOH     H1 4135   3.129   1.491   3.061
 1310HOH     H2 4136   3.280   1.475   3.063
 1311HOH      O 4137   1.645   2.008   2.820
 1311HOH     H1 4138   1.557   2.022   2.786
 1311HOH     H2 4139   1.664   2.087   2.871
 1312HOH      O 4140   2.735   1.165   3.898
 1312HOH     H1 4141   2.747   1.072   3.914
 1312HOH     H2 4142   2.640   1.177   3.890
 1313HOH      O 4143   3.079   1.527   0.551
 1313HOH     H1 4144   3.162   1.514   0.506
 1313HOH     H2 4145   3.092   1.487   0.637
 1314HOH      O 4146   1.777   3.215   3.405
 1314HOH     H1 4147   1.751   3.128   3.433
 1314HOH     H2 4148   1.867   3.225   3.436
 1315HOH      O 4149   2.824   1.922   0.834
 1315HOH     H1 4150   2.801   1.839   0.877
 1315HOH     H2 4151   2.821   1.987   0.904
 1316HOH      O 4152   2.880   3.207   0.890
 1316HOH     H1 4153   2.905   3.297   0.871
 1316HOH     H2 4154   2.834   3.177   0.812
 1317HOH      O 4155   0.930   1.036   1.996
 1317HOH     H1 4156   0.888   0.957   1.964
 1317HOH     H2 4157   0.887   1.107   1.949
 1318HOH      O 4158   3.681   0.684   0.001
 1318HOH     H1 4159   3.671   0.600   0.044
 1318HOH     H2 4160   3.774   0.690  -0.022
 1319HOH      O 4161   1.383   0.946   2.655
 1319HOH     H1 4162   1.474   0.923   2.676
 1319HOH     H2 4163   1.367   1.026   2.704
 1320HOH      O 4164   0.392   3.635   0.303
 1320HOH     H1 4165   0.440   3.711   0.335
 1320HOH     H2 4166   0.301   3.651   0.328
 1321HOH      O 4167   1.157   3.136   0.983
 1321HOH     H1 4168   1.064   3.148   1.005
 1321HOH     H2 4169   1.202   3.204   1.034
 1322HOH      O 4170   3.171   0.780   4.028
 1322HOH     H1 4171   3.252   0.823   4.001
 1322HOH     H2 4172   3.104   0.848   4.019
 1323HOH      O 4173   1.887   2.412   2.554
 1323HOH     H1 4174   1.894   2.506   2.536
 1323HOH     H2 4175   1.793   2.396   2.562
 1324HOH      O 4176   3.990   0.775   1.201
 1324HOH     H1 4177   3.983   0.802   1.110
 1324HOH     H2 4178   3.987   0.680   1.199
 1325HOH      O 4179   3.294   2.340   0.758
 1325HOH     H1 4180   3.365   2.384   0.712
 1325HOH     H2 4181   3.320   2.248   0.760
 1326HOH      O 4182   0.456   2.290   3.242
 1326HOH     H1 4183   0.549   2.298   3.221
 1326HOH     H2 4184   0.424   2.219   3.186
 1327HOH      O 4185   1.251   0.666   0.968
 1327HOH     H1 4186   1.204   0.583   0.966
 1327HOH     H2 4187   1.182   0.733   0.970
 1328HOH      O 4188   0.436   1.231   2.861
 1328HOH     H1 4189   0.523   1.195   2.880
 1328HOH     H2 4190   0.419   1.291   2.934
 1329HOH      O 4191   2.433   3.389   3.711
 1329HOH     H1 4192   2.521   3.403   3.745
 1329HOH     H2 4193   2.446   3.332   3.635
 1330HOH      O 4194   3.507   3.669   2.313
 1330HOH     H1 4195   3.579   3.611   2.289
 1330HOH     H2 4196   3.439   3.611   2.347
 1331HOH      O 4197   1.093   3.674   1.370
 1331HOH     H1 4198   1.075   3.665   1.277
 1331HOH     H2 4199   1.147   3.753   1.377
 1332HOH      O 4200   0.853   2.920   2.116
 1332HOH     H1 4201   0.926   2.858   2.109
 1332HOH     H2 4202   0.889   3.003   2.085
 1333HOH      O 4203   3.834   0.912   3.818
 1333HOH     H1 4204   3.828   0.922   3.913
 1333HOH     H2 4205   3.765   0.970   3.784
 1334HOH      O 4206   0.332   1.453   1.980
 1334HOH     H1 4207   0.289   1.418   1.902
 1334HOH     H2 4208   0.305   1.544   1.984
 1335HOH      O 4209   0.940   2.638   2.047
 1335HOH     H1 4210   1.015   2.648   2.105
 1335HOH     H2 4211   0.974   2.658   1.960
 1336HOH      O 4212   2.308   0.147   2.842
 1336HOH     H1 4213   2.368   0.088   2.887
 1336HOH     H2 4214   2.227   0.142   2.892
 1337HOH      O 4215   1.640   0.184   3.046
 1337HOH     H1 4216   1.585   0.106   3.054
 1337HOH     H2 4217   1.579   0.258   3.054
 1338HOH      O 4218   2.864   4.025   1.568
 1338HOH     H1 4219   2.779   4.061   1.544
 1338HOH     H2 4220   2.893   3.976   1.491
 1339HOH      O 4221   0.925   1.945   3.204
 1339HOH     H1 4222   0.886   1.995   3.275
 1339HOH     H2 4223   0.907   1.997   3.126
 1340HOH      O 4224   0.357   2.346   1.733
 1340HOH     H1 4225   0.299   2.272   1.714
 1340HOH     H2 4226   0.343   2.365   1.825
 1341HOH      O 4227   3.241   1.122   3.221
 1341HOH     H1 4228   3.276   1.152   3.137
 1341HOH     H2 4229   3.159   1.077   3.199
 1342HOH      O 4230   2.677   0.296   2.273
 1342HOH     H1 4231   2.652   0.203   2.269
 1342HOH     H2 4232   2.754   0.297   2.329
 1343HOH      O 4233   2.030   3.930   3.779
 1343HOH     H1 4234   2.028   4.021   3.747
 1343HOH     H2 4235   1.946   3.918   3.823
 1344HOH      O 4236   1.691   3.331   0.673
 1344HOH     H1 4237   1.748   3.399   0.708
 1344HOH     H2 4238   1.732   3.249   0.700
 1345HOH      O 4239   0.172   3.997   2.444
 1345HOH     H1 4240   0.173   4.087   2.476
 1345HOH     H2 4241   0.161   3.944   2.523
 1346HOH      O 4242   3.185   2.097   1.028
 1346HOH     H1 4243   3.222   2.070   1.112
 1346HOH     H2 4244   3.186   2.018   0.975
 1347HOH      O 4245   1.035   2.405   0.298
 1347HOH     H1 4246   1.100   2.425   0.365
 1347HOH     H2 4247   1.021   2.488   0.253
 1348HOH      O 4248   3.181   1.828   1.856
 1348HOH     H1 4249   3.221   1.779   1.784
 1348HOH     H2 4250   3.087   1.817   1.844
 1349HOH      O 4251   1.792   1.064   0.702
 1349HOH     H1 4252   1.849   1.027   0.769
 1349HOH     H2 4253   1.808   1.011   0.625
 1350HOH      O 4254   2.090   0.753   1.739
 1350HOH     H1 4255   2.021   0.687   1.744
 1350HOH     H2 4256   2.169   0.708   1.769
 1351HOH      O 4257   3.932   3.254   2.476
 1351HOH     H1 4258   3.943   3.188   2.544
 1351HOH     H2 4259   3.865   3.217   2.417
 1352HOH      O 4260   3.271   1.413   0.142
 1352HOH     H1 4261   3.231   1.326   0.145
 1352HOH     H2 4262   3.205   1.468   0.099
 1353HOH      O 4263   3.720   3.526   2.905
 1353HOH     H1 4264   3.675   3.499   2.985
 1353HOH     H2 4265   3.737   3.444   2.858
 1354HOH      O 4266   0.568   3.708   2.508
 1354HOH     H1 4267   0.545   3.644   2.575
 1354HOH     H2 4268   0.583   3.656   2.429
 1355HOH      O 4269   3.112   2.967   2.821
 1355HOH     H1 4270   3.120   2.936   2.911
 1355HOH     H2 4271   3.186   3.027   2.810
 1356HOH      O 4272   1.042   3.991   3.624
 1356HOH     H1 4273   1.020   3.903   3.594
 1356HOH     H2 4274   1.131   3.983   3.660
 1357HOH      O 4275   1.131   3.067   2.652
 1357HOH     H1 4276   1.131   3.097   2.561
 1357HOH     H2 4277   1.042   3.085   2.683
 1358HOH      O 4278   1.057   3.335   0.050
 1358HOH     H1 4279   1.077   3.280  -0.026
 1358HOH     H2 4280   1.033   3.272   0.119
 1359HOH      O 4281   2.254   1.434   3.432
 1359HOH     H1 4282   2.297   1.358   3.393
 1359HOH     H2 4283   2.234   1.406   3.522
 1360HOH      O 4284   2.498   3.013   0.788
 1360HOH     H1 4285   2.587   3.009   0.755
 1360HOH     H2 4286   2.447   3.050   0.715
 1361HOH      O 4287   1.465   2.451   1.909
 1361HOH     H1 4288   1.426   2.503   1.979
 1361HOH     H2 4289   1.425   2.365   1.919
 1362HOH      O 4290   2.648   2.662   0.988
 1362HOH     H1 4291   2.656   2.662   0.893
 1362HOH     H2 4292   2.670   2.752   1.013
 1363HOH      O 4293   4.056   1.061   0.792
 1363HOH     H1 4294   4.034   1.054   0.699
 1363HOH     H2 4295   4.007   1.137   0.823
 1364HOH      O 4296   2.996   3.561   1.496
 1364HOH     H1 4297   2.949   3.500   1.440
 1364HOH     H2 4298   3.025   3.508   1.570
 1365HOH      O 4299   0.633   1.677   3.378
 1365HOH     H1 4300   0.704   1.680   3.442
 1365HOH     H2 4301   0.567   1.619   3.418
 1366HOH      O 4302   3.998   3.383   3.722
 1366HOH     H1 4303   4.076   3.373   3.776
 1366HOH     H2 4304   3.964   3.470   3.744
 1367HOH      O 4305   3.286   1.387   3.425
 1367HOH     H1 4306   3.327   1.438   3.495
 1367HOH     H2 4307   3.195   1.414   3.426
 1368HOH      O 4308   3.209   1.308   3.740
 1368HOH     H1 4309   3.278   1.373   3.727
 1368HOH     H2 4310   3.138   1.357   3.782
 1369HOH      O 4311   3.141   3.350   2.586
 1369HOH     H1 4312   3.074   3.301   2.538
 1369HOH     H2 4313   3.186   3.283   2.638
 1370HOH      O 4314   2.167   2.682   2.903
 1370HOH     H1 4315   2.222   2.750   2.864
 1370HOH     H2 4316   2.136   2.630   2.829
 1371HOH      O 4317   3.404   2.649   2.911
 1371HOH     H1 4318   3.313   2.619   2.912
 1371HOH     H2 4319   3.455   2.569   2.924
 1372HOH      O 4320   0.881   0.836   0.525
 1372HOH     H1 4321   0.873   0.744   0.549
 1372HOH     H2 4322   0.966   0.863   0.560
 1373HOH      O 4323   0.189   1.465   3.635
 1373HOH     H1 4324   0.159   1.546   3.594
 1373HOH     H2 4325   0.189   1.484   3.729
 1374HOH      O 4326   0.855   0.758   0.887
 1374HOH     H1 4327   0.907   0.799   0.956
 1374HOH     H2 4328   0.778   0.723   0.932
 1375HOH      O 4329   3.961   3.207   3.014
 1375HOH     H1 4330   3.992   3.126   3.054
 1375HOH     H2 4331   3.957   3.269   3.086
 1376HOH      O 4332   0.883   0.435   1.253
 1376HOH     H1 4333   0.943   0.382   1.200
 1376HOH     H2 4334   0.796   0.403   1.228
 1377HOH      O 4335   0.428   0.062   1.077
 1377HOH     H1 4336   0.439   0.044   1.171
 1377HOH     H2 4337   0.429  -0.025   1.036
 1378HOH      O 4338   2.549   0.382   3.408
 1378HOH     H1 4339   2.526   0.378   3.315
 1378HOH     H2 4340   2.597   0.301   3.424
 1379HOH      O 4341   3.847   2.484   1.778
 1379HOH     H1 4342   3.810   2.565   1.742
 1379HOH     H2 4343   3.834   2.419   1.709
 1380HOH      O 4344   1.418   1.980   0.802
 1380HOH     H1 4345   1.348   1.940   0.751
 1380HOH     H2 4346   1.474   2.023   0.737
 1381HOH      O 4347   2.232   2.902   3.661
 1381HOH     H1 4348   2.232   2.937   3.750
 1381HOH     H2 4349   2.321   2.871   3.647
 1382HOH      O 4350   1.400   2.157   1.940
 1382HOH     H1 4351   1.411   2.157   2.035
 1382HOH     H2 4352   1.471   2.103   1.907
 1383HOH      O 4353   3.865   2.267   3.481
 1383HOH     H1 4354   3.951   2.263   3.522
 1383HOH     H2 4355   3.847   2.360   3.470
 1384HOH      O 4356   1.046   3.766   3.069
 1384HOH     H1 4357   1.075   3.849   3.107
 1384HOH     H2 4358   0.997   3.792   2.991
 1385HOH      O 4359   1.593   0.603   2.589
 1385HOH     H1 4360   1.591   0.524   2.535
 1385HOH     H2 4361   1.686   0.616   2.608
 1386HOH      O 4362   2.940   3.753   2.793
 1386HOH     H1 4363   2.964   3.703   2.871
 1386HOH     H2 4364   2.988   3.711   2.722
 1387HOH      O 4365   2.760   2.925   0.985
 1387HOH     H1 4366   2.732   2.924   0.893
 1387HOH     H2 4367   2.845   2.969   0.983
 1388HOH      O 4368   2.788   3.941   0.295
 1388HOH     H1 4369   2.846   3.918   0.222
 1388HOH     H2 4370   2.846   3.979   0.361
 1389HOH      O 4371   2.915   2.906   1.621
 1389HOH     H1 4372   2.827   2.924   1.589
 1389HOH     H2 4373   2.973   2.938   1.551
 1390HOH      O 4374   1.340   2.752   3.474
 1390HOH     H1 4375   1.291   2.783   3.550
 1390HOH     H2 4376   1.310   2.661   3.463
 1391HOH      O 4377   3.593   2.203   2.875
 1391HOH     H1 4378   3.574   2.145   2.949
 1391HOH     H2 4379   3.684   2.184   2.852
 1392HOH      O 4380   2.635   2.058   2.508
 1392HOH     H1 4381   2.609   2.001   2.579
 1392HOH     H2 4382   2.585   2.028   2.432
 1393HOH      O 4383   2.185   0.997   1.621
 1393HOH     H1 4384   2.144   0.918   1.657
 1393HOH     H2 4385   2.164   0.995   1.528
 1394HOH      O 4386   0.603   1.115   3.972
 1394HOH     H1 4387   0.513   1.144   3.988
 1394HOH     H2 4388   0.639   1.101   4.060
 1395HOH      O 4389   3.253   2.328   1.130
 1395HOH     H1 4390   3.231   2.261   1.065
 1395HOH     H2 4391   3.186   2.396   1.118
 1396HOH      O 4392   1.071   2.862   1.887
 1396HOH     H1 4393   1.038   2.928   1.948
 1396HOH     H2 4394   1.098   2.912   1.810
 1397HOH      O 4395   2.336   2.087   1.630
 1397HOH     H1 4396   2.290   2.162   1.666
 1397HOH     H2 4397   2.375   2.119   1.549
 1398HOH      O 4398   0.116   0.101   3.522
 1398HOH     H1 4399   0.113   0.192   3.493
 1398HOH     H2 4400   0.156   0.105   3.609
 1399HOH      O 4401   2.875   3.221   1.177
 1399HOH     H1 4402   2.884   3.203   1.084
 1399HOH     H2 4403   2.862   3.316   1.181
 1400HOH      O 4404   1.142   2.175   2.462
 1400HOH     H1 4405   1.215   2.120   2.432
 1400HOH     H2 4406   1.083   2.114   2.506
 1401HOH      O 4407   2.754   1.419   0.727
 1401HOH     H1 4408   2.690   1.406   0.657
 1401HOH     H2 4409   2.703   1.451   0.801
 1402HOH      O 4410   2.023   2.524   1.890
 1402HOH     H1 4411   1.945   2.491   1.935
 1402HOH     H2 4412   2.065   2.582   1.954
 1403HOH      O 4413   1.611   3.538   2.638
 1403HOH     H1 4414   1.705   3.539   2.655
 1403HOH     H2 4415   1.575   3.602   2.700
 1404HOH      O 4416   1.045   3.009   3.006
 1404HOH     H1 4417   1.007   3.045   2.926
 1404HOH     H2 4418   1.043   3.081   3.068
 1405HOH      O 4419   0.867   0.512   2.357
 1405HOH     H1 4420   0.927   0.503   2.431
 1405HOH     H2 4421   0.828   0.425   2.346
 1406HOH      O 4422   1.787   2.265   3.873
 1406HOH     H1 4423   1.864   2.314   3.842
 1406HOH     H2 4424   1.719   2.332   3.884
 1407HOH      O 4425   2.832   1.275   2.575
 1407HOH     H1 4426   2.854   1.187   2.606
 1407HOH     H2 4427   2.737   1.276   2.570
 1408HOH      O 4428   0.872   2.146   3.663
 1408HOH     H1 4429   0.933   2.129   3.735
 1408HOH     H2 4430   0.811   2.211   3.698
 1409HOH      O 4431   1.696   0.187   1.242
 1409HOH     H1 4432   1.649   0.139   1.173
 1409HOH     H2 4433   1.784   0.150   1.240
 1410HOH      O 4434   0.449   1.331   3.669
 1410HOH     H1 4435   0.410   1.260   3.618
 1410HOH     H2 4436   0.383   1.353   3.735
 1411HOH      O 4437   3.285   3.056   1.706
 1411HOH     H1 4438   3.270   2.989   1.773
 1411HOH     H2 4439   3.374   3.086   1.721
 1412HOH      O 4440   3.299   2.061   1.963
 1412HOH     H1 4441   3.213   2.079   2.000
 1412HOH     H2 4442   3.288   1.980   1.914
 1413HOH      O 4443   2.040   2.690   3.679
 1413HOH     H1 4444   2.120   2.739   3.658
 1413HOH     H2 4445   1.975   2.758   3.696
 1414HOH      O 4446   3.586   2.450   3.012
 1414HOH     H1 4447   3.577   2.385   2.942
 1414HOH     H2 4448   3.681   2.461   3.022
 1415HOH      O 4449   3.322   2.413   3.152
 1415HOH     H1 4450   3.394   2.421   3.215
 1415HOH     H2 4451   3.243   2.414   3.206
 1416HOH      O 4452   1.977   3.892   2.564
 1416HOH     H1 4453   2.032   3.958   2.522
 1416HOH     H2 4454   1.909   3.873   2.499
 1417HOH      O 4455   3.866   1.799   1.925
 1417HOH     H1 4456   3.921   1.721   1.913
 1417HOH     H2 4457   3.835   1.821   1.837
 1418HOH      O 4458   3.684   2.693   1.111
 1418HOH     H1 4459   3.722   2.758   1.171
 1418HOH     H2 4460   3.616   2.650   1.163
 1419HOH      O 4461   1.451   3.844   2.219
 1419HOH     H1 4462   1.515   3.906   2.185
 1419HOH     H2 4463   1.501   3.762   2.229
 1420HOH      O 4464   2.453   1.423   2.695
 1420HOH     H1 4465   2.511   1.495   2.719
 1420HOH     H2 4466   2.489   1.347   2.742
 1421HOH      O 4467   3.951   3.786   3.208
 1421HOH     H1 4468   3.860   3.815   3.201
 1421HOH     H2 4469   3.995   3.855   3.258
 1422HOH      O 4470   2.527   1.919   0.106
 1422HOH     H1 4471   2.555   1.831   0.082
 1422HOH     H2 4472   2.605   1.959   0.144
 1423HOH      O 4473   2.670   2.062   0.312
 1423HOH     H1 4474   2.730   2.132   0.337
 1423HOH     H2 4475   2.661   2.009   0.391
 1424HOH      O 4476   2.734   2.121   4.000
 1424HOH     H1 4477   2.760   2.075   3.919
 1424HOH     H2 4478   2.791   2.085   4.067
 1425HOH      O 4479   1.474   0.332   0.988
 1425HOH     H1 4480   1.389   0.290   0.975
 1425HOH     H2 4481   1.461   0.386   1.066
 1426HOH      O 4482   2.497   3.843   0.718
 1426HOH     H1 4483   2.579   3.874   0.680
 1426HOH     H2 4484   2.458   3.789   0.649
 1427HOH      O 4485   0.686   0.722   1.084
 1427HOH     H1 4486   0.736   0.714   1.166
 1427HOH     H2 4487   0.603   0.677   1.102
 1428HOH      O 4488   2.242   1.111   0.112
 1428HOH     H1 4489   2.180   1.154   0.172
 1428HOH     H2 4490   2.314   1.084   0.169
 1429HOH      O 4491   0.667   0.861   3.082
 1429HOH     H1 4492   0.656   0.766   3.077
 1429HOH     H2 4493   0.683   0.888   2.992
 1430HOH      O 4494  -0.012   2.351   2.783
 1430HOH     H1 4495   0.049   2.419   2.812
 1430HOH     H2 4496   0.010   2.274   2.836
 1431HOH      O 4497   2.075   1.660   0.287
 1431HOH     H1 4498   2.158   1.648   0.334
 1431HOH     H2 4499   2.009   1.625   0.346
 1432HOH      O 4500   3.632   3.909   3.153
 1432HOH     H1 4501   3.572   3.854   3.103
 1432HOH     H2 4502   3.611   3.891   3.245
 1433HOH      O 4503   1.233   1.315   1.811
 1433HOH     H1 4504   1.198   1.325   1.722
 1433HOH     H2 4505   1.254   1.405   1.838
 1434HOH      O 4506   1.772   0.063   3.281
 1434HOH     H1 4507   1.812   0.111   3.208
 1434HOH     H2 4508   1.783  -0.029   3.258
 1435HOH      O 4509   3.067   0.045   3.074
 1435HOH     H1 4510   3.047   0.010   2.987
 1435HOH     H2 4511   2.983   0.043   3.120
 1436HOH      O 4512   3.645   2.183   1.627
 1436HOH     H1 4513   3.733   2.210   1.652
 1436HOH     H2 4514   3.587   2.246   1.670
 1437HOH      O 4515   1.790   1.323   2.309
 1437HOH     H1 4516   1.869   1.275   2.283
 1437HOH     H2 4517   1.822   1.410   2.333
 1438HOH      O 4518   0.962   1.487   3.224
 1438HOH     H1 4519   0.928   1.401   3.249
 1438HOH     H2 4520   0.940   1.543   3.297
 1439HOH      O 4521   0.576   2.274   1.934
 1439HOH     H1 4522   0.653   2.327   1.954
 1439HOH     H2 4523   0.503   2.336   1.932
 1440HOH      O 4524   0.743   0.629   0.115
 1440HOH     H1 4525   0.777   0.574   0.045
 1440HOH     H2 4526   0.752   0.576   0.194
 1441HOH      O 4527   2.955   2.906   0.152
 1441HOH     H1 4528   2.969   2.983   0.097
 1441HOH     H2 4529   2.937   2.942   0.239
 1442HOH      O 4530   1.118   0.282   2.626
 1442HOH     H1 4531   1.030   0.281   2.663
 1442HOH     H2 4532   1.158   0.200   2.655
 1443HOH      O 4533   0.306   1.022   2.449
 1443HOH     H1 4534   0.381   0.967   2.470
 1443HOH     H2 4535   0.231   0.962   2.450
 1444HOH      O 4536   2.806   2.474   1.866
 1444HOH     H1 4537   2.891   2.499   1.829
 1444HOH     H2 4538   2.820   2.477   1.961
 1445HOH      O 4539   0.105   2.486   1.321
 1445HOH     H1 4540   0.074   2.455   1.406
 1445HOH     H2 4541   0.098   2.409   1.264
 1446HOH      O 4542   3.313   0.398   2.882
 1446HOH     H1 4543   3.398   0.403   2.926
 1446HOH     H2 4544   3.254   0.364   2.948
 1447HOH      O 4545   3.326   1.046   0.728
 1447HOH     H1 4546   3.367   1.123   0.687
 1447HOH     H2 4547   3.244   1.034   0.679
 1448HOH      O 4548   3.524   3.819   3.390
 1448HOH     H1 4549   3.523   3.730   3.426
 1448HOH     H2 4550   3.442   3.858   3.420
 1449HOH      O 4551   3.844   3.370   3.498
 1449HOH     H1 4552   3.909   3.421   3.450
 1449HOH     H2 4553   3.876   3.367   3.588
 1450HOH      O 4554   1.654   1.610   3.404
 1450HOH     H1 4555   1.591   1.556   3.451
 1450HOH     H2 4556   1.609   1.694   3.391
 1451HOH      O 4557   3.556   0.949   3.076
 1451HOH     H1 4558   3.574   0.936   2.983
 1451HOH     H2 4559   3.541   1.043   3.085
 1452HOH      O 4560   0.470   0.432   1.037
 1452HOH     H1 4561   0.498   0.474   0.956
 1452HOH     H2 4562   0.445   0.505   1.094
 1453HOH      O 4563   3.407   3.757   3.739
 1453HOH     H1 4564   3.466   3.685   3.764
 1453HOH     H2 4565   3.466   3.827   3.710
 1454HOH      O 4566   3.214   3.532   1.712
 1454HOH     H1 4567   3.250   3.591   1.778
 1454HOH     H2 4568   3.205   3.449   1.758
 1455HOH      O 4569   2.541   3.429   2.086
 1455HOH     H1 4570   2.547   3.463   1.996
 1455HOH     H2 4571   2.627   3.391   2.103
 1456HOH      O 4572   0.818   0.836   2.773
 1456HOH     H1 4573   0.865   0.848   2.691
 1456HOH     H2 4574   0.803   0.926   2.805
 1457HOH      O 4575   2.884   1.956   0.105
 1457HOH     H1 4576   2.867   1.960   0.200
 1457HOH     H2 4577   2.969   1.914   0.098
 1458HOH      O 4578   1.641   4.032   2.102
 1458HOH     H1 4579   1.728   4.066   2.127
 1458HOH     H2 4580   1.660   3.962   2.040
 1459HOH      O 4581   1.807   0.518   0.806
 1459HOH     H1 4582   1.750   0.442   0.816
 1459HOH     H2 4583   1.853   0.502   0.723
 1460HOH      O 4584   1.343   2.354   0.466
 1460HOH     H1 4585   1.282   2.421   0.497
 1460HOH     H2 4586   1.428   2.397   0.467
 1461HOH      O 4587   0.843   1.947   0.766
 1461HOH     H1 4588   0.832   1.962   0.859
 1461HOH     H2 4589   0.756   1.923   0.735
 1462HOH      O 4590   2.830   0.903   2.132
 1462HOH     H1 4591   2.878   0.946   2.204
 1462HOH     H2 4592   2.833   0.967   2.061
 1463HOH      O 4593   2.272   0.883   0.999
 1463HOH     H1 4594   2.180   0.908   1.006
 1463HOH     H2 4595   2.270   0.787   0.998
 1464HOH      O 4596   2.578   3.670   3.330
 1464HOH     H1 4597   2.645   3.622   3.378
 1464HOH     H2 4598   2.499   3.662   3.384
 1465HOH      O 4599   1.539   1.358   0.542
 1465HOH     H1 4600   1.504   1.291   0.600
 1465HOH     H2 4601   1.634   1.356   0.557
 1466HOH      O 4602   1.294   2.643   0.990
 1466HOH     H1 4603   1.306   2.560   0.943
 1466HOH     H2 4604   1.263   2.616   1.077
 1467HOH      O 4605   3.373   0.770   0.606
 1467HOH     H1 4606   3.380   0.803   0.516
 1467HOH     H2 4607   3.359   0.849   0.659
 1468HOH      O 4608   3.424   1.911   2.521
 1468HOH     H1 4609   3.353   1.910   2.457
 1468HOH     H2 4610   3.391   1.857   2.593
 1469HOH      O 4611   2.389   3.780   2.919
 1469HOH     H1 4612   2.298   3.767   2.891
 1469HOH     H2 4613   2.439   3.780   2.838
 1470HOH      O 4614   0.977   2.266   3.231
 1470HOH     H1 4615   0.929   2.224   3.302
 1470HOH     H2 4616   0.924   2.250   3.153
 1471HOH      O 4617   3.108   2.595   1.109
 1471HOH     H1 4618   3.077   2.681   1.138
 1471HOH     H2 4619   3.189   2.613   1.061
 1472HOH      O 4620   2.503   1.499   2.056
 1472HOH     H1 4621   2.565   1.495   2.129
 1472HOH     H2 4622   2.545   1.449   1.986
 1473HOH      O 4623   2.752   2.086   1.057
 1473HOH     H1 4624   2.810   2.124   1.123
 1473HOH     H2 4625   2.665   2.117   1.082
 1474HOH      O 4626   1.506   2.455   3.206
 1474HOH     H1 4627   1.473   2.480   3.292
 1474HOH     H2 4628   1.535   2.365   3.216
 1475HOH      O 4629   1.899   2.918   2.681
 1475HOH     H1 4630   1.853   3.001   2.677
 1475HOH     H2 4631   1.878   2.883   2.768
 1476HOH      O 4632   0.494   0.331   1.831
 1476HOH     H1 4633   0.489   0.240   1.801
 1476HOH     H2 4634   0.415   0.343   1.883
 1477HOH      O 4635   1.556   1.921   1.524
 1477HOH     H1 4636   1.557   2.015   1.505
 1477HOH     H2 4637   1.485   1.887   1.470
 1478HOH      O 4638   0.785   1.652   2.417
 1478HOH     H1 4639   0.788   1.605   2.501
 1478HOH     H2 4640   0.876   1.655   2.388
 1479HOH      O 4641   2.542   2.022   2.907
 1479HOH     H1 4642   2.585   2.018   2.992
 1479HOH     H2 4643   2.498   2.107   2.907
 1480HOH      O 4644  -0.003   2.940   2.309
 1480HOH     H1 4645  -0.032   2.997   2.380
 1480HOH     H2 4646   0.092   2.954   2.303
 1481HOH      O 4647   2.269   0.396   3.526
 1481HOH     H1 4648   2.249   0.393   3.433
 1481HOH     H2 4649   2.365   0.399   3.530
 1482HOH      O 4650   0.068   2.265   3.592
 1482HOH     H1 4651   0.115   2.285   3.673
 1482HOH     H2 4652   0.131   2.285   3.523
 1483HOH      O 4653   3.398   1.810   3.586
 1483HOH     H1 4654   3.458   1.782   3.655
 1483HOH     H2 4655   3.409   1.905   3.582
 1484HOH      O 4656   1.389   3.195   2.656
 1484HOH     H1 4657   1.445   3.126   2.693
 1484HOH     H2 4658   1.305   3.152   2.641
 1485HOH      O 4659   0.739   1.957   1.018
 1485HOH     H1 4660   0.760   1.902   1.094
 1485HOH     H2 4661   0.745   2.046   1.051
 1486HOH      O 4662   2.513   3.852   0.107
 1486HOH     H1 4663   2.567   3.776   0.128
 1486HOH     H2 4664   2.563   3.901   0.042
 1487HOH      O 4665   0.201   0.201   0.642
 1487HOH     H1 4666   0.252   0.178   0.719
 1487HOH     H2 4667   0.259   0.182   0.568
 1488HOH      O 4668   2.494   3.682   0.943
 1488HOH     H1 4669   2.537   3.731   0.873
 1488HOH     H2 4670   2.406   3.720   0.948
 1489HOH      O 4671   1.829   1.901   3.465
 1489HOH     H1 4672   1.750   1.954   3.457
 1489HOH     H2 4673   1.828   1.871   3.556
 1490HOH      O 4674   2.553   2.271   0.136
 1490HOH     H1 4675   2.590   2.248   0.051
 1490HOH     H2 4676   2.564   2.191   0.189
 1491HOH      O 4677   0.283   2.362   2.984
 1491HOH     H1 4678   0.346   2.368   2.912
 1491HOH     H2 4679   0.308   2.434   3.042
 1492HOH      O 4680   2.379   0.702   1.736
 1492HOH     H1 4681   2.381   0.758   1.814
 1492HOH     H2 4682   2.411   0.617   1.767
 1493HOH      O 4683   3.610   1.702   0.469
 1493HOH     H1 4684   3.520   1.687   0.440
 1493HOH     H2 4685   3.610   1.791   0.504
 1494HOH      O 4686   2.295   2.059   3.350
 1494HOH     H1 4687   2.359   2.003   3.306
 1494HOH     H2 4688   2.270   2.010   3.429
 1495HOH      O 4689   0.914   0.122   1.559
 1495HOH     H1 4690   0.876   0.209   1.550
 1495HOH     H2 4691   0.995   0.136   1.609
 1496HOH      O 4692   1.267   1.381   3.253
 1496HOH     H1 4693   1.251   1.475   3.256
 1496HOH     H2 4694   1.349   1.372   3.206
 1497HOH      O 4695   3.904   0.490   1.502
 1497HOH     H1 4696   3.996   0.475   1.522
 1497HOH     H2 4697   3.871   0.540   1.577
 1498HOH      O 4698   2.433   1.028   3.098
 1498HOH     H1 4699   2.416   0.943   3.139
 1498HOH     H2 4700   2.397   1.020   3.010
 1499HOH      O 4701   2.001   0.599   3.401
 1499HOH     H1 4702   2.034   0.523   3.352
 1499HOH     H2 4703   2.080   0.645   3.430
 1500HOH      O 4704   0.085   1.686   1.599
 1500HOH     H1 4705   0.056   1.615   1.541
 1500HOH     H2 4706   0.180   1.692   1.585
 1501HOH      O 4707   0.091   3.987   2.925
 1501HOH     H1 4708  -0.002   3.967   2.933
 1501HOH     H2 4709   0.127   3.968   3.012
 1502HOH      O 4710   2.481   1.795   1.572
 1502HOH     H1 4711   2.490   1.886   1.600
 1502HOH     H2 4712   2.392   1.770   1.599
 1503HOH      O 4713   1.758   0.098   1.721
 1503HOH     H1 4714   1.853   0.085   1.732
 1503HOH     H2 4715   1.736   0.044   1.645
 1504HOH      O 4716   2.145   1.706   2.828
 1504HOH     H1 4717   2.106   1.673   2.909
 1504HOH     H2 4718   2.240   1.699   2.843
 1505HOH      O 4719   0.772   0.833   1.892
 1505HOH     H1 4720   0.740   0.880   1.815
 1505HOH     H2 4721   0.744   0.742   1.877
 1506HOH      O 4722   0.470   2.458   0.747
 1506HOH     H1 4723   0.538   2.408   0.703
 1506HOH     H2 4724   0.394   2.400   0.747
 1507HOH      O 4725   1.731   3.557   1.488
 1507HOH     H1 4726   1.792   3.555   1.562
 1507HOH     H2 4727   1.760   3.485   1.432
 1508HOH      O 4728   2.828   0.979   3.292
 1508HOH     H1 4729   2.842   0.965   3.198
 1508HOH     H2 4730   2.742   0.941   3.309
 1509HOH      O 4731   1.063   2.778   0.899
 1509HOH     H1 4732   1.105   2.822   0.825
 1509HOH     H2 4733   1.131   2.722   0.936
 1510HOH      O 4734   0.803   3.819   0.931
 1510HOH     H1 4735   0.799   3.856   1.019
 1510HOH     H2 4736   0.761   3.734   0.938
 1511HOH      O 4737   3.298   2.100   3.091
 1511HOH     H1 4738   3.384   2.056   3.089
 1511HOH     H2 4739   3.316   2.188   3.058
 1512HOH      O 4740   1.077   2.194   0.685
 1512HOH     H1 4741   1.064   2.138   0.608
 1512HOH     H2 4742   1.100   2.134   0.755
 1513HOH      O 4743   1.072   3.228   1.556
 1513HOH     H1 4744   1.078   3.307   1.610
 1513HOH     H2 4745   1.067   3.260   1.466
 1514HOH      O 4746   2.397   1.754   2.934
 1514HOH     H1 4747   2.421   1.792   3.018
 1514HOH     H2 4748   2.463   1.786   2.873
 1515HOH      O 4749   3.927   1.464   2.427
 1515HOH     H1 4750   3.834   1.473   2.447
 1515HOH     H2 4751   3.957   1.394   2.485
 1516HOH      O 4752   0.762   1.494   0.629
 1516HOH     H1 4753   0.716   1.469   0.549
 1516HOH     H2 4754   0.759   1.416   0.684
 1517HOH      O 4755   2.384   1.209   3.283
 1517HOH     H1 4756   2.468   1.201   3.328
 1517HOH     H2 4757   2.388   1.142   3.214
 1518HOH      O 4758   2.092   2.044   1.139
 1518HOH     H1 4759   2.164   2.044   1.202
 1518HOH     H2 4760   2.048   1.960   1.152
 1519HOH      O 4761   1.061  -0.022   3.177
 1519HOH     H1 4762   1.090   0.061   3.216
 1519HOH     H2 4763   0.976  -0.000   3.137
 1520HOH      O 4764   3.694   1.504   1.908
 1520HOH     H1 4765   3.752   1.530   1.836
 1520HOH     H2 4766   3.653   1.585   1.937
 1521HOH      O 4767   1.820   3.285   2.820
 1521HOH     H1 4768   1.754   3.346   2.853
 1521HOH     H2 4769   1.846   3.234   2.897
 1522HOH      O 4770   1.752   0.193   0.110
 1522HOH     H1 4771   1.663   0.160   0.104
 1522HOH     H2 4772   1.774   0.221   0.021
 1523HOH      O 4773   0.038   1.964   3.202
 1523HOH     H1 4774   0.035   1.894   3.137
 1523HOH     H2 4775  -0.046   1.958   3.248
 1524HOH      O 4776   2.750   0.502   1.302
 1524HOH     H1 4777   2.818   0.504   1.235
 1524HOH     H2 4778   2.799   0.503   1.385
 1525HOH      O 4779   2.416   1.815   0.929
 1525HOH     H1 4780   2.382   1.783   1.012
 1525HOH     H2 4781   2.416   1.910   0.937
 1526HOH      O 4782   0.225   3.039   0.971
 1526HOH     H1 4783   0.319   3.024   0.963
 1526HOH     H2 4784   0.202   3.087   0.892
 1527HOH      O 4785   2.234   1.601   0.026
 1527HOH     H1 4786   2.243   1.530   0.090
 1527HOH     H2 4787   2.141   1.605   0.008
 1528HOH      O 4788   1.456   3.431   0.711
 1528HOH     H1 4789   1.542   3.389   0.699
 1528HOH     H2 4790   1.467   3.485   0.790
 1529HOH      O 4791   2.399   0.596   1.086
 1529HOH     H1 4792   2.422   0.516   1.038
 1529HOH     H2 4793   2.354   0.565   1.164
 1530HOH      O 4794   1.037   1.482   0.947
 1530HOH     H1 4795   1.003   1.569   0.930
 1530HOH     H2 4796   1.048   1.443   0.860
 1531HOH      O 4797   1.862   0.922   3.062
 1531HOH     H1 4798   1.769   0.914   3.041
 1531HOH     H2 4799   1.870   0.887   3.150
 1532HOH      O 4800   2.133   3.099   0.536
 1532HOH     H1 4801   2.077   3.051   0.597
 1532HOH     H2 4802   2.218   3.104   0.580
 1533HOH      O 4803   2.766   1.982   1.724
 1533HOH     H1 4804   2.756   2.018   1.812
 1533HOH     H2 4805   2.833   2.035   1.683
 1534HOH      O 4806   3.876   2.373   0.880
 1534HOH     H1 4807   3.797   2.350   0.928
 1534HOH     H2 4808   3.895   2.463   0.905
 1535HOH      O 4809   1.177   3.892   0.506
 1535HOH     H1 4810   1.235   3.829   0.548
 1535HOH     H2 4811   1.159   3.957   0.574
 1536HOH      O 4812   3.009   1.617   2.586
 1536HOH     H1 4813   2.966   1.697   2.555
 1536HOH     H2 4814   2.994   1.554   2.516
 1537HOH      O 4815   2.008   3.755   0.462
 1537HOH     H1 4816   1.925   3.721   0.428
 1537HOH     H2 4817   1.990   3.847   0.482
 1538HOH      O 4818   2.645   3.449   1.527
 1538HOH     H1 4819   2.594   3.445   1.446
 1538HOH     H2 4820   2.719   3.390   1.511
 1539HOH      O 4821   2.065   2.115   0.375
 1539HOH     H1 4822   2.048   2.137   0.467
 1539HOH     H2 4823   2.118   2.188   0.342
 1540HOH      O 4824   2.906   0.379   2.034
 1540HOH     H1 4825   2.959   0.317   2.084
 1540HOH     H2 4826   2.849   0.420   2.098
 1541HOH      O 4827   2.209   1.987   2.665
 1541HOH     H1 4828   2.141   1.981   2.733
 1541HOH     H2 4829   2.218   2.080   2.648
 1542HOH      O 4830   2.660   2.289   3.768
 1542HOH     H1 4831   2.754   2.291   3.786
 1542HOH     H2 4832   2.625   2.365   3.814
 1543HOH      O 4833   1.623   0.917   2.074
 1543HOH     H1 4834   1.653   0.867   2.150
 1543HOH     H2 4835   1.667   1.002   2.082
 1544HOH      O 4836   2.108   0.587   2.665
 1544HOH     H1 4837   2.144   0.519   2.721
 1544HOH     H2 4838   2.167   0.590   2.590
 1545HOH      O 4839   0.081   1.278   3.451
 1545HOH     H1 4840   0.106   1.345   3.515
 1545HOH     H2 4841   0.106   1.196   3.492
 1546HOH      O 4842   0.701   0.414   3.903
 1546HOH     H1 4843   0.650   0.337   3.879
 1546HOH     H2 4844   0.769   0.380   3.961
 1547HOH      O 4845   3.335   0.935   3.740
 1547HOH     H1 4846   3.384   0.976   3.811
 1547HOH     H2 4847   3.257   0.989   3.730
 1548HOH      O 4848   0.028   2.644   3.419
 1548HOH     H1 4849   0.008   2.731   3.383
 1548HOH     H2 4850   0.015   2.653   3.513
 1549HOH      O 4851   3.684   0.685   1.068
 1549HOH     H1 4852   3.625   0.611   1.080
 1549HOH     H2 4853   3.668   0.741   1.144
 1550HOH      O 4854   1.057   2.855   3.652
 1550HOH     H1 4855   1.046   2.833   3.745
 1550HOH     H2 4856   1.116   2.930   3.651
 1551HOH      O 4857   0.404   1.137   1.841
 1551HOH     H1 4858   0.403   1.233   1.837
 1551HOH     H2 4859   0.430   1.110   1.753
 1552HOH      O 4860   0.873   1.288   0.199
 1552HOH     H1 4861   0.825   1.307   0.280
 1552HOH     H2 4862   0.840   1.351   0.135
 1553HOH      O 4863   1.381   0.656   1.759
 1553HOH     H1 4864   1.307   0.606   1.792
 1553HOH     H2 4865   1.427   0.687   1.837
 1554HOH      O 4866   2.813   3.891   0.834
 1554HOH     H1 4867   2.778   3.895   0.745
 1554HOH     H2 4868   2.897   3.936   0.829
 1555HOH      O 4869   3.235   1.157   1.238
 1555HOH     H1 4870   3.292   1.142   1.163
 1555HOH     H2 4871   3.148   1.171   1.201
 1556HOH      O 4872   1.902   0.421   0.504
 1556HOH     H1 4873   1.980   0.427   0.559
 1556HOH     H2 4874   1.935   0.437   0.415
 1557HOH      O 4875   3.394   1.719   1.098
 1557HOH     H1 4876   3.390   1.682   1.186
 1557HOH     H2 4877   3.316   1.774   1.091
 1558HOH      O 4878   3.919   2.706   3.969
 1558HOH     H1 4879   3.893   2.775   4.030
 1558HOH     H2 4880   3.842   2.650   3.962
 1559HOH      O 4881   3.626   2.196   2.112
 1559HOH     H1 4882   3.629   2.266   2.046
 1559HOH     H2 4883   3.719   2.178   2.131
 1560HOH      O 4884   0.473   2.897   3.365
 1560HOH     H1 4885   0.406   2.868   3.303
 1560HOH     H2 4886   0.455   2.846   3.444
 1561HOH      O 4887   3.402   0.061   1.722
 1561HOH     H1 4888   3.474  -0.001   1.736
 1561HOH     H2 4889   3.382   0.053   1.628
 1562HOH      O 4890   3.022   1.326   0.771
 1562HOH     H1 4891   2.934   1.345   0.740
 1562HOH     H2 4892   3.028   1.230   0.771
 1563HOH      O 4893   0.144   1.022   1.080
 1563HOH     H1 4894   0.104   0.955   1.025
 1563HOH     H2 4895   0.235   1.025   1.053
 1564HOH      O 4896   3.289   1.425   2.569
 1564HOH     H1 4897   3.232   1.487   2.523
 1564HOH     H2 4898   3.230   1.354   2.597
 1565HOH      O 4899   2.014   0.196   0.177
 1565HOH     H1 4900   2.052   0.200   0.089
 1565HOH     H2 4901   1.930   0.241   0.169
 1566HOH      O 4902   0.652   1.530   2.863
 1566HOH     H1 4903   0.678   1.489   2.945
 1566HOH     H2 4904   0.675   1.623   2.875
 1567HOH      O 4905   0.999   1.863   1.739
 1567HOH     H1 4906   0.951   1.830   1.815
 1567HOH     H2 4907   0.987   1.958   1.742
 1568HOH      O 4908   0.795   0.364   1.499
 1568HOH     H1 4909   0.703   0.365   1.473
 1568HOH     H2 4910   0.843   0.384   1.418
 1569HOH      O 4911   3.133   0.318   3.057
 1569HOH     H1 4912   3.110   0.226   3.074
 1569HOH     H2 4913   3.165   0.351   3.141
 1570HOH      O 4914   0.433   1.219   2.171
 1570HOH     H1 4915   0.454   1.270   2.093
 1570HOH     H2 4916   0.517   1.202   2.212
 1571HOH      O 4917  -0.006   0.192   1.314
 1571HOH     H1 4918  -0.040   0.233   1.235
 1571HOH     H2 4919   0.089   0.189   1.301
 1572HOH      O 4920   0.139   1.609   3.888
 1572HOH     H1 4921   0.052   1.639   3.860
 1572HOH     H2 4922   0.190   1.689   3.898
 1573HOH      O 4923   4.019   3.986   1.792
 1573HOH     H1 4924   3.962   3.992   1.716
 1573HOH     H2 4925   3.981   3.916   1.846
 1574HOH      O 4926   1.352   0.404   2.042
 1574HOH     H1 4927   1.398   0.416   1.959
 1574HOH     H2 4928   1.411   0.348   2.094
 1575HOH      O 4929   3.497   3.417   2.016
 1575HOH     H1 4930   3.439   3.342   2.026
 1575HOH     H2 4931   3.440   3.489   1.988
 1576HOH      O 4932   3.050   0.544   3.896
 1576HOH     H1 4933   3.034   0.462   3.942
 1576HOH     H2 4934   3.110   0.593   3.952
 1577HOH      O 4935   0.127   2.409   2.143
 1577HOH     H1 4936   0.102   2.491   2.101
 1577HOH     H2 4937   0.079   2.407   2.225
 1578HOH      O 4938   0.960   3.478   3.665
 1578HOH     H1 4939   0.938   3.430   3.745
 1578HOH     H2 4940   1.042   3.523   3.686
 1579HOH      O 4941   2.620   0.730   0.429
 1579HOH     H1 4942   2.664   0.793   0.372
 1579HOH     H2 4943   2.599   0.780   0.508
 1580HOH      O 4944   1.170   3.636   0.358
 1580HOH     H1 4945   1.127   3.619   0.274
 1580HOH     H2 4946   1.149   3.727   0.378
 1581HOH      O 4947   1.053   3.385   3.426
 1581HOH     H1 4948   1.010   3.431   3.498
 1581HOH     H2 4949   1.026   3.434   3.348
 1582HOH      O 4950   1.808   2.923   3.924
 1582HOH     H1 4951   1.809   2.930   3.829
 1582HOH     H2 4952   1.755   2.998   3.953
 1583HOH      O 4953   0.707   2.041   1.300
 1583HOH     H1 4954   0.635   2.088   1.343
 1583HOH     H2 4955   0.739   1.980   1.366
 1584HOH      O 4956   3.931   0.487   2.001
 1584HOH     H1 4957   3.956   0.431   1.928
 1584HOH     H2 4958   3.841   0.513   1.981
 1585HOH      O 4959   2.070   2.358   3.200
 1585HOH     H1 4960   2.022   2.285   3.238
 1585HOH     H2 4961   2.089   2.416   3.274
 1586HOH      O 4962   2.397   0.248   2.614
 1586HOH     H1 4963   2.421   0.163   2.578
 1586HOH     H2 4964   2.357   0.228   2.699
 1587HOH      O 4965   2.993   2.981   2.543
 1587HOH     H1 4966   3.028   2.957   2.629
 1587HOH     H2 4967   2.926   2.915   2.525
 1588HOH      O 4968   2.812   2.281   0.385
 1588HOH     H1 4969   2.857   2.305   0.304
 1588HOH     H2 4970   2.840   2.347   0.449
 1589HOH      O 4971   3.346   1.466   0.404
 1589HOH     H1 4972   3.336   1.438   0.313
 1589HOH     H2 4973   3.394   1.549   0.398
 1590HOH      O 4974   2.682   0.720   0.770
 1590HOH     H1 4975   2.698   0.639   0.819
 1590HOH     H2 4976   2.589   0.715   0.747
 1591HOH      O 4977   3.143   2.531   2.960
 1591HOH     H1 4978   3.196   2.474   3.016
 1591HOH     H2 4979   3.140   2.485   2.876
 1592HOH      O 4980   3.819   0.959   1.345
 1592HOH     H1 4981   3.838   1.037   1.292
 1592HOH     H2 4982   3.886   0.896   1.319
 1593HOH      O 4983   1.329   2.049   3.043
 1593HOH     H1 4984   1.267   2.113   3.007
 1593HOH     H2 4985   1.345   2.080   3.132
 1594HOH      O 4986   0.874   1.892   0.009
 1594HOH     H1 4987   0.924   1.826   0.058
 1594HOH     H2 4988   0.789   1.850  -0.007
 1595HOH      O 4989   2.536   0.527   3.638
 1595HOH     H1 4990   2.587   0.552   3.715
 1595HOH     H2 4991   2.596   0.477   3.583
 1596HOH      O 4992   1.185   1.612   1.309
 1596HOH     H1 4993   1.104   1.562   1.297
 1596HOH     H2 4994   1.250   1.546   1.335
 1597HOH      O 4995   2.582   3.165   0.386
 1597HOH     H1 4996   2.616   3.124   0.465
 1597HOH     H2 4997   2.660   3.194   0.338
 1598HOH      O 4998   2.934   4.039   2.824
 1598HOH     H1 4999   2.851   4.063   2.864
 1598HOH     H2 5000   2.925   3.945   2.805
 1599HOH      O 5001   1.878   3.613   2.722
 1599HOH     H1 5002   1.947   3.677   2.740
 1599HOH     H2 5003   1.869   3.563   2.803
 1600HOH      O 5004   1.910   2.698   3.389
 1600HOH     H1 5005   1.925   2.645   3.468
 1600HOH     H2 5006   1.980   2.671   3.329
 1601HOH      O 5007   1.050   3.518   3.169
 1601HOH     H1 5008   0.959   3.491   3.176
 1601HOH     H2 5009   1.047   3.611   3.145
 1602HOH      O 5010   0.903   0.314   2.005
 1602HOH     H1 5011   0.869   0.242   1.952
 1602HOH     H2 5012   0.830   0.340   2.061
 1603HOH      O 5013   2.077   1.508   1.319
 1603HOH     H1 5014   2.030   1.575   1.368
 1603HOH     H2 5015   2.128   1.461   1.384
 1604HOH      O 5016   0.696   2.853   3.695
 1604HOH     H1 5017   0.689   2.947   3.682
 1604HOH     H2 5018   0.725   2.819   3.610
 1605HOH      O 5019   3.114   2.311   1.409
 1605HOH     H1 5020   3.141   2.339   1.496
 1605HOH     H2 5021   3.192   2.270   1.372
 1606HOH      O 5022   0.299   0.294   2.022
 1606HOH     H1 5023   0.220   0.275   1.970
 1606HOH     H2 5024   0.328   0.209   2.054
 1607HOH      O 5025   0.914   0.356   0.021
 1607HOH     H1 5026   0.922   0.261   0.027
 1607HOH     H2 5027   0.998   0.385  -0.015
 1608HOH      O 5028   1.615   2.049   0.599
 1608HOH     H1 5029   1.620   2.023   0.507
 1608HOH     H2 5030   1.705   2.043   0.631
 1609HOH      O 5031   1.228   0.425   1.447
 1609HOH     H1 5032   1.167   0.391   1.382
 1609HOH     H2 5033   1.267   0.346   1.487
 1610HOH      O 5034   2.188   0.633   0.892
 1610HOH     H1 5035   2.229   0.552   0.864
 1610HOH     H2 5036   2.164   0.618   0.984
 1611HOH      O 5037   3.887   0.273   3.496
 1611HOH     H1 5038   3.879   0.364   3.468
 1611HOH     H2 5039   3.854   0.222   3.423
 1612HOH      O 5040   2.108   2.561   1.648
 1612HOH     H1 5041   2.071   2.538   1.733
 1612HOH     H2 5042   2.040   2.611   1.605
 1613HOH      O 5043   1.686   0.372   2.485
 1613HOH     H1 5044   1.678   0.296   2.543
 1613HOH     H2 5045   1.710   0.335   2.400
 1614HOH      O 5046   0.118   1.912   2.763
 1614HOH     H1 5047   0.093   1.991   2.715
 1614HOH     H2 5048   0.119   1.844   2.696
 1615HOH      O 5049   2.663   3.061   2.921
 1615HOH     H1 5050   2.646   3.009   2.842
 1615HOH     H2 5051   2.724   3.129   2.892
 1616HOH      O 5052   2.467   0.354   1.522
 1616HOH     H1 5053   2.521   0.356   1.443
 1616HOH     H2 5054   2.418   0.436   1.519
 1617HOH      O 5055   3.652   2.597   2.530
 1617HOH     H1 5056   3.592   2.524   2.547
 1617HOH     H2 5057   3.672   2.591   2.437
 1618HOH      O 5058   1.939   0.942   0.896
 1618HOH     H1 5059   1.995   1.013   0.928
 1618HOH     H2 5060   1.910   0.898   0.976
 1619HOH      O 5061   3.295   0.572   1.147
 1619HOH     H1 5062   3.279   0.647   1.204
 1619HOH     H2 5063   3.337   0.508   1.204
 1620HOH      O 5064   1.527   1.722   2.628
 1620HOH     H1 5065   1.595   1.655   2.634
 1620HOH     H2 5066   1.546   1.770   2.547
 1621HOH      O 5067   0.394   1.010   3.390
 1621HOH     H1 5068   0.448   1.039   3.317
 1621HOH     H2 5069   0.345   0.935   3.357
 1622HOH      O 5070   2.579   3.963   3.897
 1622HOH     H1 5071   2.665   3.931   3.870
 1622HOH     H2 5072   2.518   3.921   3.836
 1623HOH      O 5073   1.016   1.405   1.246
 1623HOH     H1 5074   0.976   1.407   1.159
 1623HOH     H2 5075   0.980   1.326   1.286
 1624HOH      O 5076   3.738   1.274   0.574
 1624HOH     H1 5077   3.786   1.237   0.648
 1624HOH     H2 5078   3.790   1.249   0.497
 1625HOH      O 5079   0.545   1.356   3.365
 1625HOH     H1 5080   0.454   1.356   3.394
 1625HOH     H2 5081   0.594   1.318   3.438
 1626HOH      O 5082   3.712   2.993   2.781
 1626HOH     H1 5083   3.670   2.924   2.729
 1626HOH     H2 5084   3.804   2.989   2.755
 1627HOH      O 5085   2.056   1.396   1.081
 1627HOH     H1 5086   2.074   1.439   1.164
 1627HOH     H2 5087   1.971   1.430   1.053
 1628HOH      O 5088   1.868   0.616   1.786
 1628HOH     H1 5089   1.854   0.692   1.841
 1628HOH     H2 5090   1.805   0.625   1.715
 1629HOH      O 5091   0.306   3.343   3.828
 1629HOH     H1 5092   0.234   3.364   3.888
 1629HOH     H2 5093   0.315   3.248   3.834
 1630HOH      O 5094   3.474   2.481   0.603
 1630HOH     H1 5095   3.510   2.548   0.660
 1630HOH     H2 5096   3.548   2.454   0.547
 1631HOH      O 5097   0.244   0.533   0.262
 1631HOH     H1 5098   0.331   0.499   0.283
 1631HOH     H2 5099   0.209   0.564   0.346
 1632HOH      O 5100   1.309   3.110   3.929
 1632HOH     H1 5101   1.342   3.199   3.943
 1632HOH     H2 5102   1.298   3.104   3.835
 1633HOH      O 5103   1.333   1.344   2.486
 1633HOH     H1 5104   1.300   1.260   2.452
 1633HOH     H2 5105   1.405   1.320   2.543
 1634HOH      O 5106   3.610   1.186   3.888
 1634HOH     H1 5107   3.697   1.221   3.871
 1634HOH     H2 5108   3.566   1.254   3.939
 1635HOH      O 5109   0.193   0.347   2.810
 1635HOH     H1 5110   0.189   0.252   2.825
 1635HOH     H2 5111   0.231   0.382   2.891
 1636HOH      O 5112   1.774   2.079   2.428
 1636HOH     H1 5113   1.838   2.103   2.361
 1636HOH     H2 5114   1.743   2.163   2.461
 1637HOH      O 5115   3.454   3.560   0.816
 1637HOH     H1 5116   3.479   3.602   0.899
 1637HOH     H2 5117   3.359   3.567   0.814
 1638HOH      O 5118   2.681   1.767   1.008
 1638HOH     H1 5119   2.619   1.810   0.949
 1638HOH     H2 5120   2.667   1.811   1.093
 1639HOH      O 5121   1.563   2.350   0.063
 1639HOH     H1 5122   1.485   2.299   0.039
 1639HOH     H2 5123   1.632   2.284   0.071
 1640HOH      O 5124   3.434   2.662   0.097
 1640HOH     H1 5125   3.400   2.729   0.037
 1640HOH     H2 5126   3.357   2.635   0.147
 1641HOH      O 5127   1.065   2.018   2.110
 1641HOH     H1 5128   1.103   1.931   2.097
 1641HOH     H2 5129   1.061   2.028   2.205
 1642HOH      O 5130   0.007   1.604   1.864
 1642HOH     H1 5131   0.047   1.641   1.785
 1642HOH     H2 5132   0.068   1.628   1.934
 1643HOH      O 5133   3.203   1.919   2.918
 1643HOH     H1 5134   3.252   1.843   2.949
 1643HOH     H2 5135   3.226   1.989   2.978
 1644HOH      O 5136   1.417   1.936   0.214
 1644HOH     H1 5137   1.391   1.905   0.127
 1644HOH     H2 5138   1.344   1.990   0.243
 1645HOH      O 5139   0.720   1.102   2.811
 1645HOH     H1 5140   0.783   1.173   2.823
 1645HOH     H2 5141   0.662   1.132   2.741
 1646HOH      O 5142   2.975   0.435   1.767
 1646HOH     H1 5143   2.893   0.398   1.733
 1646HOH     H2 5144   2.962   0.439   1.862
 1647HOH      O 5145   2.200   1.383   2.596
 1647HOH     H1 5146   2.274   1.387   2.657
 1647HOH     H2 5147   2.140   1.320   2.635
 1648HOH      O 5148   1.423   0.045   2.377
 1648HOH     H1 5149   1.448   0.045   2.470
 1648HOH     H2 5150   1.446  -0.043   2.347
 1649HOH      O 5151   0.496   2.713   0.830
 1649HOH     H1 5152   0.592   2.719   0.828
 1649HOH     H2 5153   0.477   2.624   0.801
 1650HOH      O 5154   3.612   0.906   2.800
 1650HOH     H1 5155   3.692   0.951   2.772
 1650HOH     H2 5156   3.618   0.820   2.759
 1651HOH      O 5157   0.974   1.726   3.769
 1651HOH     H1 5158   0.999   1.634   3.777
 1651HOH     H2 5159   1.008   1.752   3.683
 1652HOH      O 5160   3.977   3.511   3.287
 1652HOH     H1 5161   3.979   3.607   3.276
 1652HOH     H2 5162   4.061   3.482   3.251
 1653HOH      O 5163   1.631   0.753   0.297
 1653HOH     H1 5164   1.642   0.684   0.362
 1653HOH     H2 5165   1.703   0.739   0.235
 1654HOH      O 5166   1.732   0.997   0.070
 1654HOH     H1 5167   1.776   1.052   0.134
 1654HOH     H2 5168   1.773   0.911   0.079
 1655HOH      O 5169   3.616   2.679   3.191
 1655HOH     H1 5170   3.615   2.608   3.127
 1655HOH     H2 5171   3.542   2.735   3.165
 1656HOH      O 5172   1.216   3.025   1.702
 1656HOH     H1 5173   1.180   3.109   1.674
 1656HOH     H2 5174   1.224   2.974   1.621
 1657HOH      O 5175   0.335   1.617   1.584
 1657HOH     H1 5176   0.356   1.692   1.528
 1657HOH     H2 5177   0.397   1.623   1.656
 1658HOH      O 5178   0.534   2.168   0.639
 1658HOH     H1 5179   0.610   2.194   0.692
 1658HOH     H2 5180   0.571   2.141   0.555
 1659HOH      O 5181   3.831   3.936   2.270
 1659HOH     H1 5182   3.785   3.991   2.333
 1659HOH     H2 5183   3.781   3.945   2.189
 1660HOH      O 5184   3.032   3.455   3.817
 1660HOH     H1 5185   3.068   3.384   3.764
 1660HOH     H2 5186   3.108   3.498   3.856
 1661HOH      O 5187   3.514   0.992   0.477
 1661HOH     H1 5188   3.576   0.976   0.549
 1661HOH     H2 5189   3.473   1.076   0.499
 1662HOH      O 5190   2.225   3.580   0.364
 1662HOH     H1 5191   2.156   3.637   0.397
 1662HOH     H2 5192   2.195   3.552   0.278
 1663HOH      O 5193   1.545   0.831   3.781
 1663HOH     H1 5194   1.591   0.902   3.736
 1663HOH     H2 5195   1.460   0.825   3.736
 1664HOH      O 5196   0.694   3.086   2.634
 1664HOH     H1 5197   0.615   3.036   2.651
 1664HOH     H2 5198   0.732   3.047   2.555
 1665HOH      O 5199   0.840   1.650   1.382
 1665HOH     H1 5200   0.808   1.593   1.312
 1665HOH     H2 5201   0.848   1.592   1.458
 1666HOH      O 5202   1.372   0.129   3.908
 1666HOH     H1 5203   1.376   0.225   3.911
 1666HOH     H2 5204   1.366   0.108   3.815
 1667HOH      O 5205   0.559   3.370   3.941
 1667HOH     H1 5206   0.516   3.428   4.004
 1667HOH     H2 5207   0.490   3.344   3.881
 1668HOH      O 5208   2.655   4.003   1.879
 1668HOH     H1 5209   2.700   3.924   1.849
 1668HOH     H2 5210   2.590   4.021   1.811
 1669HOH      O 5211   1.425   3.685   3.575
 1669HOH     H1 5212   1.445   3.649   3.489
 1669HOH     H2 5213   1.505   3.731   3.601
 1670HOH      O 5214   3.482   0.655   1.716
 1670HOH     H1 5215   3.513   0.564   1.710
 1670HOH     H2 5216   3.548   0.706   1.671
 1671HOH      O 5217   1.617   2.564   3.930
 1671HOH     H1 5218   1.570   2.644   3.954
 1671HOH     H2 5219   1.590   2.500   3.996
 1672HOH      O 5220   1.511   2.847   3.253
 1672HOH     H1 5221   1.481   2.802   3.332
 1672HOH     H2 5222   1.443   2.912   3.234
 1673HOH      O 5223   0.749   3.679   4.002
 1673HOH     H1 5224   0.808   3.742   4.043
 1673HOH     H2 5225   0.742   3.608   4.065
 1674HOH      O 5226   2.695   3.924   1.093
 1674HOH     H1 5227   2.730   3.897   1.008
 1674HOH     H2 5228   2.771   3.921   1.152
 1675HOH      O 5229   2.079   1.296   0.363
 1675HOH     H1 5230   2.159   1.333   0.326
 1675HOH     H2 5231   2.094   1.295   0.457
 1676HOH      O 5232   0.885   2.907   3.459
 1676HOH     H1 5233   0.883   3.003   3.460
 1676HOH     H2 5234   0.937   2.883   3.536
 1677HOH      O 5235   0.472   2.994   2.799
 1677HOH     H1 5236   0.530   2.921   2.823
 1677HOH     H2 5237   0.458   3.040   2.881
 1678HOH      O 5238   3.666   3.862   3.916
 1678HOH     H1 5239   3.669   3.770   3.887
 1678HOH     H2 5240   3.615   3.860   3.997
 1679HOH      O 5241   3.132   1.814   0.507
 1679HOH     H1 5242   3.112   1.870   0.582
 1679HOH     H2 5243   3.084   1.733   0.525
 1680HOH      O 5244   0.790   3.458   3.271
 1680HOH     H1 5245   0.730   3.499   3.208
 1680HOH     H2 5246   0.732   3.410   3.331
 1681HOH      O 5247   1.394   1.580   0.603
 1681HOH     H1 5248   1.454   1.511   0.575
 1681HOH     H2 5249   1.371   1.557   0.693
 1682HOH      O 5250   1.143   1.751   4.001
 1682HOH     H1 5251   1.082   1.704   4.058
 1682HOH     H2 5252   1.087   1.797   3.939
 1683HOH      O 5253   3.608   0.628   2.223
 1683HOH     H1 5254   3.619   0.645   2.317
 1683HOH     H2 5255   3.513   0.632   2.209
 1684HOH      O 5256   1.775   1.316   2.825
 1684HOH     H1 5257   1.850   1.277   2.871
 1684HOH     H2 5258   1.744   1.385   2.883
 1685HOH      O 5259   0.764   1.036   3.749
 1685HOH     H1 5260   0.820   0.963   3.779
 1685HOH     H2 5261   0.701   1.048   3.820
 1686HOH      O 5262   0.654   2.280   3.011
 1686HOH     H1 5263   0.587   2.286   2.943
 1686HOH     H2 5264   0.685   2.190   3.007
 1687HOH      O 5265   0.420   3.482   1.958
 1687HOH     H1 5266   0.416   3.407   2.018
 1687HOH     H2 5267   0.439   3.557   2.014
 1688HOH      O 5268   2.361   2.293   0.742
 1688HOH     H1 5269   2.402   2.356   0.802
 1688HOH     H2 5270   2.311   2.235   0.799
 1689HOH      O 5271   0.475   1.664   1.797
 1689HOH     H1 5272   0.563   1.697   1.778
 1689HOH     H2 5273   0.490   1.589   1.855
 1690HOH      O 5274   0.406   1.645   0.726
 1690HOH     H1 5275   0.344   1.686   0.665
 1690HOH     H2 5276   0.373   1.555   0.735
 1691HOH      O 5277   2.785   3.460   1.136
 1691HOH     H1 5278   2.785   3.491   1.045
 1691HOH     H2 5279   2.698   3.480   1.169
 1692HOH      O 5280   2.470   0.013   2.483
 1692HOH     H1 5281   2.554  -0.015   2.449
 1692HOH     H2 5282   2.414   0.020   2.406
 1693HOH      O 5283   1.044   2.126   1.841
 1693HOH     H1 5284   1.037   2.116   1.936
 1693HOH     H2 5285   1.137   2.114   1.822
 1694HOH      O 5286   0.265   3.136   0.095
 1694HOH     H1 5287   0.278   3.160   0.187
 1694HOH     H2 5288   0.171   3.123   0.087
 1695HOH      O 5289   2.600   2.637   3.169
 1695HOH     H1 5290   2.533   2.572   3.144
 1695HOH     H2 5291   2.555   2.695   3.230
 1696HOH      O 5292   0.175   3.361   3.519
 1696HOH     H1 5293   0.132   3.371   3.603
 1696HOH     H2 5294   0.248   3.423   3.523
 1697HOH      O 5295   3.859   1.859   2.859
 1697HOH     H1 5296   3.952   1.841   2.852
 1697HOH     H2 5297   3.825   1.843   2.771
 1698HOH      O 5298   1.788   3.987   3.880
 1698HOH     H1 5299   1.834   3.964   3.961
 1698HOH     H2 5300   1.753   4.074   3.896
 1699HOH      O 5301   3.115   0.736   2.933
 1699HOH     H1 5302   3.171   0.737   3.010
 1699HOH     H2 5303   3.063   0.656   2.942
 1700HOH      O 5304   3.444   2.596   1.195
 1700HOH     H1 5305   3.405   2.555   1.118
 1700HOH     H2 5306   3.370   2.615   1.252
 1701HOH      O 5307   0.616   0.904   0.859
 1701HOH     H1 5308   0.696   0.855   0.878
 1701HOH     H2 5309   0.616   0.914   0.764
 1702HOH      O 5310   1.838   0.794   2.250
 1702HOH     H1 5311   1.910   0.809   2.189
 1702HOH     H2 5312   1.880   0.784   2.335
 1703HOH      O 5313   2.805   2.555   2.873
 1703HOH     H1 5314   2.790   2.466   2.906
 1703HOH     H2 5315   2.719   2.584   2.844
 1704HOH      O 5316   2.200   2.974   2.599
 1704HOH     H1 5317   2.105   2.977   2.602
 1704HOH     H2 5318   2.227   3.066   2.592
 1705HOH      O 5319   0.917   0.590   0.668
 1705HOH     H1 5320   0.917   0.623   0.758
 1705HOH     H2 5321   0.903   0.496   0.677
 1706HOH      O 5322   0.220   1.997   3.425
 1706HOH     H1 5323   0.159   1.956   3.363
 1706HOH     H2 5324   0.193   2.089   3.428
 1707HOH      O 5325   2.452   2.463   3.621
 1707HOH     H1 5326   2.387   2.395   3.635
 1707HOH     H2 5327   2.502   2.466   3.702
 1708HOH      O 5328   0.632   3.796   3.403
 1708HOH     H1 5329   0.668   3.723   3.453
 1708HOH     H2 5330   0.701   3.862   3.403
 1709HOH      O 5331   3.156   0.315   1.522
 1709HOH     H1 5332   3.129   0.235   1.566
 1709HOH     H2 5333   3.117   0.385   1.574
 1710HOH      O 5334   1.254   2.949   0.737
 1710HOH     H1 5335   1.305   2.928   0.658
 1710HOH     H2 5336   1.282   3.038   0.760
 1711HOH      O 5337   0.448   0.312   3.640
 1711HOH     H1 5338   0.372   0.362   3.667
 1711HOH     H2 5339   0.416   0.222   3.631
 1712HOH      O 5340   4.001   1.603   1.153
 1712HOH     H1 5341   3.915   1.607   1.112
 1712HOH     H2 5342   4.062   1.592   1.081
 1713HOH      O 5343   0.130   0.658   3.569
 1713HOH     H1 5344   0.092   0.689   3.487
 1713HOH     H2 5345   0.059   0.666   3.633
 1714HOH      O 5346   2.714   0.440   0.827
 1714HOH     H1 5347   2.698   0.399   0.742
 1714HOH     H2 5348   2.652   0.397   0.886
 1715HOH      O 5349   1.041   1.103   0.065
 1715HOH     H1 5350   1.123   1.132   0.104
 1715HOH     H2 5351   0.975   1.162   0.101
 1716HOH      O 5352   3.077   1.871   1.450
 1716HOH     H1 5353   3.083   1.778   1.472
 1716HOH     H2 5354   3.163   1.893   1.416
 1717HOH      O 5355   0.948   0.434   3.209
 1717HOH     H1 5356   0.974   0.517   3.168
 1717HOH     H2 5357   0.857   0.422   3.184
 1718HOH      O 5358   4.003   0.584   2.460
 1718HOH     H1 5359   4.055   0.653   2.418
 1718HOH     H2 5360   3.976   0.527   2.387
 1719HOH      O 5361   0.073   2.187   3.013
 1719HOH     H1 5362   0.070   2.190   3.108
 1719HOH     H2 5363   0.165   2.208   2.992
 1720HOH      O 5364   3.061   3.095   3.818
 1720HOH     H1 5365   3.150   3.114   3.847
 1720HOH     H2 5366   3.072   3.047   3.736
 1721HOH      O 5367   3.296   0.458   3.650
 1721HOH     H1 5368   3.316   0.392   3.716
 1721HOH     H2 5369   3.308   0.542   3.694
 1722HOH      O 5370   3.148   1.786   1.023
 1722HOH     H1 5371   3.088   1.824   1.088
 1722HOH     H2 5372   3.115   1.697   1.010
 1723HOH      O 5373   3.305   3.507   3.642
 1723HOH     H1 5374   3.339   3.564   3.711
 1723HOH     H2 5375   3.340   3.544   3.561
 1724HOH      O 5376   0.580   0.560   0.815
 1724HOH     H1 5377   0.621   0.628   0.762
 1724HOH     H2 5378   0.499   0.539   0.769
 1725HOH      O 5379   2.528   3.409   2.565
 1725HOH     H1 5380   2.579   3.446   2.638
 1725HOH     H2 5381   2.562   3.453   2.487
 1726HOH      O 5382   0.065   2.924   2.851
 1726HOH     H1 5383   0.099   2.835   2.841
 1726HOH     H2 5384   0.045   2.932   2.944
 1727HOH      O 5385   2.712   2.581   0.117
 1727HOH     H1 5386   2.650   2.611   0.184
 1727HOH     H2 5387   2.724   2.657   0.060
 1728HOH      O 5388   2.516   2.480   1.583
 1728HOH     H1 5389   2.453   2.514   1.646
 1728HOH     H2 5390   2.580   2.550   1.571
 1729HOH      O 5391   2.343   2.702   1.438
 1729HOH     H1 5392   2.269   2.653   1.402
 1729HOH     H2 5393   2.416   2.640   1.435
 1730HOH      O 5394   3.712   1.459   1.068
 1730HOH     H1 5395   3.746   1.503   0.990
 1730HOH     H2 5396   3.686   1.372   1.038
 1731HOH      O 5397   1.490   1.873   3.310
 1731HOH     H1 5398   1.563   1.841   3.257
 1731HOH     H2 5399   1.412   1.842   3.264
 1732HOH      O 5400   1.280   1.575   2.360
 1732HOH     H1 5401   1.303   1.487   2.389
 1732HOH     H2 5402   1.218   1.607   2.426
 1733HOH      O 5403   1.355   1.603   3.988
 1733HOH     H1 5404   1.269   1.642   4.004
 1733HOH     H2 5405   1.417   1.675   4.002
 1734HOH      O 5406   2.514   2.484   0.338
 1734HOH     H1 5407   2.545   2.439   0.260
 1734HOH     H2 5408   2.455   2.422   0.380
 1735HOH      O 5409   2.315   1.822   0.518
 1735HOH     H1 5410   2.305   1.893   0.582
 1735HOH     H2 5411   2.323   1.743   0.572
 1736HOH      O 5412   2.259   2.407   2.223
 1736HOH     H1 5413   2.226   2.494   2.244
 1736HOH     H2 5414   2.349   2.407   2.255
 1737HOH      O 5415   2.302   0.578   3.923
 1737HOH     H1 5416   2.254   0.550   3.845
 1737HOH     H2 5417   2.242   0.635   3.970
 1738HOH      O 5418   1.566   2.664   3.057
 1738HOH     H1 5419   1.552   2.580   3.101
 1738HOH     H2 5420   1.551   2.729   3.124
 1739HOH      O 5421   2.164   0.421   0.637
 1739HOH     H1 5422   2.165   0.343   0.581
 1739HOH     H2 5423   2.209   0.488   0.586
 1740HOH      O 5424   2.532   0.440   1.799
 1740HOH     H1 5425   2.484   0.423   1.719
 1740HOH     H2 5426   2.595   0.368   1.805
 1741HOH      O 5427   2.888   3.892   3.227
 1741HOH     H1 5428   2.945   3.821   3.197
 1741HOH     H2 5429   2.867   3.869   3.318
 1742HOH      O 5430   3.587   1.992   0.576
 1742HOH     H1 5431   3.668   2.033   0.604
 1742HOH     H2 5432   3.524   2.063   0.570
 1743HOH      O 5433   1.575   1.684   0.388
 1743HOH     H1 5434   1.550   1.700   0.479
 1743HOH     H2 5435   1.542   1.760   0.340
 1744HOH      O 5436   2.108   3.497   0.856
 1744HOH     H1 5437   2.070   3.437   0.920
 1744HOH     H2 5438   2.199   3.470   0.848
 1745HOH      O 5439   2.083   3.806   3.117
 1745HOH     H1 5440   2.127   3.799   3.201
 1745HOH     H2 5441   2.000   3.760   3.130
 1746HOH      O 5442   1.698   3.480   3.419
 1746HOH     H1 5443   1.767   3.545   3.404
 1746HOH     H2 5444   1.745   3.397   3.421
 1747HOH      O 5445   1.694   2.700   0.204
 1747HOH     H1 5446   1.782   2.673   0.229
 1747HOH     H2 5447   1.702   2.725   0.112
 1748HOH      O 5448   1.055   3.232   3.160
 1748HOH     H1 5449   1.100   3.209   3.241
 1748HOH     H2 5450   1.074   3.325   3.148
 1749HOH      O 5451   0.040   3.779   1.982
 1749HOH     H1 5452   0.130   3.807   1.967
 1749HOH     H2 5453   0.037   3.758   2.076
 1750HOH      O 5454   0.754   2.540   2.559
 1750HOH     H1 5455   0.747   2.468   2.496
 1750HOH     H2 5456   0.828   2.516   2.615
 1751HOH      O 5457   2.778   3.550   0.874
 1751HOH     H1 5458   2.708   3.540   0.810
 1751HOH     H2 5459   2.824   3.629   0.847
 1752HOH      O 5460   2.342   2.658   3.916
 1752HOH     H1 5461   2.331   2.753   3.910
 1752HOH     H2 5462   2.260   2.627   3.955
 1753HOH      O 5463   3.614   0.505   3.611
 1753HOH     H1 5464   3.652   0.445   3.675
 1753HOH     H2 5465   3.566   0.569   3.664
 1754HOH      O 5466   1.225   0.492   2.773
 1754HOH     H1 5467   1.178   0.417   2.737
 1754HOH     H2 5468   1.157   0.543   2.818
 1755HOH      O 5469   2.525   1.564   0.301
 1755HOH     H1 5470   2.575   1.619   0.361
 1755HOH     H2 5471   2.550   1.595   0.214
 1756HOH      O 5472   1.657   2.285   2.897
 1756HOH     H1 5473   1.741   2.327   2.915
 1756HOH     H2 5474   1.616   2.340   2.831
 1757HOH      O 5475   3.927   1.879   0.736
 1757HOH     H1 5476   3.940   1.974   0.739
 1757HOH     H2 5477   3.833   1.868   0.728
 1758HOH      O 5478   1.556   2.497   1.659
 1758HOH     H1 5479   1.510   2.496   1.743
 1758HOH     H2 5480   1.610   2.418   1.660
 1759HOH      O 5481   1.505   0.675   2.017
 1759HOH     H1 5482   1.561   0.752   2.023
 1759HOH     H2 5483   1.560   0.603   2.048
 1760HOH      O 5484   0.796   3.868   1.191
 1760HOH     H1 5485   0.830   3.896   1.276
 1760HOH     H2 5486   0.723   3.810   1.213
 1761HOH      O 5487   3.136   2.390   3.628
 1761HOH     H1 5488   3.040   2.384   3.625
 1761HOH     H2 5489   3.155   2.409   3.719
 1762HOH      O 5490   0.682   4.006   1.596
 1762HOH     H1 5491   0.764   4.050   1.576
 1762HOH     H2 5492   0.638   3.997   1.511
 1763HOH      O 5493   0.430   2.753   3.787
 1763HOH     H1 5494   0.522   2.775   3.769
 1763HOH     H2 5495   0.399   2.714   3.705
 1764HOH      O 5496   3.397   2.870   3.068
 1764HOH     H1 5497   3.307   2.884   3.098
 1764HOH     H2 5498   3.392   2.794   3.011
 1765HOH      O 5499   0.466   2.971  -0.000
 1765HOH     H1 5500   0.396   3.025   0.035
 1765HOH     H2 5501   0.523   2.954   0.075
 1766HOH      O 5502   1.134   1.103   3.551
 1766HOH     H1 5503   1.067   1.155   3.596
 1766HOH     H2 5504   1.094   1.017   3.537
 1767HOH      O 5505   3.092   1.905   0.767
 1767HOH     H1 5506   2.998   1.925   0.772
 1767HOH     H2 5507   3.110   1.858   0.849
 1768HOH      O 5508   0.497   3.487   0.515
 1768HOH     H1 5509   0.418   3.485   0.569
 1768HOH     H2 5510   0.467   3.524   0.431
 1769HOH      O 5511   3.954   3.661   2.948
 1769HOH     H1 5512   3.867   3.626   2.928
 1769HOH     H2 5513   3.944   3.704   3.033
 1770HOH      O 5514   1.602   2.839   0.425
 1770HOH     H1 5515   1.650   2.804   0.501
 1770HOH     H2 5516   1.626   2.781   0.353
 1771HOH      O 5517   1.651   0.756   0.939
 1771HOH     H1 5518   1.598   0.707   0.876
 1771HOH     H2 5519   1.741   0.737   0.914
 1772HOH      O 5520   3.744   1.683   0.138
 1772HOH     H1 5521   3.708   1.613   0.193
 1772HOH     H2 5522   3.836   1.688   0.163
 1773HOH      O 5523   1.028   0.813   1.083
 1773HOH     H1 5524   1.066   0.897   1.110
 1773HOH     H2 5525   1.000   0.772   1.165
 1774HOH      O 5526   2.201   3.690   1.190
 1774HOH     H1 5527   2.200   3.718   1.099
 1774HOH     H2 5528   2.292   3.667   1.207
 1775HOH      O 5529   1.090   0.855   0.719
 1775HOH     H1 5530   1.088   0.944   0.685
 1775HOH     H2 5531   1.029   0.857   0.793
 1776HOH      O 5532   4.010   1.796   2.389
 1776HOH     H1 5533   4.074   1.725   2.400
 1776HOH     H2 5534   3.943   1.759   2.333
 1777HOH      O 5535   3.394   1.227   1.980
 1777HOH     H1 5536   3.402   1.262   2.069
 1777HOH     H2 5537   3.336   1.290   1.936
 1778HOH      O 5538   0.173   2.166   1.676
 1778HOH     H1 5539   0.111   2.101   1.707
 1778HOH     H2 5540   0.214   2.126   1.599
 1779HOH      O 5541   1.877   1.570   0.448
 1779HOH     H1 5542   1.831   1.486   0.452
 1779HOH     H2 5543   1.876   1.602   0.538
 1780HOH      O 5544   0.388   1.678   2.812
 1780HOH     H1 5545   0.319   1.659   2.749
 1780HOH     H2 5546   0.440   1.598   2.816
 1781HOH      O 5547   3.114   0.423   2.314
 1781HOH     H1 5548   3.037   0.478   2.303
 1781HOH     H2 5549   3.174   0.475   2.365
 1782HOH      O 5550   1.129   1.425   3.486
 1782HOH     H1 5551   1.168   1.434   3.399
 1782HOH     H2 5552   1.053   1.368   3.472
 1783HOH      O 5553   1.035   1.123   0.648
 1783HOH     H1 5554   0.952   1.149   0.688
 1783HOH     H2 5555   1.081   1.205   0.631
 1784HOH      O 5556   4.001   1.589   3.532
 1784HOH     H1 5557   3.944   1.518   3.561
 1784HOH     H2 5558   4.002   1.582   3.437
 1785HOH      O 5559   3.612   2.398   1.930
 1785HOH     H1 5560   3.642   2.489   1.922
 1785HOH     H2 5561   3.556   2.385   1.854
 1786HOH      O 5562   2.489   3.393   0.180
 1786HOH     H1 5563   2.527   3.331   0.242
 1786HOH     H2 5564   2.412   3.348   0.146
 1787HOH      O 5565   2.008   2.205   2.701
 1787HOH     H1 5566   1.944   2.247   2.645
 1787HOH     H2 5567   1.968   2.122   2.725
 1788HOH      O 5568   2.065   3.895   1.967
 1788HOH     H1 5569   2.005   3.836   2.012
 1788HOH     H2 5570   2.111   3.839   1.904
 1789HOH      O 5571   3.817   2.281   2.544
 1789HOH     H1 5572   3.826   2.340   2.619
 1789HOH     H2 5573   3.747   2.221   2.569
 1790HOH      O 5574   2.683   2.732   1.842
 1790HOH     H1 5575   2.703   2.639   1.841
 1790HOH     H2 5576   2.590   2.738   1.824
 1791HOH      O 5577   2.399   1.469   3.007
 1791HOH     H1 5578   2.390   1.564   2.997
 1791HOH     H2 5579   2.460   1.444   2.938
 1792HOH      O 5580   0.219   0.478   2.570
 1792HOH     H1 5581   0.202   0.439   2.656
 1792HOH     H2 5582   0.132   0.488   2.532
 1793HOH      O 5583   3.799   0.633   1.721
 1793HOH     H1 5584   3.744   0.589   1.786
 1793HOH     H2 5585   3.752   0.713   1.699
 1794HOH      O 5586   0.419   1.684   3.720
 1794HOH     H1 5587   0.350   1.665   3.656
 1794HOH     H2 5588   0.487   1.728   3.668
 1795HOH      O 5589   2.707   3.155   1.762
 1795HOH     H1 5590   2.770   3.158   1.690
 1795HOH     H2 5591   2.746   3.207   1.831
 1796HOH      O 5592   2.425   3.806   2.631
 1796HOH     H1 5593   2.346   3.764   2.598
 1796HOH     H2 5594   2.440   3.879   2.572
 1797HOH      O 5595   0.131   1.769   1.319
 1797HOH     H1 5596   0.104   1.712   1.247
 1797HOH     H2 5597   0.049   1.808   1.350
 1798HOH      O 5598   2.511   3.962   0.390
 1798HOH     H1 5599   2.438   4.013   0.354
 1798HOH     H2 5600   2.561   3.934   0.313
 1799HOH      O 5601   0.372   0.582  -0.023
 1799HOH     H1 5602   0.288   0.537  -0.013
 1799HOH     H2 5603   0.423   0.555   0.054
 1800HOH      O 5604   3.950   2.929   1.622
 1800HOH     H1 5605   3.885   2.997   1.642
 1800HOH     H2 5606   4.004   2.969   1.554
 1801HOH      O 5607   2.194   0.792   3.461
 1801HOH     H1 5608   2.138   0.794   3.539
 1801HOH     H2 5609   2.283   0.804   3.496
 1802HOH      O 5610   0.500   0.309   0.639
 1802HOH     H1 5611   0.439   0.382   0.633
 1802HOH     H2 5612   0.464   0.253   0.708
 1803HOH      O 5613   0.367   3.058   3.792
 1803HOH     H1 5614   0.428   3.015   3.852
 1803HOH     H2 5615   0.282   3.021   3.815
 1804HOH      O 5616   1.103   1.759   0.935
 1804HOH     H1 5617   1.095   1.853   0.923
 1804HOH     H2 5618   1.103   1.723   0.847
 1805HOH      O 5619   1.114   2.882   0.356
 1805HOH     H1 5620   1.201   2.865   0.390
 1805HOH     H2 5621   1.083   2.958   0.405
 1806HOH      O 5622   1.486   2.730   2.363
 1806HOH     H1 5623   1.448   2.743   2.450
 1806HOH     H2 5624   1.580   2.742   2.375
 1807HOH      O 5625   2.113   1.652   3.311
 1807HOH     H1 5626   2.026   1.615   3.295
 1807HOH     H2 5627   2.167   1.578   3.339
 1808HOH      O 5628   2.479   3.670   1.231
 1808HOH     H1 5629   2.491   3.576   1.241
 1808HOH     H2 5630   2.491   3.686   1.137
 1809HOH      O 5631   1.230   3.563   2.346
 1809HOH     H1 5632   1.202   3.558   2.438
 1809HOH     H2 5633   1.325   3.563   2.350
 1810HOH      O 5634   1.969   3.490   3.020
 1810HOH     H1 5635   1.968   3.418   3.083
 1810HOH     H2 5636   1.935   3.565   3.069
 1811HOH      O 5637   0.751   3.210   1.910
 1811HOH     H1 5638   0.700   3.201   1.990
 1811HOH     H2 5639   0.723   3.294   1.873
 1812HOH      O 5640   2.840   0.353   3.183
 1812HOH     H1 5641   2.860   0.265   3.215
 1812HOH     H2 5642   2.829   0.405   3.263
 1813HOH      O 5643   2.868   1.574   0.157
 1813HOH     H1 5644   2.852   1.563   0.250
 1813HOH     H2 5645   2.853   1.487   0.119
 1814HOH      O 5646   2.772   2.284   2.976
 1814HOH     H1 5647   2.728   2.202   2.953
 1814HOH     H2 5648   2.794   2.275   3.068
 1815HOH      O 5649   1.206   4.011   2.091
 1815HOH     H1 5650   1.204   4.102   2.063
 1815HOH     H2 5651   1.297   3.983   2.075
 1816HOH      O 5652   0.716   0.874   3.354
 1816HOH     H1 5653   0.723   0.894   3.261
 1816HOH     H2 5654   0.635   0.824   3.361
 1817HOH      O 5655   2.054   2.948   1.138
 1817HOH     H1 5656   1.969   2.931   1.178
 1817HOH     H2 5657   2.041   2.930   1.045
 1818HOH      O 5658   3.652   2.413   0.399
 1818HOH     H1 5659   3.676   2.328   0.436
 1818HOH     H2 5660   3.679   2.408   0.308
 1819HOH      O 5661   3.837   2.743   3.014
 1819HOH     H1 5662   3.752   2.778   3.040
 1819HOH     H2 5663   3.840   2.656   3.054
 1820HOH      O 5664   3.128   2.191   3.906
 1820HOH     H1 5665   3.152   2.099   3.916
 1820HOH     H2 5666   3.160   2.233   3.986
 1821HOH      O 5667   2.083   0.102   1.049
 1821HOH     H1 5668   2.125   0.180   1.085
 1821HOH     H2 5669   2.085   0.114   0.954
 1822HOH      O 5670   1.519   1.174   0.731
 1822HOH     H1 5671   1.460   1.100   0.716
 1822HOH     H2 5672   1.606   1.136   0.733
 1823HOH      O 5673   1.772   1.323   1.446
 1823HOH     H1 5674   1.745   1.245   1.398
 1823HOH     H2 5675   1.730   1.314   1.532
 1824HOH      O 5676   3.295   0.272   3.845
 1824HOH     H1 5677   3.369   0.218   3.876
 1824HOH     H2 5678   3.264   0.316   3.924
 1825HOH      O 5679   0.398   3.888   2.357
 1825HOH     H1 5680   0.320   3.927   2.397
 1825HOH     H2 5681   0.440   3.841   2.429
 1826HOH      O 5682   3.594   2.116   0.263
 1826HOH     H1 5683   3.554   2.181   0.206
 1826HOH     H2 5684   3.571   2.032   0.224
 1827HOH      O 5685   0.392   0.116   0.798
 1827HOH     H1 5686   0.414   0.119   0.891
 1827HOH     H2 5687   0.404   0.024   0.774
 1828HOH      O 5688   2.597   3.568   2.332
 1828HOH     H1 5689   2.578   3.662   2.334
 1828HOH     H2 5690   2.579   3.542   2.242
 1829HOH      O 5691   1.284   2.957   3.165
 1829HOH     H1 5692   1.268   3.041   3.208
 1829HOH     H2 5693   1.204   2.906   3.181
 1830HOH      O 5694   3.764   0.320   3.968
 1830HOH     H1 5695   3.787   0.235   4.005
 1830HOH     H2 5696   3.745   0.302   3.876
 1831HOH      O 5697   1.113   0.438   0.888
 1831HOH     H1 5698   1.162   0.359   0.913
 1831HOH     H2 5699   1.025   0.407   0.868
 1832HOH      O 5700   2.811   0.775   3.597
 1832HOH     H1 5701   2.773   0.705   3.649
 1832HOH     H2 5702   2.905   0.771   3.616
 1833HOH      O 5703   3.132   2.991   1.454
 1833HOH     H1 5704   3.136   3.087   1.452
 1833HOH     H2 5705   3.195   2.966   1.522
 1834HOH      O 5706   1.529   1.353   3.121
 1834HOH     H1 5707   1.564   1.267   3.142
 1834HOH     H2 5708   1.605   1.403   3.092
 1835HOH      O 5709   0.448   2.541   3.113
 1835HOH     H1 5710   0.444   2.465   3.170
 1835HOH     H2 5711   0.530   2.529   3.064
 1836HOH      O 5712   0.648   2.793   2.814
 1836HOH     H1 5713   0.733   2.834   2.802
 1836HOH     H2 5714   0.666   2.715   2.867
 1837HOH      O 5715   0.927   3.371   2.888
 1837HOH     H1 5716   0.833   3.387   2.886
 1837HOH     H2 5717   0.967   3.458   2.886
 1838HOH      O 5718   3.927   3.079   3.713
 1838HOH     H1 5719   3.831   3.087   3.714
 1838HOH     H2 5720   3.957   3.165   3.686
 1839HOH      O 5721   3.427   0.846   2.413
 1839HOH     H1 5722   3.519   0.831   2.433
 1839HOH     H2 5723   3.420   0.940   2.401
 1840HOH      O 5724   0.128   0.413   3.464
 1840HOH     H1 5725   0.034   0.406   3.482
 1840HOH     H2 5726   0.158   0.485   3.521
 1841HOH      O 5727   2.696   1.349   1.241
 1841HOH     H1 5728   2.675   1.258   1.262
 1841HOH     H2 5729   2.616   1.397   1.257
 1842HOH      O 5730   3.159   2.323   2.768
 1842HOH     H1 5731   3.096   2.307   2.697
 1842HOH     H2 5732   3.225   2.255   2.757
 1843HOH      O 5733   2.537   0.574   2.419
 1843HOH     H1 5734   2.561   0.654   2.373
 1843HOH     H2 5735   2.618   0.543   2.459
 1844HOH      O 5736   0.076   2.751   1.750
 1844HOH     H1 5737   0.158   2.797   1.768
 1844HOH     H2 5738   0.020   2.817   1.709
 1845HOH      O 5739   0.677   0.340   3.211
 1845HOH     H1 5740   0.651   0.387   3.289
 1845HOH     H2 5741   0.655   0.248   3.229
 1846HOH      O 5742   2.342   0.299   3.111
 1846HOH     H1 5743   2.425   0.307   3.064
 1846HOH     H2 5744   2.303   0.218   3.078
 1847HOH      O 5745   3.671   1.142   1.559
 1847HOH     H1 5746   3.722   1.173   1.634
 1847HOH     H2 5747   3.720   1.066   1.527
 1848HOH      O 5748   1.878   0.483   4.010
 1848HOH     H1 5749   1.812   0.511   3.947
 1848HOH     H2 5750   1.930   0.418   3.963
 1849HOH      O 5751   1.866   3.705   3.471
 1849HOH     H1 5752   1.916   3.672   3.545
 1849HOH     H2 5753   1.843   3.795   3.496
 1850HOH      O 5754   0.868   3.168   3.423
 1850HOH     H1 5755   0.932   3.239   3.426
 1850HOH     H2 5756   0.828   3.174   3.336
 1851HOH      O 5757   2.891   3.148   2.003
 1851HOH     H1 5758   2.883   3.061   1.965
 1851HOH     H2 5759   2.921   3.203   1.931
 1852HOH      O 5760   0.862   2.888   1.118
 1852HOH     H1 5761   0.831   2.805   1.156
 1852HOH     H2 5762   0.933   2.862   1.060
 1853HOH      O 5763   3.983   0.714   2.880
 1853HOH     H1 5764   3.921   0.751   2.817
 1853HOH     H2 5765   4.018   0.636   2.837
 1854HOH      O 5766   1.334   2.295   3.787
 1854HOH     H1 5767   1.246   2.321   3.760
 1854HOH     H2 5768   1.367   2.241   3.715
 1855HOH      O 5769   2.951   0.735   0.608
 1855HOH     H1 5770   2.986   0.690   0.685
 1855HOH     H2 5771   2.856   0.720   0.612
 1856HOH      O 5772   2.767   0.659   0.134
 1856HOH     H1 5773   2.800   0.591   0.076
 1856HOH     H2 5774   2.721   0.611   0.203
 1857HOH      O 5775   3.563   2.946   3.383
 1857HOH     H1 5776   3.528   2.858   3.399
 1857HOH     H2 5777   3.636   2.932   3.323
 1858HOH      O 5778   2.177   1.354   1.524
 1858HOH     H1 5779   2.165   1.321   1.613
 1858HOH     H2 5780   2.260   1.401   1.526
 1859HOH      O 5781   0.803   1.861   1.554
 1859HOH     H1 5782   0.824   1.803   1.481
 1859HOH     H2 5783   0.883   1.864   1.606
 1860HOH      O 5784   2.866   0.522   1.036
 1860HOH     H1 5785   2.836   0.451   0.979
 1860HOH     H2 5786   2.873   0.598   0.979
 1861HOH      O 5787   3.295   3.159   2.731
 1861HOH     H1 5788   3.337   3.166   2.645
 1861HOH     H2 5789   3.360   3.192   2.793
 1862HOH      O 5790   2.994   3.446   0.295
 1862HOH     H1 5791   3.039   3.415   0.217
 1862HOH     H2 5792   3.064   3.461   0.359
 1863HOH      O 5793   3.830   1.295   2.069
 1863HOH     H1 5794   3.773   1.369   2.047
 1863HOH     H2 5795   3.908   1.308   2.015
 1864HOH      O 5796   0.127   1.483   2.944
 1864HOH     H1 5797   0.129   1.396   2.983
 1864HOH     H2 5798   0.143   1.468   2.851
 1865HOH      O 5799   0.736   0.280   2.279
 1865HOH     H1 5800   0.794   0.208   2.254
 1865HOH     H2 5801   0.670   0.238   2.334
 1866HOH      O 5802   3.722   3.189   2.004
 1866HOH     H1 5803   3.754   3.104   2.036
 1866HOH     H2 5804   3.682   3.168   1.919
 1867HOH      O 5805   3.545   2.154   0.842
 1867HOH     H1 5806   3.545   2.207   0.922
 1867HOH     H2 5807   3.460   2.110   0.843
 1868HOH      O 5808   1.276   3.629   3.001
 1868HOH     H1 5809   1.204   3.691   3.014
 1868HOH     H2 5810   1.248   3.550   3.048
 1869HOH      O 5811   2.354   2.550   2.552
 1869HOH     H1 5812   2.275   2.531   2.601
 1869HOH     H2 5813   2.403   2.467   2.551
 1870HOH      O 5814   2.263   0.656   2.392
 1870HOH     H1 5815   2.331   0.590   2.385
 1870HOH     H2 5816   2.303   0.727   2.443
 1871HOH      O 5817   3.653   0.932   0.950
 1871HOH     H1 5818   3.655   0.849   0.999
 1871HOH     H2 5819   3.661   0.905   0.858
 1872HOH      O 5820   2.897   0.199   1.061
 1872HOH     H1 5821   2.917   0.124   1.117
 1872HOH     H2 5822   2.973   0.257   1.072
 1873HOH      O 5823   1.243   1.865   0.615
 1873HOH     H1 5824   1.201   1.878   0.530
 1873HOH     H2 5825   1.276   1.775   0.611
 1874HOH      O 5826   3.047   2.825   1.239
 1874HOH     H1 5827   2.956   2.855   1.231
 1874HOH     H2 5828   3.086   2.885   1.303
 1875HOH      O 5829   4.058   0.839   3.371
 1875HOH     H1 5830   4.024   0.881   3.451
 1875HOH     H2 5831   3.984   0.840   3.311
 1876HOH      O 5832   1.445   0.876   3.418
 1876HOH     H1 5833   1.513   0.925   3.464
 1876HOH     H2 5834   1.378   0.860   3.485
 1877HOH      O 5835   0.179   3.934   3.171
 1877HOH     H1 5836   0.243   3.868   3.198
 1877HOH     H2 5837   0.127   3.951   3.250
 1878HOH      O 5838   1.103   3.855   2.329
 1878HOH     H1 5839   1.160   3.779   2.339
 1878HOH     H2 5840   1.150   3.913   2.268
 1879HOH      O 5841   2.533   2.209   1.125
 1879HOH     H1 5842   2.563   2.278   1.065
 1879HOH     H2 5843   2.545   2.245   1.212
 1880HOH      O 5844   4.007   2.184   0.731
 1880HOH     H1 5845   3.967   2.245   0.793
 1880HOH     H2 5846   4.099   2.212   0.726
 1881HOH      O 5847   3.973   1.925   0.223
 1881HOH     H1 5848   3.976   1.956   0.133
 1881HOH     H2 5849   3.928   1.994   0.271
 1882HOH      O 5850   1.582   0.871   2.998
 1882HOH     H1 5851   1.513   0.938   2.997
 1882HOH     H2 5852   1.625   0.879   2.913
 1883HOH      O 5853   2.678   3.209   3.910
 1883HOH     H1 5854   2.645   3.148   3.977
 1883HOH     H2 5855   2.701   3.288   3.959
 1884HOH      O 5856   0.746   0.561   2.795
 1884HOH     H1 5857   0.714   0.553   2.885
 1884HOH     H2 5858   0.804   0.636   2.797
 1885HOH      O 5859   0.456   0.564   1.537
 1885HOH     H1 5860   0.460   0.494   1.472
 1885HOH     H2 5861   0.537   0.556   1.587
 1886HOH      O 5862   0.519   3.823   0.477
 1886HOH     H1 5863   0.499   3.860   0.563
 1886HOH     H2 5864   0.615   3.828   0.471
 1887HOH      O 5865   1.165   1.500   0.416
 1887HOH     H1 5866   1.250   1.525   0.451
 1887HOH     H2 5867   1.123   1.583   0.393
 1888HOH      O 5868   0.822   0.832   3.919
 1888HOH     H1 5869   0.773   0.792   3.847
 1888HOH     H2 5870   0.770   0.812   3.997
 1889HOH      O 5871   1.021   2.787   3.926
 1889HOH     H1 5872   1.076   2.853   3.968
 1889HOH     H2 5873   0.933   2.825   3.926
 1890HOH      O 5874   1.092   1.651   2.559
 1890HOH     H1 5875   1.161   1.688   2.612
 1890HOH     H2 5876   1.012   1.666   2.609
 1891HOH      O 5877   0.613   3.130   3.664
 1891HOH     H1 5878   0.534   3.104   3.710
 1891HOH     H2 5879   0.583   3.164   3.580
 1892HOH      O 5880   1.212   0.177   0.962
 1892HOH     H1 5881   1.250   0.127   0.890
 1892HOH     H2 5882   1.131   0.130   0.983
 1893HOH      O 5883   4.027   2.703   3.698
 1893HOH     H1 5884   4.014   2.653   3.779
 1893HOH     H2 5885   4.078   2.780   3.725
 1894HOH      O 5886   3.040   1.001   3.958
 1894HOH     H1 5887   3.053   1.017   3.865
 1894HOH     H2 5888   2.945   1.000   3.970
 1895HOH      O 5889   0.214   3.204   0.355
 1895HOH     H1 5890   0.264   3.155   0.421
 1895HOH     H2 5891   0.213   3.294   0.388
 1896HOH      O 5892   0.274   3.357   1.642
 1896HOH     H1 5893   0.233   3.282   1.687
 1896HOH     H2 5894   0.267   3.429   1.705
 1897HOH      O 5895   1.919   3.227   3.888
 1897HOH     H1 5896   2.013   3.216   3.902
 1897HOH     H2 5897   1.912   3.286   3.812
 1898HOH      O 5898   1.034   1.112   1.563
 1898HOH     H1 5899   1.053   1.063   1.482
 1898HOH     H2 5900   1.073   1.198   1.549
 1899HOH      O 5901   0.863   2.577   0.005
 1899HOH     H1 5902   0.949   2.602   0.039
 1899HOH     H2 5903   0.826   2.658  -0.028
 1900HOH      O 5904   0.072   2.980   3.106
 1900HOH     H1 5905   0.150   2.934   3.136
 1900HOH     H2 5906   0.023   2.998   3.187
 1901HOH      O 5907   0.052   1.310   1.587
 1901HOH     H1 5908   0.057   1.222   1.549
 1901HOH     H2 5909   0.025   1.366   1.514
 1902HOH      O 5910   1.993   0.828   2.022
 1902HOH     H1 5911   2.029   0.801   1.938
 1902HOH     H2 5912   1.978   0.922   2.012
 1903HOH      O 5913   2.225   2.939   1.371
 1903HOH     H1 5914   2.165   2.918   1.300
 1903HOH     H2 5915   2.276   2.859   1.384
 1904HOH      O 5916   1.746   3.323   2.450
 1904HOH     H1 5917   1.738   3.237   2.493
 1904HOH     H2 5918   1.661   3.364   2.462
 1905HOH      O 5919   3.832   0.616   0.531
 1905HOH     H1 5920   3.791   0.680   0.473
 1905HOH     H2 5921   3.768   0.602   0.600
 1906HOH      O 5922   2.869   2.353   0.142
 1906HOH     H1 5923   2.829   2.309   0.066
 1906HOH     H2 5924   2.828   2.440   0.142
 1907HOH      O 5925   0.349   2.782   0.385
 1907HOH     H1 5926   0.265   2.801   0.344
 1907HOH     H2 5927   0.375   2.864   0.426
 1908HOH      O 5928   0.905   3.037   1.687
 1908HOH     H1 5929   0.950   3.092   1.623
 1908HOH     H2 5930   0.835   3.094   1.722
 1909HOH      O 5931   1.621   1.079   3.670
 1909HOH     H1 5932   1.627   1.105   3.762
 1909HOH     H2 5933   1.528   1.083   3.649
 1910HOH      O 5934   1.785   3.341   0.370
 1910HOH     H1 5935   1.873   3.365   0.397
 1910HOH     H2 5936   1.733   3.344   0.450
 1911HOH      O 5937   2.097   0.125   2.071
 1911HOH     H1 5938   2.015   0.154   2.031
 1911HOH     H2 5939   2.116   0.041   2.029
 1912HOH      O 5940   0.186   2.272   3.342
 1912HOH     H1 5941   0.276   2.281   3.312
 1912HOH     H2 5942   0.140   2.344   3.298
 1913HOH      O 5943   1.132   1.369   1.570
 1913HOH     H1 5944   1.154   1.460   1.591
 1913HOH     H2 5945   1.181   1.350   1.490
 1914HOH      O 5946   2.845   0.831   0.300
 1914HOH     H1 5947   2.852   0.768   0.229
 1914HOH     H2 5948   2.925   0.884   0.293
 1915HOH      O 5949   3.872   2.019   3.393
 1915HOH     H1 5950   3.874   2.114   3.399
 1915HOH     H2 5951   3.905   1.989   3.478
 1916HOH      O 5952   3.608   1.241   0.177
 1916HOH     H1 5953   3.539   1.175   0.186
 1916HOH     H2 5954   3.598   1.273   0.087
 1917HOH      O 5955   0.659   1.692   2.152
 1917HOH     H1 5956   0.587   1.751   2.176
 1917HOH     H2 5957   0.711   1.686   2.232
 1918HOH      O 5958   3.244   2.602   3.799
 1918HOH     H1 5959   3.307   2.673   3.789
 1918HOH     H2 5960   3.177   2.637   3.858
 1919HOH      O 5961   2.140   3.368   2.828
 1919HOH     H1 5962   2.059   3.375   2.878
 1919HOH     H2 5963   2.113   3.331   2.744
 1920HOH      O 5964   0.876   2.091   2.987
 1920HOH     H1 5965   0.943   2.160   2.986
 1920HOH     H2 5966   0.876   2.056   2.898
 1921HOH      O 5967   1.610   3.102   1.766
 1921HOH     H1 5968   1.601   3.044   1.690
 1921HOH     H2 5969   1.592   3.046   1.841
 1922HOH      O 5970   2.631   2.930   2.163
 1922HOH     H1 5971   2.626   3.019   2.199
 1922HOH     H2 5972   2.595   2.938   2.075
 1923HOH      O 5973   3.388   0.429   1.608
 1923HOH     H1 5974   3.340   0.503   1.645
 1923HOH     H2 5975   3.320   0.376   1.565
 1924HOH      O 5976   2.103   1.928   1.627
 1924HOH     H1 5977   2.083   1.939   1.720
 1924HOH     H2 5978   2.180   1.983   1.613
 1925HOH      O 5979   2.816   0.593   1.557
 1925HOH     H1 5980   2.822   0.512   1.608
 1925HOH     H2 5981   2.846   0.661   1.617
 1926HOH      O 5982   3.607   0.837   1.261
 1926HOH     H1 5983   3.525   0.881   1.286
 1926HOH     H2 5984   3.674   0.880   1.312
 1927HOH      O 5985   0.646   2.343   0.233
 1927HOH     H1 5986   0.615   2.422   0.279
 1927HOH     H2 5987   0.656   2.371   0.142
 1928HOH      O 5988   0.609   0.080   3.248
 1928HOH     H1 5989   0.652   0.030   3.317
 1928HOH     H2 5990   0.516   0.081   3.274
 1929HOH      O 5991   0.963   2.471   2.779
 1929HOH     H1 5992   1.037   2.410   2.781
 1929HOH     H2 5993   0.997   2.550   2.821
 1930HOH      O 5994   3.115   1.332   2.763
 1930HOH     H1 5995   3.126   1.319   2.857
 1930HOH     H2 5996   3.041   1.393   2.756
 1931HOH      O 5997   2.370   1.984   2.102
 1931HOH     H1 5998   2.311   2.059   2.109
 1931HOH     H2 5999   2.440   2.014   2.044
 1932HOH      O 6000   1.359   2.635   2.146
 1932HOH     H1 6001   1.315   2.711   2.106
 1932HOH     H2 6002   1.383   2.665   2.233
 1933HOH      O 6003   0.307   2.396   4.034
 1933HOH     H1 6004   0.371   2.458   3.998
 1933HOH     H2 6005   0.231   2.451   4.056
 1934HOH      O 6006   1.174   0.424   4.014
 1934HOH     H1 6007   1.172   0.395   4.105
 1934HOH     H2 6008   1.257   0.391   3.980
 1935HOH      O 6009   1.910   1.626   3.613
 1935HOH     H1 6010   1.822   1.620   3.576
 1935HOH     H2 6011   1.901   1.590   3.702
 1936HOH      O 6012   1.165   3.405   1.945
 1936HOH     H1 6013   1.190   3.476   1.886
 1936HOH     H2 6014   1.241   3.346   1.944
 1937HOH      O 6015   3.682   3.155   3.848
 1937HOH     H1 6016   3.612   3.194   3.795
 1937HOH     H2 6017   3.718   3.229   3.899
 1938HOH      O 6018   0.231   3.853   0.402
 1938HOH     H1 6019   0.152   3.905   0.414
 1938HOH     H2 6020   0.303   3.914   0.419
 1939HOH      O 6021   1.869   3.761   1.346
 1939HOH     H1 6022   1.792   3.705   1.357
 1939HOH     H2 6023   1.941   3.700   1.330
 1940HOH      O 6024   1.075   3.803   1.968
 1940HOH     H1 6025   1.113   3.864   2.031
 1940HOH     H2 6026   1.150   3.772   1.917
 1941HOH      O 6027   1.257   0.720   2.573
 1941HOH     H1 6028   1.289   0.795   2.623
 1941HOH     H2 6029   1.285   0.644   2.624
 1942HOH      O 6030   1.276   2.101   0.440
 1942HOH     H1 6031   1.283   2.074   0.531
 1942HOH     H2 6032   1.309   2.191   0.439
 1943HOH      O 6033   0.862   0.678   3.681
 1943HOH     H1 6034   0.942   0.666   3.732
 1943HOH     H2 6035   0.847   0.593   3.640
 1944HOH      O 6036   1.399   2.999   2.415
 1944HOH     H1 6037   1.469   3.035   2.360
 1944HOH     H2 6038   1.444   2.965   2.492
 1945HOH      O 6039   1.826   3.541   2.135
 1945HOH     H1 6040   1.799   3.455   2.105
 1945HOH     H2 6041   1.921   3.539   2.133
 1946HOH      O 6042   0.475   2.089   1.460
 1946HOH     H1 6043   0.523   2.083   1.542
 1946HOH     H2 6044   0.459   2.183   1.448
 1947HOH      O 6045   0.301   2.937   1.747
 1947HOH     H1 6046   0.274   3.013   1.799
 1947HOH     H2 6047   0.391   2.958   1.720
 1948HOH      O 6048   2.617   0.014   2.154
 1948HOH     H1 6049   2.635   0.000   2.061
 1948HOH     H2 6050   2.522   0.011   2.162
 1949HOH      O 6051   2.208   2.370   3.980
 1949HOH     H1 6052   2.223   2.351   4.073
 1949HOH     H2 6053   2.279   2.324   3.935
 1950HOH      O 6054   1.685   0.549   3.850
 1950HOH     H1 6055   1.696   0.522   3.759
 1950HOH     H2 6056   1.627   0.624   3.846
 1951HOH      O 6057   3.023   1.463   3.422
 1951HOH     H1 6058   2.951   1.419   3.376
 1951HOH     H2 6059   3.008   1.556   3.406
 1952HOH      O 6060   1.287   2.344   0.893
 1952HOH     H1 6061   1.243   2.347   0.809
 1952HOH     H2 6062   1.217   2.354   0.958
 1953HOH      O 6063   2.943   1.698   3.945
 1953HOH     H1 6064   2.923   1.644   4.022
 1953HOH     H2 6065   2.911   1.647   3.871
 1954HOH      O 6066   1.421   3.452   3.847
 1954HOH     H1 6067   1.483   3.525   3.858
 1954HOH     H2 6068   1.424   3.406   3.930
 1955HOH      O 6069   0.233   1.022   3.022
 1955HOH     H1 6070   0.311   1.011   3.076
 1955HOH     H2 6071   0.184   1.093   3.063
 1956HOH      O 6072   1.349   2.670   2.875
 1956HOH     H1 6073   1.429   2.654   2.925
 1956HOH     H2 6074   1.319   2.756   2.905
 1957HOH      O 6075   3.849   3.909   3.593
 1957HOH     H1 6076   3.869   3.938   3.682
 1957HOH     H2 6077   3.773   3.961   3.567
 1958HOH      O 6078   0.203   2.271   0.839
 1958HOH     H1 6079   0.278   2.259   0.898
 1958HOH     H2 6080   0.158   2.348   0.874
 1959HOH      O 6081   3.531   1.014   1.843
 1959HOH     H1 6082   3.496   1.101   1.864
 1959HOH     H2 6083   3.568   0.983   1.926
 1960HOH      O 6084   3.111   1.832   3.636
 1960HOH     H1 6085   3.193   1.806   3.594
 1960HOH     H2 6086   3.091   1.918   3.598
 1961HOH      O 6087   4.025   1.338   1.866
 1961HOH     H1 6088   4.054   1.318   1.777
 1961HOH     H2 6089   4.032   1.433   1.873
 1962HOH      O 6090   3.589   2.845   2.585
 1962HOH     H1 6091   3.583   2.750   2.582
 1962HOH     H2 6092   3.657   2.867   2.522
 1963HOH      O 6093   3.643   1.719   3.441
 1963HOH     H1 6094   3.734   1.745   3.425
 1963HOH     H2 6095   3.604   1.795   3.483
 1964HOH      O 6096   1.042   0.684   2.856
 1964HOH     H1 6097   0.973   0.748   2.838
 1964HOH     H2 6098   1.120   0.737   2.873
 1965HOH      O 6099   2.790   1.026   1.623
 1965HOH     H1 6100   2.848   1.082   1.571
 1965HOH     H2 6101   2.781   0.946   1.571
 1966HOH      O 6102   3.286   0.634   2.724
 1966HOH     H1 6103   3.234   0.694   2.777
 1966HOH     H2 6104   3.276   0.549   2.768
 1967HOH      O 6105   0.493   0.343   1.365
 1967HOH     H1 6106   0.473   0.363   1.273
 1967HOH     H2 6107   0.470   0.250   1.374
 1968HOH      O 6108   0.887   1.452   1.592
 1968HOH     H1 6109   0.868   1.479   1.682
 1968HOH     H2 6110   0.967   1.399   1.600
 1969HOH      O 6111   2.083   0.094   3.562
 1969HOH     H1 6112   2.153   0.106   3.626
 1969HOH     H2 6113   2.127   0.092   3.478
 1970HOH      O 6114   2.174   1.320   3.096
 1970HOH     H1 6115   2.238   1.374   3.048
 1970HOH     H2 6116   2.224   1.282   3.168
 1971HOH      O 6117   3.194   2.463   0.450
 1971HOH     H1 6118   3.172   2.503   0.534
 1971HOH     H2 6119   3.289   2.449   0.454
 1972HOH      O 6120   2.336   3.295   2.232
 1972HOH     H1 6121   2.420   3.315   2.191
 1972HOH     H2 6122   2.303   3.380   2.261
 1973HOH      O 6123   2.779   1.290   2.864
 1973HOH     H1 6124   2.845   1.234   2.824
 1973HOH     H2 6125   2.820   1.377   2.865
 1974HOH      O 6126   0.515   1.768   1.433
 1974HOH     H1 6127   0.511   1.863   1.424
 1974HOH     H2 6128   0.601   1.751   1.472
 1975HOH      O 6129   0.034   3.908   3.433
 1975HOH     H1 6130   0.063   3.996   3.457
 1975HOH     H2 6131  -0.039   3.890   3.492
 1976HOH      O 6132   3.999   1.525   1.428
 1976HOH     H1 6133   4.014   1.570   1.345
 1976HOH     H2 6134   3.936   1.457   1.407
 1977HOH      O 6135   2.908   2.103   2.488
 1977HOH     H1 6136   2.916   2.008   2.491
 1977HOH     H2 6137   2.819   2.121   2.519
 1978HOH      O 6138   2.586   1.217   2.370
 1978HOH     H1 6139   2.590   1.179   2.458
 1978HOH     H2 6140   2.513   1.279   2.374
 1979HOH      O 6141   2.519   2.467   2.276
 1979HOH     H1 6142   2.552   2.417   2.351
 1979HOH     H2 6143   2.553   2.555   2.289
 1980HOH      O 6144   2.428   3.104   1.431
 1980HOH     H1 6145   2.426   3.155   1.513
 1980HOH     H2 6146   2.341   3.066   1.424
 1981HOH      O 6147   0.158   3.113   3.369
 1981HOH     H1 6148   0.125   3.203   3.362
 1981HOH     H2 6149   0.084   3.062   3.403
 1982HOH      O 6150   2.083   2.989   1.883
 1982HOH     H1 6151   2.110   3.080   1.896
 1982HOH     H2 6152   2.127   2.962   1.803
 1983HOH      O 6153   0.165   3.938   1.045
 1983HOH     H1 6154   0.255   3.907   1.031
 1983HOH     H2 6155   0.146   3.991   0.968
 1984HOH      O 6156   3.684   0.658   2.480
 1984HOH     H1 6157   3.645   0.663   2.567
 1984HOH     H2 6158   3.762   0.603   2.492
 1985HOH      O 6159   0.407   2.346   1.449
 1985HOH     H1 6160   0.371   2.397   1.377
 1985HOH     H2 6161   0.391   2.399   1.526
 1986HOH      O 6162   1.615   1.862   2.414
 1986HOH     H1 6163   1.668   1.934   2.449
 1986HOH     H2 6164   1.670   1.823   2.346
 1987HOH      O 6165   3.432   3.314   1.549
 1987HOH     H1 6166   3.520   3.346   1.528
 1987HOH     H2 6167   3.446   3.247   1.616
 1988HOH      O 6168   1.378   1.212   3.656
 1988HOH     H1 6169   1.324   1.214   3.735
 1988HOH     H2 6170   1.315   1.202   3.585
 1989HOH      O 6171   2.434   1.849   3.656
 1989HOH     H1 6172   2.463   1.940   3.654
 1989HOH     H2 6173   2.384   1.841   3.737
 1990HOH      O 6174   2.462   2.242   1.394
 1990HOH     H1 6175   2.525   2.280   1.455
 1990HOH     H2 6176   2.395   2.309   1.383
 1991HOH      O 6177   2.007   0.248   1.337
 1991HOH     H1 6178   1.926   0.298   1.336
 1991HOH     H2 6179   2.057   0.283   1.411
 1992HOH      O 6180   1.532   0.307   0.600
 1992HOH     H1 6181   1.567   0.296   0.512
 1992HOH     H2 6182   1.602   0.276   0.658
 1993HOH      O 6183   0.969   3.734   1.618
 1993HOH     H1 6184   0.990   3.827   1.606
 1993HOH     H2 6185   0.991   3.694   1.533
 1994HOH      O 6186   3.259   2.777   2.251
 1994HOH     H1 6187   3.166   2.759   2.239
 1994HOH     H2 6188   3.278   2.747   2.340
 1995HOH      O 6189   0.599   3.181   0.735
 1995HOH     H1 6190   0.641   3.243   0.675
 1995HOH     H2 6191   0.607   3.222   0.821
 1996HOH      O 6192   3.652   1.548   2.519
 1996HOH     H1 6193   3.611   1.566   2.603
 1996HOH     H2 6194   3.580   1.522   2.462
 1997HOH      O 6195   3.147   3.319   0.093
 1997HOH     H1 6196   3.203   3.244   0.073
 1997HOH     H2 6197   3.179   3.388   0.035
 1998HOH      O 6198   2.779   3.734   1.481
 1998HOH     H1 6199   2.854   3.678   1.461
 1998HOH     H2 6200   2.788   3.809   1.422
 1999HOH      O 6201   0.537   2.710   1.617
 1999HOH     H1 6202   0.579   2.628   1.643
 1999HOH     H2 6203   0.444   2.690   1.615
 2000HOH      O 6204   2.373   0.309   2.345
 2000HOH     H1 6205   2.381   0.305   2.440
 2000HOH     H2 6206   2.444   0.367   2.317
 2001HOH      O 6207   1.999   2.518   1.177
 2001HOH     H1 6208   1.919   2.474   1.206
 2001HOH     H2 6209   1.975   2.559   1.094
 2002HOH      O 6210   0.267   2.741   0.022
 2002HOH     H1 6211   0.362   2.746   0.035
 2002HOH     H2 6212   0.250   2.800  -0.052
 2003HOH      O 6213   0.137   0.772   0.135
 2003HOH     H1 6214   0.212   0.715   0.119
 2003HOH     H2 6215   0.097   0.737   0.215
 2004HOH      O 6216   1.567   2.520   0.412
 2004HOH     H1 6217   1.623   2.546   0.485
 2004HOH     H2 6218   1.602   2.568   0.337
 2005HOH      O 6219   1.141   0.098   1.695
 2005HOH     H1 6220   1.126   0.008   1.721
 2005HOH     H2 6221   1.148   0.146   1.777
 2006HOH      O 6222   1.743   3.418   0.967
 2006HOH     H1 6223   1.727   3.497   1.020
 2006HOH     H2 6224   1.663   3.367   0.975
 2007HOH      O 6225   3.183   2.677   0.243
 2007HOH     H1 6226   3.125   2.711   0.311
 2007HOH     H2 6227   3.216   2.595   0.279
 2008HOH      O 6228   0.249   2.702   0.916
 2008HOH     H1 6229   0.224   2.792   0.937
 2008HOH     H2 6230   0.337   2.710   0.879
 2009HOH      O 6231   3.289   2.492   2.145
 2009HOH     H1 6232   3.360   2.553   2.161
 2009HOH     H2 6233   3.228   2.505   2.218
 2010HOH      O 6234   0.559   3.753   3.804
 2010HOH     H1 6235   0.585   3.712   3.722
 2010HOH     H2 6236   0.604   3.703   3.872
 2011HOH      O 6237   1.212   1.243   1.044
 2011HOH     H1 6238   1.250   1.331   1.043
 2011HOH     H2 6239   1.120   1.257   1.021
 2012HOH      O 6240   2.222   4.017   0.360
 2012HOH     H1 6241   2.268   3.950   0.308
 2012HOH     H2 6242   2.129   3.994   0.352
 2013HOH      O 6243   0.338   0.528   0.699
 2013HOH     H1 6244   0.271   0.524   0.767
 2013HOH     H2 6245   0.296   0.573   0.626
 2014HOH      O 6246   3.468   3.264   3.738
 2014HOH     H1 6247   3.417   3.258   3.658
 2014HOH     H2 6248   3.454   3.353   3.769
 2015HOH      O 6249   3.900   3.652   3.719
 2015HOH     H1 6250   3.814   3.642   3.760
 2015HOH     H2 6251   3.889   3.724   3.657
 2016HOH      O 6252   0.645   1.132   1.615
 2016HOH     H1 6253   0.691   1.182   1.683
 2016HOH     H2 6254   0.663   1.181   1.535
 2017HOH      O 6255   1.230   0.066   2.779
 2017HOH     H1 6256   1.159   0.003   2.787
 2017HOH     H2 6257   1.263   0.077   2.868
 2018HOH      O 6258   0.333   0.216   3.953
 2018HOH     H1 6259   0.418   0.251   3.924
 2018HOH     H2 6260   0.276   0.293   3.958
 2019HOH      O 6261   0.036   2.423   1.591
 2019HOH     H1 6262   0.014   2.479   1.665
 2019HOH     H2 6263   0.069   2.342   1.630
 2020HOH      O 6264   3.748   2.836   2.361
 2020HOH     H1 6265   3.709   2.820   2.275
 2020HOH     H2 6266   3.843   2.828   2.346
 2021HOH      O 6267   1.997   0.238   2.703
 2021HOH     H1 6268   1.918   0.241   2.758
 2021HOH     H2 6269   2.061   0.292   2.749
 2022HOH      O 6270   2.393   0.347   0.021
 2022HOH     H1 6271   2.382   0.394  -0.061
 2022HOH     H2 6272   2.338   0.395   0.083
 2023HOH      O 6273   0.073   2.817   0.290
 2023HOH     H1 6274   0.012   2.780   0.227
 2023HOH     H2 6275   0.052   2.774   0.373
 2024HOH      O 6276   3.318   3.955   3.500
 2024HOH     H1 6277   3.236   3.947   3.548
 2024HOH     H2 6278   3.326   4.048   3.481
 2025HOH      O 6279   2.382   0.861   2.512
 2025HOH     H1 6280   2.458   0.856   2.570
 2025HOH     H2 6281   2.417   0.888   2.428
 2026HOH      O 6282   0.940   0.834   2.186
 2026HOH     H1 6283   1.008   0.870   2.242
 2026HOH     H2 6284   0.940   0.890   2.108
 2027HOH      O 6285   2.461   3.245   1.661
 2027HOH     H1 6286   2.520   3.303   1.612
 2027HOH     H2 6287   2.518   3.194   1.717
 2028HOH      O 6288   2.839   1.568   0.447
 2028HOH     H1 6289   2.782   1.605   0.514
 2028HOH     H2 6290   2.921   1.549   0.493
 2029HOH      O 6291   2.191   2.031   3.028
 2029HOH     H1 6292   2.229   1.984   3.103
 2029HOH     H2 6293   2.195   1.968   2.956
 2030HOH      O 6294   3.059   1.516   0.994
 2030HOH     H1 6295   3.011   1.490   0.916
 2030HOH     H2 6296   3.032   1.452   1.060
 2031HOH      O 6297   2.716   0.254   0.580
 2031HOH     H1 6298   2.785   0.192   0.557
 2031HOH     H2 6299   2.725   0.325   0.516
 2032HOH      O 6300   1.678   1.327   1.048
 2032HOH     H1 6301   1.628   1.262   0.999
 2032HOH     H2 6302   1.759   1.281   1.073
 2033HOH      O 6303   3.946   0.963   3.584
 2033HOH     H1 6304   3.919   0.953   3.675
 2033HOH     H2 6305   3.879   1.018   3.544
 2034HOH      O 6306   0.354   2.036   3.141
 2034HOH     H1 6307   0.385   1.952   3.174
 2034HOH     H2 6308   0.261   2.038   3.162
 2035HOH      O 6309   0.381   0.772   2.773
 2035HOH     H1 6310   0.417   0.698   2.724
 2035HOH     H2 6311   0.313   0.733   2.828
 2036HOH      O 6312   1.016   2.148   0.384
 2036HOH     H1 6313   1.107   2.120   0.374
 2036HOH     H2 6314   1.015   2.238   0.349
 2037HOH      O 6315   0.423   0.670   1.157
 2037HOH     H1 6316   0.450   0.723   1.232
 2037HOH     H2 6317   0.345   0.713   1.123
 2038HOH      O 6318   2.062   0.425   2.296
 2038HOH     H1 6319   2.131   0.385   2.242
 2038HOH     H2 6320   2.108   0.493   2.345
 2039HOH      O 6321   2.318   1.516   1.030
 2039HOH     H1 6322   2.266   1.596   1.044
 2039HOH     H2 6323   2.254   1.445   1.037
 2040HOH      O 6324   0.288   3.866   3.799
 2040HOH     H1 6325   0.270   3.841   3.708
 2040HOH     H2 6326   0.372   3.823   3.818
 2041HOH      O 6327   3.576   2.136   2.600
 2041HOH     H1 6328   3.517   2.069   2.566
 2041HOH     H2 6329   3.533   2.166   2.680
 2042HOH      O 6330   0.903   1.199   2.384
 2042HOH     H1 6331   0.821   1.179   2.429
 2042HOH     H2 6332   0.959   1.235   2.452
 2043HOH      O 6333   2.177   2.700   0.545
 2043HOH     H1 6334   2.174   2.675   0.638
 2043HOH     H2 6335   2.270   2.714   0.527
 2044HOH      O 6336   3.994   3.153   1.862
 2044HOH     H1 6337   3.964   3.243   1.871
 2044HOH     H2 6338   3.923   3.108   1.816
 2045HOH      O 6339   3.539   2.966   1.941
 2045HOH     H1 6340   3.505   3.036   1.997
 2045HOH     H2 6341   3.534   3.001   1.852
 2046HOH      O 6342   0.377   3.031   0.524
 2046HOH     H1 6343   0.457   3.083   0.524
 2046HOH     H2 6344   0.367   3.002   0.614
 2047HOH      O 6345   3.002   1.051   0.852
 2047HOH     H1 6346   3.034   0.991   0.920
 2047HOH     H2 6347   2.922   1.089   0.889
 2048HOH      O 6348   2.064   2.948  -0.008
 2048HOH     H1 6349   2.066   2.895   0.072
 2048HOH     H2 6350   1.972   2.954  -0.032
 2049HOH      O 6351   0.071   3.470   2.495
 2049HOH     H1 6352   0.127   3.450   2.570
 2049HOH     H2 6353   0.005   3.400   2.495
 2050HOH      O 6354   3.433   3.061   2.493
 2050HOH     H1 6355   3.468   2.982   2.535
 2050HOH     H2 6356   3.491   3.077   2.419
 2051HOH      O 6357   2.998   0.988   3.013
 2051HOH     H1 6358   2.904   0.981   2.995
 2051HOH     H2 6359   3.039   0.928   2.950
 2052HOH      O 6360   2.429   2.196   3.916
 2052HOH     H1 6361   2.392   2.158   3.836
 2052HOH     H2 6362   2.513   2.152   3.926
 2053HOH      O 6363   0.142   1.801   0.665
 2053HOH     H1 6364   0.192   1.875   0.701
 2053HOH     H2 6365   0.051   1.833   0.664
 2054HOH      O 6366   0.195   0.595   1.843
 2054HOH     H1 6367   0.188   0.527   1.776
 2054HOH     H2 6368   0.129   0.660   1.818
 2055HOH      O 6369   1.156   0.953   1.751
 2055HOH     H1 6370   1.137   1.044   1.731
 2055HOH     H2 6371   1.162   0.910   1.666
 2056HOH      O 6372   4.019   0.801   1.768
 2056HOH     H1 6373   3.948   0.746   1.736
 2056HOH     H2 6374   3.978   0.887   1.782
 2057HOH      O 6375   1.780   2.133   0.858
 2057HOH     H1 6376   1.756   2.168   0.944
 2057HOH     H2 6377   1.812   2.045   0.876
 2058HOH      O 6378   2.006   0.494   1.069
 2058HOH     H1 6379   2.055   0.412   1.060
 2058HOH     H2 6380   1.947   0.494   0.994
 2059HOH      O 6381   3.186   3.273   1.446
 2059HOH     H1 6382   3.267   3.265   1.497
 2059HOH     H2 6383   3.213   3.315   1.364
 2060HOH      O 6384   3.024   2.511   3.258
 2060HOH     H1 6385   2.982   2.580   3.206
 2060HOH     H2 6386   2.951   2.461   3.294
 2061HOH      O 6387   3.938   2.469   2.372
 2061HOH     H1 6388   3.868   2.491   2.310
 2061HOH     H2 6389   3.902   2.396   2.423
 2062HOH      O 6390   2.706   2.825   0.005
 2062HOH     H1 6391   2.786   2.845   0.055
 2062HOH     H2 6392   2.643   2.891   0.033
 2063HOH      O 6393   3.580   0.085   2.959
 2063HOH     H1 6394   3.576   0.132   3.042
 2063HOH     H2 6395   3.506   0.026   2.961
 2064HOH      O 6396   2.603   0.153   3.745
 2064HOH     H1 6397   2.648   0.218   3.798
 2064HOH     H2 6398   2.592   0.078   3.802
 2065HOH      O 6399   0.344   3.358   2.840
 2065HOH     H1 6400   0.297   3.275   2.839
 2065HOH     H2 6401   0.275   3.424   2.832
 2066HOH      O 6402   2.813   1.342   0.039
 2066HOH     H1 6403   2.778   1.267  -0.010
 2066HOH     H2 6404   2.799   1.319   0.131
 2067HOH      O 6405   2.739   3.492   3.478
 2067HOH     H1 6406   2.723   3.402   3.505
 2067HOH     H2 6407   2.817   3.487   3.423
 2068HOH      O 6408   0.112   3.880   2.674
 2068HOH     H1 6409   0.103   3.904   2.766
 2068HOH     H2 6410   0.025   3.846   2.649
 2069HOH      O 6411   1.775   1.922   1.313
 2069HOH     H1 6412   1.791   2.016   1.318
 2069HOH     H2 6413   1.708   1.905   1.378
 2070HOH      O 6414   2.415   1.304   0.906
 2070HOH     H1 6415   2.440   1.393   0.928
 2070HOH     H2 6416   2.412   1.258   0.990
 2071HOH      O 6417   2.872   2.092   2.795
 2071HOH     H1 6418   2.878   2.183   2.825
 2071HOH     H2 6419   2.928   2.088   2.718
 2072HOH      O 6420   2.916   3.297   1.455
 2072HOH     H1 6421   2.912   3.275   1.362
 2072HOH     H2 6422   3.004   3.272   1.481
 2073HOH      O 6423   2.191   3.715   2.574
 2073HOH     H1 6424   2.123   3.782   2.566
 2073HOH     H2 6425   2.202   3.703   2.669
 2074HOH      O 6426   0.459   1.932   0.976
 2074HOH     H1 6427   0.424   1.937   0.887
 2074HOH     H2 6428   0.553   1.924   0.965
 2075HOH      O 6429   1.400   1.873   3.576
 2075HOH     H1 6430   1.373   1.790   3.616
 2075HOH     H2 6431   1.429   1.848   3.488
 2076HOH      O 6432   1.333   1.627   3.664
 2076HOH     H1 6433   1.255   1.575   3.645
 2076HOH     H2 6434   1.367   1.590   3.746
 2077HOH      O 6435   0.931   3.395   2.600
 2077HOH     H1 6436   0.839   3.373   2.610
 2077HOH     H2 6437   0.958   3.352   2.519
 2078HOH      O 6438   0.881   1.205   3.122
 2078HOH     H1 6439   0.885   1.210   3.026
 2078HOH     H2 6440   0.946   1.139   3.145
 2079HOH      O 6441   2.614   0.891   3.433
 2079HOH     H1 6442   2.538   0.867   3.485
 2079HOH     H2 6443   2.689   0.872   3.490
 2080HOH      O 6444   1.652   3.159   3.964
 2080HOH     H1 6445   1.643   3.158   4.060
 2080HOH     H2 6446   1.730   3.212   3.948
 2081HOH      O 6447   1.070   2.367   1.032
 2081HOH     H1 6448   0.976   2.347   1.041
 2081HOH     H2 6449   1.112   2.309   1.096
 2082HOH      O 6450   2.083   3.599   0.113
 2082HOH     H1 6451   2.020   3.530   0.090
 2082HOH     H2 6452   2.031   3.679   0.114
 2083HOH      O 6453   0.041   3.530   2.213
 2083HOH     H1 6454   0.083   3.505   2.295
 2083HOH     H2 6455   0.054   3.624   2.207
 2084HOH      O 6456   3.289   0.779   1.958
 2084HOH     H1 6457   3.278   0.705   1.897
 2084HOH     H2 6458   3.383   0.800   1.952
 2085HOH      O 6459   0.802   0.065   1.930
 2085HOH     H1 6460   0.746   0.041   2.004
 2085HOH     H2 6461   0.798  -0.010   1.871
 2086HOH      O 6462   3.377   3.189   3.496
 2086HOH     H1 6463   3.366   3.116   3.436
 2086HOH     H2 6464   3.297   3.241   3.485
 2087HOH      O 6465   3.142   0.615   1.652
 2087HOH     H1 6466   3.106   0.550   1.712
 2087HOH     H2 6467   3.071   0.678   1.640
 2088HOH      O 6468   1.993   1.773   3.875
 2088HOH     H1 6469   2.039   1.715   3.813
 2088HOH     H2 6470   2.048   1.852   3.878
 2089HOH      O 6471   2.279   3.233   0.078
 2089HOH     H1 6472   2.201   3.199   0.121
 2089HOH     H2 6473   2.251   3.251  -0.012
 2090HOH      O 6474   0.216   0.858   3.824
 2090HOH     H1 6475   0.131   0.831   3.790
 2090HOH     H2 6476   0.279   0.819   3.763
 2091HOH      O 6477   2.835   1.580   3.742
 2091HOH     H1 6478   2.846   1.620   3.655
 2091HOH     H2 6479   2.865   1.490   3.730
 2092HOH      O 6480   1.672   3.467   2.934
 2092HOH     H1 6481   1.603   3.421   2.982
 2092HOH     H2 6482   1.635   3.553   2.915
 2093HOH      O 6483   2.244   3.181   1.146
 2093HOH     H1 6484   2.171   3.237   1.122
 2093HOH     H2 6485   2.204   3.100   1.176
 2094HOH      O 6486   3.853   2.702   2.692
 2094HOH     H1 6487   3.829   2.699   2.785
 2094HOH     H2 6488   3.792   2.642   2.649
 2095HOH      O 6489   2.535   2.097   3.635
 2095HOH     H1 6490   2.521   2.131   3.547
 2095HOH     H2 6491   2.594   2.160   3.676
 2096HOH      O 6492   2.570   3.100   3.296
 2096HOH     H1 6493   2.629   3.030   3.268
 2096HOH     H2 6494   2.601   3.178   3.249
 2097HOH      O 6495   2.017   4.036   1.708
 2097HOH     H1 6496   2.038   4.003   1.795
 2097HOH     H2 6497   2.099   4.072   1.675
 2098HOH      O 6498   2.800   3.455   3.989
 2098HOH     H1 6499   2.879   3.448   3.936
 2098HOH     H2 6500   2.746   3.520   3.943
 2099HOH      O 6501   0.680   3.129   0.396
 2099HOH     H1 6502   0.649   3.169   0.315
 2099HOH     H2 6503   0.688   3.202   0.457
 2100HOH      O 6504   0.458   2.689   2.057
 2100HOH     H1 6505   0.543   2.659   2.091
 2100HOH     H2 6506   0.480   2.759   1.996
 2101HOH      O 6507   2.167   1.470   2.209
 2101HOH     H1 6508   2.217   1.501   2.133
 2101HOH     H2 6509   2.145   1.550   2.257
 2102HOH      O 6510   1.600   1.139   3.941
 2102HOH     H1 6511   1.650   1.096   4.011
 2102HOH     H2 6512   1.529   1.184   3.987
 2103HOH      O 6513   2.344   0.062   2.224
 2103HOH     H1 6514   2.261   0.058   2.176
 2103HOH     H2 6515   2.359   0.156   2.236
 2104HOH      O 6516   0.798   2.337   2.397
 2104HOH     H1 6517   0.709   2.312   2.370
 2104HOH     H2 6518   0.809   2.297   2.483
 2105HOH      O 6519   3.058   0.731   3.704
 2105HOH     H1 6520   3.043   0.653   3.758
 2105HOH     H2 6521   3.132   0.776   3.746
 2106HOH      O 6522   3.044   1.736   3.031
 2106HOH     H1 6523   3.109   1.799   3.001
 2106HOH     H2 6524   2.960   1.778   3.016
 2107HOH      O 6525   3.571   3.471   2.630
 2107HOH     H1 6526   3.635   3.436   2.691
 2107HOH     H2 6527   3.588   3.565   2.629
 2108HOH      O 6528   3.822   1.809   2.601
 2108HOH     H1 6529   3.811   1.715   2.589
 2108HOH     H2 6530   3.884   1.834   2.532
 2109HOH      O 6531   2.744   3.793   1.748
 2109HOH     H1 6532   2.709   3.714   1.789
 2109HOH     H2 6533   2.758   3.767   1.656
   4.04076   4.04076   4.04076   0.00000   0.00000   0.00000   0.00000   0.00000   0.00000
