Generated with MDTraj, t= 37940.0
 6533
    1MOL     C1    1   0.786   3.993   2.991
    1MOL     C2    2   0.656   4.044   2.992
    1MOL     C3    3   0.582   4.049   3.106
    1MOL     C4    4   0.645   4.015   3.227
    1MOL     C5    5   0.774   3.964   3.231
    1MOL     C6    6   0.849   3.952   3.112
    1MOL     C7    7   0.563   4.033   3.350
    1MOL     C8    8   0.579   3.916   3.458
    1MOL     N1    9   0.471   3.902   3.564
    1MOL     C9   10   0.486   4.012   3.670
    1MOL    C10   11   0.503   3.771   3.634
    1MOL    C11   12   0.334   3.885   3.506
    1MOL     H1   13   0.414   3.988   3.749
    1MOL     H2   14   0.448   4.106   3.630
    1MOL     H3   15   0.590   4.027   3.697
    1MOL     H4   16   0.611   3.771   3.649
    1MOL     H5   17   0.484   3.695   3.558
    1MOL     H6   18   0.455   3.761   3.731
    1MOL     H7   19   0.305   3.986   3.478
    1MOL     H8   20   0.265   3.847   3.582
    1MOL     H9   21   0.335   3.818   3.420
    1MOL    H10   22   0.844   3.978   2.900
    1MOL    H11   23   0.613   4.079   2.898
    1MOL    H12   24   0.480   4.086   3.102
    1MOL    H13   25   0.818   3.929   3.324
    1MOL    H14   26   0.948   3.909   3.120
    1MOL    H15   27   0.598   4.125   3.397
    1MOL    H16   28   0.456   4.039   3.326
    1MOL    H17   29   0.574   3.825   3.399
    1MOL    H18   30   0.673   3.927   3.512
    2OCB     C1   31   0.703   0.096   1.748
    2OCB     C2   32   0.447   0.026   1.821
    2OCB     C3   33   0.600   0.164   1.693
    2OCB     C4   34   0.682  -0.010   1.837
    2OCB     C5   35   0.552  -0.042   1.879
    2OCB     C6   36   0.466   0.126   1.723
    2OCB     O1   37   0.324  -0.001   1.868
    2OCB     C7   38   0.348   0.203   1.665
    2OCB     C8   39   0.259   0.098   1.955
    2OCB     O2   40   0.169   0.186   1.881
    2OCB     C9   41   0.222   0.304   1.859
    2OCB    C10   42   0.312   0.326   1.752
    2OCB    C11   43   0.357   0.456   1.730
    2OCB    C12   44   0.190   0.406   1.946
    2OCB    C13   45   0.319   0.561   1.809
    2OCB    C14   46   0.232   0.535   1.920
    2OCB     O3   47   0.203   0.636   2.006
    2OCB    C15   48   0.380   0.700   1.787
    2OCB    C16   49   0.504   0.716   1.880
    2OCB    C17   50   0.496   0.765   2.008
    2OCB    C18   51   0.301   0.665   2.108
    2OCB     O4   52   0.379   0.783   2.072
    2OCB     O5   53   0.790  -0.070   1.907
    2OCB    C19   54   0.846   0.144   1.716
    2OCB    C20   55   0.896   0.257   1.807
    2OCB     O6   56   0.974   0.093   1.956
    2OCB    C21   57   0.955   0.223   1.923
    2OCB    C22   58   0.609   0.753   2.095
    2OCB    C23   59   0.728   0.723   2.038
    2OCB    C24   60   1.005   0.323   2.004
    2OCB    C25   61   0.974   0.458   1.986
    2OCB     O7   62   0.836   0.717   2.123
    2OCB     O8   63   1.003   0.544   2.088
    2OCB    C26   64   0.891   0.587   2.170
    2OCB    C27   65   0.874   0.399   1.783
    2OCB    C28   66   0.909   0.503   1.872
    2OCB    C29   67   0.628   0.681   1.824
    2OCB    C30   68   0.874   0.651   1.842
    2OCB    C31   69   0.742   0.692   1.904
    2OCB    C32   70   0.853   0.015   2.006
    2OCB    C33   71   0.404   0.745   1.641
    2OCB    C34   72   0.272   0.742   1.569
    2OCB    C35   73   0.263   0.831   1.443
    2OCB     O9   74   0.293   0.950   1.454
    2OCB    C36   75   0.368   0.232   1.519
    2OCB    C37   76   0.236   0.273   1.459
    2OCB    C38   77   0.245   0.249   1.309
    2OCB    O10   78   0.283   0.348   1.249
    2OCB    C39   79   0.885   0.174   1.572
    2OCB    C40   80   0.863   0.063   1.472
    2OCB    C41   81   0.925  -0.069   1.503
    2OCB    O11   82   1.038  -0.103   1.469
    2OCB    C42   83   0.891   0.690   1.694
    2OCB    C43   84   1.042   0.683   1.660
    2OCB    C44   85   1.083   0.736   1.528
    2OCB    O12   86   1.094   0.854   1.500
    2OCB    C45   87   0.189   0.033   2.075
    2OCB    C46   88   0.072  -0.061   2.312
    2OCB    C47   89   0.072   0.094   2.127
    2OCB    C48   90   0.243  -0.077   2.147
    2OCB    C49   91   0.186  -0.120   2.260
    2OCB    C50   92   0.016   0.048   2.249
    2OCB    C51   93   0.879  -0.066   2.133
    2OCB    C52   94   0.932  -0.209   2.376
    2OCB    C53   95   0.996  -0.042   2.207
    2OCB    C54   96   0.792  -0.171   2.175
    2OCB    C55   97   0.816  -0.241   2.295
    2OCB    C56   98   1.017  -0.109   2.333
    2OCB    C57   99   0.930   0.592   2.316
    2OCB    C58  100   1.003   0.576   2.585
    2OCB    C59  101   0.877   0.680   2.406
    2OCB    C60  102   1.014   0.490   2.361
    2OCB    C61  103   1.054   0.483   2.501
    2OCB    C62  104   0.911   0.674   2.543
    2OCB    C63  105   0.240   0.673   2.251
    2OCB    C64  106   0.143   0.664   2.505
    2OCB    C65  107   0.323   0.700   2.354
    2OCB    C66  108   0.108   0.629   2.273
    2OCB    C67  109   0.059   0.616   2.403
    2OCB    C68  110   0.274   0.697   2.483
    2OCB    O13  111   0.726  -0.332   2.346
    2OCB    O14  112   1.140   0.390   2.558
    2OCB    O15  113   0.839   0.748   2.635
    2OCB    O16  114   0.237  -0.234   2.330
    2OCB    O17  115  -0.095   0.101   2.302
    2OCB    O18  116   0.356   0.725   2.586
    2OCB    O19  117  -0.060   0.556   2.436
    2OCB    C69  118   1.196   0.279   2.503
    2OCB    C70  119   1.311   0.058   2.370
    2OCB    C71  120   1.122   0.164   2.475
    2OCB    C72  121   1.323   0.288   2.448
    2OCB    C73  122   1.379   0.181   2.376
    2OCB    C74  123   1.181   0.051   2.417
    2OCB    O20  124   1.122  -0.074   2.415
    2OCB    C75  125   0.353  -0.306   2.285
    2OCB    C76  126   0.569  -0.461   2.209
    2OCB    C77  127   0.336  -0.408   2.199
    2OCB    C78  128   0.484  -0.281   2.339
    2OCB    C79  129   0.597  -0.354   2.294
    2OCB    C80  130   0.443  -0.491   2.159
    2OCB    C81  131   0.711   0.808   2.613
    2OCB    C82  132   0.469   0.914   2.507
    2OCB    C83  133   0.705   0.936   2.556
    2OCB    C84  134   0.589   0.734   2.627
    2OCB    C85  135   0.474   0.792   2.577
    2OCB    C86  136   0.583   0.990   2.505
    2OCB    C87  137   0.591   1.129   2.442
    2OCB    O21  138   0.499   1.210   2.453
    2OCB    C88  139  -0.372   0.450   2.084
    2OCB    O22  140  -0.372   0.569   2.052
    2OCB    C89  141   0.414  -0.605   2.065
    2OCB    O23  142   0.303  -0.651   2.057
    2OCB    O24  143   0.224   0.782   1.342
    2OCB    O25  144   1.099   0.661   1.427
    2OCB    O26  145   0.851  -0.156   1.546
    2OCB    C90  146   1.522   0.196   2.318
    2OCB    O27  147   1.557   0.101   2.249
    2OCB    O28  148  -0.457   0.369   2.043
    2OCB    O29  149   0.703   1.167   2.409
    2OCB    O30  150   1.594   0.292   2.345
    2OCB    O31  151   0.503  -0.669   2.015
    2OCB    O32  152   0.239   0.135   1.261
    2OCB    C91  153  -0.129   0.235   2.286
    2OCB    C92  154  -0.216   0.491   2.278
    2OCB    C93  155  -0.062   0.327   2.362
    2OCB    C94  156  -0.231   0.269   2.192
    2OCB    C95  157  -0.271   0.405   2.184
    2OCB    C96  158  -0.113   0.458   2.362
    2OCB    C97  159   0.034   0.285   2.469
    2OCB    C98  160   0.499  -0.169   2.441
    2OCB    C99  161   0.979   0.159   2.524
    2OCB      C  162   0.585   0.593   2.680
    2OCB     H1  163   0.623   0.246   1.626
    2OCB     H2  164   0.542  -0.124   1.949
    2OCB     H3  165   0.266   0.131   1.672
    2OCB     H4  166   0.338   0.162   1.997
    2OCB     H5  167   0.431   0.474   1.653
    2OCB     H6  168   0.123   0.395   2.031
    2OCB     H7  169   0.312   0.775   1.828
    2OCB     H8  170   0.359   0.572   2.106
    2OCB     H9  171   0.910   0.057   1.733
    2OCB    H10  172   0.602   0.785   2.198
    2OCB    H11  173   1.052   0.290   2.097
    2OCB    H12  174   0.812   0.512   2.180
    2OCB    H13  175   0.828   0.425   1.688
    2OCB    H14  176   0.639   0.639   1.724
    2OCB    H15  177   0.948   0.710   1.897
    2OCB    H16  178   0.783   0.091   2.044
    2OCB    H17  179   0.446   0.846   1.646
    2OCB    H18  180   0.480   0.681   1.596
    2OCB    H19  181   0.251   0.638   1.542
    2OCB    H20  182   0.196   0.776   1.640
    2OCB    H21  183   0.401   0.138   1.474
    2OCB    H22  184   0.444   0.309   1.505
    2OCB    H23  185   0.154   0.207   1.490
    2OCB    H24  186   0.224   0.379   1.483
    2OCB    H25  187   0.839   0.266   1.535
    2OCB    H26  188   0.993   0.190   1.580
    2OCB    H27  189   0.756   0.055   1.454
    2OCB    H28  190   0.910   0.098   1.380
    2OCB    H29  191   0.825   0.634   1.627
    2OCB    H30  192   0.859   0.794   1.678
    2OCB    H31  193   1.100   0.736   1.736
    2OCB    H32  194   1.080   0.581   1.670
    2OCB    H33  195   0.040  -0.095   2.411
    2OCB    H34  196   0.012   0.171   2.081
    2OCB    H35  197   0.333  -0.126   2.111
    2OCB    H36  198   0.957  -0.266   2.465
    2OCB    H37  199   1.062   0.041   2.180
    2OCB    H38  200   0.696  -0.182   2.125
    2OCB    H39  201   1.016   0.556   2.691
    2OCB    H40  202   0.808   0.753   2.363
    2OCB    H41  203   1.055   0.423   2.286
    2OCB    H42  204   0.122   0.662   2.612
    2OCB    H43  205   0.429   0.722   2.343
    2OCB    H44  206   0.039   0.599   2.195
    2OCB    H45  207   1.345  -0.020   2.302
    2OCB    H46  208   1.370   0.386   2.450
    2OCB    H47  209   0.648  -0.532   2.190
    2OCB    H48  210   0.233  -0.426   2.169
    2OCB    H49  211   0.381   0.954   2.457
    2OCB    H50  212   0.799   0.991   2.558
    2OCB    H51  213  -0.251   0.594   2.278
    2OCB    H52  214  -0.283   0.200   2.127
    2OCB    H53  215   0.058   0.364   2.540
    2OCB    H54  216  -0.011   0.211   2.535
    2OCB    H55  217   0.136   0.263   2.436
    2OCB    H56  218   0.571  -0.094   2.408
    2OCB    H57  219   0.403  -0.123   2.463
    2OCB    H58  220   0.544  -0.202   2.535
    2OCB    H59  221   0.955   0.055   2.547
    2OCB    H60  222   0.959   0.219   2.613
    2OCB    H61  223   0.912   0.195   2.446
    2OCB    H62  224   0.545   0.525   2.604
    2OCB    H63  225   0.685   0.563   2.709
    2OCB    H64  226   0.533   0.591   2.776
    3Na+    Na+  227   1.843   1.387   2.980
    4Na+    Na+  228   2.966   2.136   2.474
    5Na+    Na+  229   3.852   0.791   0.655
    6Na+    Na+  230   1.860   0.331   1.384
    7Na+    Na+  231   0.247   1.036   1.253
    8Na+    Na+  232   0.116   3.179   1.679
    9Na+    Na+  233   3.409   2.325   3.394
   10HOH      O  234   1.179   0.703   3.601
   10HOH     H1  235   1.183   0.744   3.514
   10HOH     H2  236   1.269   0.706   3.632
   11HOH      O  237   1.175   3.760   3.216
   11HOH     H1  238   1.262   3.727   3.240
   11HOH     H2  239   1.130   3.684   3.181
   12HOH      O  240   3.653   0.011   2.605
   12HOH     H1  241   3.636   0.103   2.591
   12HOH     H2  242   3.721   0.009   2.673
   13HOH      O  243   2.888   2.698   0.238
   13HOH     H1  244   2.858   2.623   0.187
   13HOH     H2  245   2.864   2.677   0.329
   14HOH      O  246   3.662   3.589   0.961
   14HOH     H1  247   3.567   3.584   0.950
   14HOH     H2  248   3.674   3.602   1.055
   15HOH      O  249   0.857   2.345   3.762
   15HOH     H1  250   0.853   2.253   3.786
   15HOH     H2  251   0.783   2.386   3.807
   16HOH      O  252   1.413   3.904   1.405
   16HOH     H1  253   1.464   3.882   1.327
   16HOH     H2  254   1.461   3.976   1.445
   17HOH      O  255   3.350   0.623   2.157
   17HOH     H1  256   3.268   0.672   2.159
   17HOH     H2  257   3.411   0.680   2.110
   18HOH      O  258   1.812   0.820   1.151
   18HOH     H1  259   1.861   0.754   1.102
   18HOH     H2  260   1.760   0.864   1.085
   19HOH      O  261   3.352   3.315   0.552
   19HOH     H1  262   3.418   3.320   0.621
   19HOH     H2  263   3.363   3.226   0.516
   20HOH      O  264   2.431   2.344   2.319
   20HOH     H1  265   2.455   2.266   2.370
   20HOH     H2  266   2.489   2.413   2.352
   21HOH      O  267   3.036   0.440   0.923
   21HOH     H1  268   3.029   0.519   0.976
   21HOH     H2  269   3.021   0.470   0.833
   22HOH      O  270   0.483   1.785   3.067
   22HOH     H1  271   0.402   1.738   3.048
   22HOH     H2  272   0.551   1.718   3.069
   23HOH      O  273   3.487   3.750   1.741
   23HOH     H1  274   3.566   3.698   1.727
   23HOH     H2  275   3.485   3.764   1.836
   24HOH      O  276   2.506   0.842   1.196
   24HOH     H1  277   2.423   0.878   1.164
   24HOH     H2  278   2.481   0.770   1.253
   25HOH      O  279   2.062   0.995   0.255
   25HOH     H1  280   2.032   0.907   0.277
   25HOH     H2  281   2.153   0.998   0.287
   26HOH      O  282   1.966   0.867   2.669
   26HOH     H1  283   1.918   0.881   2.587
   26HOH     H2  284   1.931   0.784   2.702
   27HOH      O  285   0.996   3.583   1.049
   27HOH     H1  286   0.936   3.520   1.008
   27HOH     H2  287   0.941   3.658   1.069
   28HOH      O  288   0.429   3.113   2.672
   28HOH     H1  289   0.445   3.123   2.578
   28HOH     H2  290   0.406   3.021   2.682
   29HOH      O  291   1.423   3.558   3.878
   29HOH     H1  292   1.333   3.531   3.892
   29HOH     H2  293   1.472   3.516   3.949
   30HOH      O  294   0.735   0.905   1.381
   30HOH     H1  295   0.789   0.826   1.382
   30HOH     H2  296   0.772   0.961   1.449
   31HOH      O  297   1.619   1.990   2.829
   31HOH     H1  298   1.703   1.977   2.873
   31HOH     H2  299   1.590   1.901   2.807
   32HOH      O  300   3.769   1.773   3.947
   32HOH     H1  301   3.779   1.832   3.873
   32HOH     H2  302   3.754   1.831   4.022
   33HOH      O  303   2.031   3.796   3.699
   33HOH     H1  304   2.115   3.837   3.680
   33HOH     H2  305   2.039   3.764   3.789
   34HOH      O  306   2.692   1.936   0.622
   34HOH     H1  307   2.719   1.925   0.713
   34HOH     H2  308   2.705   1.849   0.583
   35HOH      O  309   0.663   0.725   3.328
   35HOH     H1  310   0.655   0.739   3.233
   35HOH     H2  311   0.728   0.788   3.356
   36HOH      O  312   3.624   0.311   3.746
   36HOH     H1  313   3.564   0.239   3.728
   36HOH     H2  314   3.699   0.295   3.689
   37HOH      O  315   2.943   0.452   0.074
   37HOH     H1  316   2.962   0.546   0.081
   37HOH     H2  317   3.024   0.409   0.099
   38HOH      O  318   2.199   2.072   2.535
   38HOH     H1  319   2.189   2.015   2.459
   38HOH     H2  320   2.112   2.112   2.547
   39HOH      O  321   1.824   1.931   1.945
   39HOH     H1  322   1.758   1.999   1.957
   39HOH     H2  323   1.866   1.924   2.031
   40HOH      O  324   3.918   0.559   1.863
   40HOH     H1  325   3.954   0.636   1.907
   40HOH     H2  326   3.823   0.575   1.860
   41HOH      O  327   2.237   0.589   0.801
   41HOH     H1  328   2.329   0.579   0.780
   41HOH     H2  329   2.235   0.606   0.895
   42HOH      O  330   2.475   1.217   0.673
   42HOH     H1  331   2.451   1.219   0.765
   42HOH     H2  332   2.392   1.229   0.626
   43HOH      O  333   2.344   2.849   3.733
   43HOH     H1  334   2.401   2.860   3.658
   43HOH     H2  335   2.339   2.754   3.746
   44HOH      O  336   0.340   3.623   0.992
   44HOH     H1  337   0.255   3.663   1.009
   44HOH     H2  338   0.350   3.556   1.060
   45HOH      O  339   0.252   1.117   1.647
   45HOH     H1  340   0.214   1.192   1.600
   45HOH     H2  341   0.265   1.051   1.579
   46HOH      O  342   1.615   2.549   0.496
   46HOH     H1  343   1.623   2.635   0.536
   46HOH     H2  344   1.565   2.498   0.560
   47HOH      O  345   0.421   0.012   1.109
   47HOH     H1  346   0.342   0.016   1.162
   47HOH     H2  347   0.392   0.032   1.020
   48HOH      O  348   0.597   3.752   0.584
   48HOH     H1  349   0.568   3.669   0.621
   48HOH     H2  350   0.684   3.766   0.622
   49HOH      O  351   3.900   3.632   2.331
   49HOH     H1  352   3.837   3.564   2.353
   49HOH     H2  353   3.877   3.706   2.387
   50HOH      O  354   1.899   3.566   0.670
   50HOH     H1  355   1.978   3.548   0.720
   50HOH     H2  356   1.837   3.599   0.735
   51HOH      O  357   3.156   1.002   1.921
   51HOH     H1  358   3.083   1.005   1.860
   51HOH     H2  359   3.225   0.955   1.874
   52HOH      O  360   1.425   0.901   2.493
   52HOH     H1  361   1.479   0.823   2.484
   52HOH     H2  362   1.372   0.902   2.413
   53HOH      O  363   3.893   1.009   1.167
   53HOH     H1  364   3.943   0.928   1.172
   53HOH     H2  365   3.803   0.981   1.152
   54HOH      O  366   0.923   3.010   0.770
   54HOH     H1  367   0.850   3.047   0.819
   54HOH     H2  368   0.882   2.968   0.694
   55HOH      O  369   3.766   3.315   0.520
   55HOH     H1  370   3.763   3.267   0.437
   55HOH     H2  371   3.708   3.266   0.578
   56HOH      O  372   3.301   2.422  -0.003
   56HOH     H1  373   3.214   2.448  -0.033
   56HOH     H2  374   3.294   2.418   0.092
   57HOH      O  375   1.316   3.328   0.954
   57HOH     H1  376   1.408   3.304   0.955
   57HOH     H2  377   1.315   3.420   0.927
   58HOH      O  378   2.924   1.020   0.512
   58HOH     H1  379   2.962   1.037   0.426
   58HOH     H2  380   2.871   0.941   0.499
   59HOH      O  381   3.610   2.944   3.090
   59HOH     H1  382   3.586   3.028   3.049
   59HOH     H2  383   3.528   2.914   3.130
   60HOH      O  384   2.071   1.896   3.691
   60HOH     H1  385   2.082   1.969   3.629
   60HOH     H2  386   2.160   1.876   3.720
   61HOH      O  387   1.260   4.032   1.742
   61HOH     H1  388   1.231   3.953   1.696
   61HOH     H2  389   1.303   3.999   1.821
   62HOH      O  390   3.310   1.217   2.452
   62HOH     H1  391   3.225   1.179   2.432
   62HOH     H2  392   3.372   1.145   2.441
   63HOH      O  393   0.468   3.066   3.450
   63HOH     H1  394   0.446   3.128   3.381
   63HOH     H2  395   0.387   3.057   3.500
   64HOH      O  396   2.003   4.029   1.222
   64HOH     H1  397   1.968   3.960   1.278
   64HOH     H2  398   2.097   4.012   1.220
   65HOH      O  399   2.983   2.641   1.068
   65HOH     H1  400   2.956   2.554   1.096
   65HOH     H2  401   2.902   2.681   1.036
   66HOH      O  402   1.039   3.573   3.099
   66HOH     H1  403   0.972   3.542   3.038
   66HOH     H2  404   1.099   3.498   3.108
   67HOH      O  405   0.763   2.660   0.565
   67HOH     H1  406   0.805   2.609   0.496
   67HOH     H2  407   0.799   2.748   0.555
   68HOH      O  408   0.590   2.630   1.862
   68HOH     H1  409   0.530   2.619   1.789
   68HOH     H2  410   0.641   2.548   1.863
   69HOH      O  411   1.750   3.875   1.333
   69HOH     H1  412   1.839   3.838   1.334
   69HOH     H2  413   1.748   3.934   1.408
   70HOH      O  414   1.811   2.147   0.563
   70HOH     H1  415   1.744   2.202   0.522
   70HOH     H2  416   1.882   2.144   0.498
   71HOH      O  417   2.071   0.471   0.178
   71HOH     H1  418   1.979   0.447   0.170
   71HOH     H2  419   2.109   0.401   0.232
   72HOH      O  420   1.785   1.237   2.807
   72HOH     H1  421   1.725   1.189   2.750
   72HOH     H2  422   1.851   1.172   2.832
   73HOH      O  423   2.120   3.607   1.527
   73HOH     H1  424   2.159   3.566   1.604
   73HOH     H2  425   2.025   3.597   1.540
   74HOH      O  426   3.657   0.140   3.060
   74HOH     H1  427   3.654   0.051   3.095
   74HOH     H2  428   3.750   0.165   3.064
   75HOH      O  429   2.765   0.681   1.787
   75HOH     H1  430   2.714   0.713   1.713
   75HOH     H2  431   2.834   0.628   1.747
   76HOH      O  432   3.895   3.299   3.414
   76HOH     H1  433   3.821   3.358   3.429
   76HOH     H2  434   3.867   3.242   3.343
   77HOH      O  435   0.357   0.352   3.141
   77HOH     H1  436   0.371   0.338   3.047
   77HOH     H2  437   0.323   0.268   3.172
   78HOH      O  438   0.263   3.290   3.848
   78HOH     H1  439   0.185   3.320   3.894
   78HOH     H2  440   0.292   3.366   3.798
   79HOH      O  441   1.500   0.985   1.699
   79HOH     H1  442   1.469   0.921   1.635
   79HOH     H2  443   1.493   0.940   1.783
   80HOH      O  444   4.010   3.312   1.822
   80HOH     H1  445   4.026   3.406   1.819
   80HOH     H2  446   3.920   3.302   1.793
   81HOH      O  447   4.011   2.064   0.856
   81HOH     H1  448   4.017   1.987   0.799
   81HOH     H2  449   4.000   2.029   0.944
   82HOH      O  450   3.338   3.061   3.517
   82HOH     H1  451   3.288   3.103   3.448
   82HOH     H2  452   3.297   2.975   3.528
   83HOH      O  453   2.476   3.777   1.808
   83HOH     H1  454   2.567   3.777   1.777
   83HOH     H2  455   2.475   3.838   1.881
   84HOH      O  456   3.489   0.668   2.869
   84HOH     H1  457   3.521   0.590   2.915
   84HOH     H2  458   3.437   0.633   2.797
   85HOH      O  459   3.154   1.474   3.893
   85HOH     H1  460   3.235   1.522   3.875
   85HOH     H2  461   3.086   1.542   3.897
   86HOH      O  462   1.839   3.610   2.641
   86HOH     H1  463   1.806   3.528   2.603
   86HOH     H2  464   1.762   3.665   2.650
   87HOH      O  465   2.067   0.406   3.447
   87HOH     H1  466   1.992   0.455   3.480
   87HOH     H2  467   2.075   0.331   3.506
   88HOH      O  468   2.024   3.461   0.101
   88HOH     H1  469   2.004   3.435   0.011
   88HOH     H2  470   1.946   3.435   0.151
   89HOH      O  471   2.230   2.170   0.578
   89HOH     H1  472   2.194   2.159   0.666
   89HOH     H2  473   2.320   2.138   0.584
   90HOH      O  474   3.203   0.788   0.614
   90HOH     H1  475   3.199   0.849   0.688
   90HOH     H2  476   3.159   0.835   0.543
   91HOH      O  477   3.126   0.392   2.000
   91HOH     H1  478   3.119   0.403   2.095
   91HOH     H2  479   3.210   0.347   1.987
   92HOH      O  480   0.465   0.719   1.020
   92HOH     H1  481   0.534   0.777   1.052
   92HOH     H2  482   0.455   0.654   1.090
   93HOH      O  483   1.552   3.458   1.585
   93HOH     H1  484   1.469   3.424   1.551
   93HOH     H2  485   1.588   3.510   1.513
   94HOH      O  486   3.134   2.177   4.050
   94HOH     H1  487   3.216   2.128   4.054
   94HOH     H2  488   3.133   2.213   3.961
   95HOH      O  489   1.725   2.567   1.526
   95HOH     H1  490   1.737   2.635   1.592
   95HOH     H2  491   1.737   2.612   1.443
   96HOH      O  492   0.317   2.284   0.224
   96HOH     H1  493   0.319   2.335   0.305
   96HOH     H2  494   0.243   2.321   0.175
   97HOH      O  495   2.782   3.437   0.917
   97HOH     H1  496   2.845   3.494   0.874
   97HOH     H2  497   2.804   3.349   0.886
   98HOH      O  498   3.157   1.661   1.010
   98HOH     H1  499   3.248   1.630   1.011
   98HOH     H2  500   3.135   1.675   1.102
   99HOH      O  501   1.464   3.972   2.593
   99HOH     H1  502   1.394   4.036   2.608
   99HOH     H2  503   1.544   4.017   2.618
  100HOH      O  504   0.409   2.108   1.247
  100HOH     H1  505   0.407   2.203   1.253
  100HOH     H2  506   0.357   2.078   1.322
  101HOH      O  507   0.946   2.181   2.214
  101HOH     H1  508   1.036   2.169   2.246
  101HOH     H2  509   0.944   2.133   2.131
  102HOH      O  510   1.645   3.821   3.905
  102HOH     H1  511   1.566   3.770   3.886
  102HOH     H2  512   1.685   3.777   3.979
  103HOH      O  513   1.172   1.704   1.228
  103HOH     H1  514   1.080   1.726   1.245
  103HOH     H2  515   1.172   1.671   1.138
  104HOH      O  516   3.549   1.596   3.900
  104HOH     H1  517   3.508   1.621   3.983
  104HOH     H2  518   3.643   1.600   3.917
  105HOH      O  519   0.668   1.054   3.277
  105HOH     H1  520   0.619   1.130   3.309
  105HOH     H2  521   0.700   1.011   3.356
  106HOH      O  522   3.827   1.484   1.873
  106HOH     H1  523   3.823   1.501   1.967
  106HOH     H2  524   3.746   1.520   1.838
  107HOH      O  525   0.956   1.837   2.296
  107HOH     H1  526   0.913   1.912   2.336
  107HOH     H2  527   0.885   1.780   2.267
  108HOH      O  528   0.316   3.118   0.292
  108HOH     H1  529   0.277   3.120   0.379
  108HOH     H2  530   0.366   3.037   0.290
  109HOH      O  531   3.629   1.860   1.592
  109HOH     H1  532   3.545   1.814   1.587
  109HOH     H2  533   3.622   1.912   1.672
  110HOH      O  534   4.026   3.497   0.726
  110HOH     H1  535   3.963   3.536   0.667
  110HOH     H2  536   4.096   3.561   0.733
  111HOH      O  537   2.129   1.650   1.850
  111HOH     H1  538   2.040   1.648   1.884
  111HOH     H2  539   2.119   1.645   1.755
  112HOH      O  540   3.062   0.853   1.236
  112HOH     H1  541   2.995   0.921   1.246
  112HOH     H2  542   3.045   0.792   1.308
  113HOH      O  543   1.160   2.754   1.846
  113HOH     H1  544   1.073   2.715   1.857
  113HOH     H2  545   1.157   2.834   1.899
  114HOH      O  546   3.208   0.316   2.328
  114HOH     H1  547   3.226   0.409   2.336
  114HOH     H2  548   3.147   0.297   2.400
  115HOH      O  549   2.805   3.059   3.105
  115HOH     H1  550   2.852   3.099   3.031
  115HOH     H2  551   2.743   3.127   3.134
  116HOH      O  552   0.227   2.219   1.664
  116HOH     H1  553   0.141   2.194   1.697
  116HOH     H2  554   0.267   2.268   1.736
  117HOH      O  555   3.901   0.065   0.072
  117HOH     H1  556   3.814   0.055   0.110
  117HOH     H2  557   3.894   0.143   0.016
  118HOH      O  558   0.813   2.741   3.866
  118HOH     H1  559   0.787   2.667   3.920
  118HOH     H2  560   0.869   2.703   3.798
  119HOH      O  561   3.582   0.012   0.299
  119HOH     H1  562   3.594  -0.065   0.355
  119HOH     H2  563   3.649   0.074   0.330
  120HOH      O  564   2.401   2.181   1.116
  120HOH     H1  565   2.472   2.188   1.180
  120HOH     H2  566   2.346   2.258   1.133
  121HOH      O  567   1.356   1.964   3.960
  121HOH     H1  568   1.326   2.046   3.921
  121HOH     H2  569   1.289   1.900   3.936
  122HOH      O  570   1.657   0.403   3.449
  122HOH     H1  571   1.640   0.313   3.476
  122HOH     H2  572   1.729   0.432   3.505
  123HOH      O  573   2.852   2.588   3.206
  123HOH     H1  574   2.942   2.622   3.199
  123HOH     H2  575   2.815   2.635   3.280
  124HOH      O  576   0.634   3.283   0.532
  124HOH     H1  577   0.720   3.325   0.534
  124HOH     H2  578   0.575   3.352   0.500
  125HOH      O  579   1.635   3.441   3.170
  125HOH     H1  580   1.706   3.504   3.165
  125HOH     H2  581   1.677   3.356   3.164
  126HOH      O  582   0.449   3.267   1.098
  126HOH     H1  583   0.425   3.281   1.190
  126HOH     H2  584   0.451   3.355   1.061
  127HOH      O  585   1.541   2.811   3.705
  127HOH     H1  586   1.484   2.886   3.689
  127HOH     H2  587   1.490   2.753   3.761
  128HOH      O  588   0.575   2.218   2.924
  128HOH     H1  589   0.501   2.177   2.968
  128HOH     H2  590   0.585   2.168   2.842
  129HOH      O  591   3.388   3.071   3.791
  129HOH     H1  592   3.383   3.037   3.701
  129HOH     H2  593   3.426   2.999   3.841
  130HOH      O  594   0.033   1.833   1.546
  130HOH     H1  595  -0.001   1.860   1.631
  130HOH     H2  596   0.041   1.914   1.496
  131HOH      O  597   0.508   3.186   3.182
  131HOH     H1  598   0.528   3.145   3.098
  131HOH     H2  599   0.513   3.280   3.164
  132HOH      O  600   3.471   3.804   2.023
  132HOH     H1  601   3.544   3.859   2.054
  132HOH     H2  602   3.394   3.840   2.067
  133HOH      O  603   0.618   0.291   2.032
  133HOH     H1  604   0.658   0.272   1.947
  133HOH     H2  605   0.551   0.357   2.013
  134HOH      O  606   2.610   2.226   2.009
  134HOH     H1  607   2.567   2.217   1.924
  134HOH     H2  608   2.569   2.160   2.064
  135HOH      O  609   0.130   1.255   2.552
  135HOH     H1  610   0.169   1.287   2.470
  135HOH     H2  611   0.083   1.176   2.526
  136HOH      O  612   1.208   2.571   3.538
  136HOH     H1  613   1.194   2.543   3.447
  136HOH     H2  614   1.206   2.667   3.534
  137HOH      O  615   1.246   2.171   2.891
  137HOH     H1  616   1.199   2.090   2.877
  137HOH     H2  617   1.223   2.226   2.816
  138HOH      O  618   0.561   3.143   2.916
  138HOH     H1  619   0.640   3.190   2.889
  138HOH     H2  620   0.514   3.125   2.834
  139HOH      O  621   3.773   0.676   3.940
  139HOH     H1  622   3.832   0.661   3.867
  139HOH     H2  623   3.786   0.768   3.964
  140HOH      O  624   1.110   0.972   0.600
  140HOH     H1  625   1.169   1.004   0.532
  140HOH     H2  626   1.022   0.993   0.567
  141HOH      O  627   1.746   3.186   3.172
  141HOH     H1  628   1.687   3.112   3.154
  141HOH     H2  629   1.816   3.177   3.106
  142HOH      O  630   2.670   1.476   2.064
  142HOH     H1  631   2.661   1.443   1.975
  142HOH     H2  632   2.623   1.413   2.118
  143HOH      O  633   3.255   2.770   0.968
  143HOH     H1  634   3.304   2.841   1.009
  143HOH     H2  635   3.242   2.707   1.039
  144HOH      O  636   0.603   1.935   3.272
  144HOH     H1  637   0.543   1.906   3.204
  144HOH     H2  638   0.598   1.868   3.340
  145HOH      O  639   3.202   2.486   3.394
  145HOH     H1  640   3.163   2.503   3.480
  145HOH     H2  641   3.207   2.572   3.352
  146HOH      O  642   1.891   0.078   3.616
  146HOH     H1  643   1.802   0.092   3.584
  146HOH     H2  644   1.880   0.043   3.704
  147HOH      O  645   1.551   2.815   1.299
  147HOH     H1  646   1.643   2.790   1.314
  147HOH     H2  647   1.525   2.860   1.380
  148HOH      O  648   2.267   3.742   0.545
  148HOH     H1  649   2.334   3.781   0.488
  148HOH     H2  650   2.184   3.770   0.507
  149HOH      O  651   2.793   2.574   0.464
  149HOH     H1  652   2.710   2.571   0.511
  149HOH     H2  653   2.860   2.571   0.532
  150HOH      O  654   1.766   2.939   1.873
  150HOH     H1  655   1.732   2.877   1.809
  150HOH     H2  656   1.838   2.893   1.915
  151HOH      O  657   2.763   1.607   2.296
  151HOH     H1  658   2.830   1.583   2.232
  151HOH     H2  659   2.681   1.607   2.246
  152HOH      O  660   2.241   3.671   2.307
  152HOH     H1  661   2.154   3.696   2.338
  152HOH     H2  662   2.225   3.629   2.223
  153HOH      O  663   2.318   0.193   3.340
  153HOH     H1  664   2.406   0.229   3.342
  153HOH     H2  665   2.297   0.175   3.432
  154HOH      O  666   0.759   2.879   1.993
  154HOH     H1  667   0.734   2.955   1.941
  154HOH     H2  668   0.827   2.911   2.052
  155HOH      O  669   2.015   0.180   1.463
  155HOH     H1  670   2.032   0.089   1.439
  155HOH     H2  671   2.040   0.185   1.555
  156HOH      O  672   0.458   2.858   1.473
  156HOH     H1  673   0.542   2.816   1.487
  156HOH     H2  674   0.423   2.817   1.394
  157HOH      O  675   2.088   0.506   1.648
  157HOH     H1  676   2.018   0.569   1.667
  157HOH     H2  677   2.162   0.536   1.701
  158HOH      O  678  -0.022   1.373   2.771
  158HOH     H1  679   0.002   1.465   2.784
  158HOH     H2  680   0.030   1.345   2.696
  159HOH      O  681   1.970   2.559   0.660
  159HOH     H1  682   2.036   2.512   0.609
  159HOH     H2  683   2.010   2.645   0.677
  160HOH      O  684   1.631   0.328   2.591
  160HOH     H1  685   1.614   0.324   2.497
  160HOH     H2  686   1.668   0.243   2.613
  161HOH      O  687   1.142   0.063   3.436
  161HOH     H1  688   1.118   0.138   3.490
  161HOH     H2  689   1.061   0.012   3.428
  162HOH      O  690   2.414   3.120   0.188
  162HOH     H1  691   2.472   3.100   0.261
  162HOH     H2  692   2.432   3.212   0.168
  163HOH      O  693   2.526   1.994   3.195
  163HOH     H1  694   2.613   2.032   3.202
  163HOH     H2  695   2.468   2.069   3.182
  164HOH      O  696   2.418   0.518   1.596
  164HOH     H1  697   2.368   0.440   1.572
  164HOH     H2  698   2.461   0.494   1.679
  165HOH      O  699   2.364   3.701   1.402
  165HOH     H1  700   2.382   3.795   1.398
  165HOH     H2  701   2.272   3.696   1.429
  166HOH      O  702   3.718   3.733   3.382
  166HOH     H1  703   3.720   3.801   3.314
  166HOH     H2  704   3.748   3.654   3.337
  167HOH      O  705   2.012   2.159   2.828
  167HOH     H1  706   1.967   2.219   2.769
  167HOH     H2  707   1.970   2.075   2.813
  168HOH      O  708   1.275   2.529   1.959
  168HOH     H1  709   1.246   2.606   1.909
  168HOH     H2  710   1.288   2.562   2.048
  169HOH      O  711   0.910   1.162   1.008
  169HOH     H1  712   0.935   1.191   0.920
  169HOH     H2  713   0.893   1.068   0.999
  170HOH      O  714   0.942   0.909   3.758
  170HOH     H1  715   1.018   0.906   3.700
  170HOH     H2  716   0.953   0.992   3.806
  171HOH      O  717   1.933   3.206   3.387
  171HOH     H1  718   1.867   3.201   3.319
  171HOH     H2  719   1.886   3.239   3.464
  172HOH      O  720   3.791   3.892   2.071
  172HOH     H1  721   3.863   3.879   2.133
  172HOH     H2  722   3.726   3.943   2.121
  173HOH      O  723   1.377   3.328   2.295
  173HOH     H1  724   1.344   3.241   2.318
  173HOH     H2  725   1.299   3.382   2.290
  174HOH      O  726   0.412   1.864   1.113
  174HOH     H1  727   0.433   1.952   1.145
  174HOH     H2  728   0.326   1.845   1.149
  175HOH      O  729   2.423   0.079   0.663
  175HOH     H1  730   2.487   0.037   0.606
  175HOH     H2  731   2.391   0.154   0.613
  176HOH      O  732   3.382   0.015   1.463
  176HOH     H1  733   3.476   0.032   1.455
  176HOH     H2  734   3.361   0.036   1.554
  177HOH      O  735   2.361   3.940   1.633
  177HOH     H1  736   2.380   3.881   1.706
  177HOH     H2  737   2.365   4.027   1.672
  178HOH      O  738   2.403   1.570   0.200
  178HOH     H1  739   2.463   1.544   0.270
  178HOH     H2  740   2.316   1.566   0.240
  179HOH      O  741   0.424   1.793   2.278
  179HOH     H1  742   0.403   1.793   2.185
  179HOH     H2  743   0.410   1.702   2.306
  180HOH      O  744   2.368   3.244   1.147
  180HOH     H1  745   2.405   3.333   1.148
  180HOH     H2  746   2.429   3.191   1.198
  181HOH      O  747   2.685   0.238   2.506
  181HOH     H1  748   2.616   0.302   2.490
  181HOH     H2  749   2.656   0.160   2.458
  182HOH      O  750   3.235   3.943  -0.030
  182HOH     H1  751   3.206   3.964   0.059
  182HOH     H2  752   3.305   3.879  -0.018
  183HOH      O  753   1.992   3.290   0.949
  183HOH     H1  754   1.927   3.292   0.879
  183HOH     H2  755   2.076   3.283   0.904
  184HOH      O  756   1.571   3.086   3.561
  184HOH     H1  757   1.631   3.028   3.514
  184HOH     H2  758   1.612   3.173   3.554
  185HOH      O  759   1.518   3.027   0.440
  185HOH     H1  760   1.485   3.104   0.487
  185HOH     H2  761   1.454   3.013   0.370
  186HOH      O  762   1.219   1.209   0.044
  186HOH     H1  763   1.300   1.208  -0.007
  186HOH     H2  764   1.204   1.118   0.067
  187HOH      O  765   1.794   3.414   2.300
  187HOH     H1  766   1.814   3.391   2.391
  187HOH     H2  767   1.707   3.454   2.304
  188HOH      O  768   3.202   2.744   3.798
  188HOH     H1  769   3.218   2.747   3.892
  188HOH     H2  770   3.153   2.824   3.780
  189HOH      O  771   0.656   1.644   1.597
  189HOH     H1  772   0.656   1.580   1.526
  189HOH     H2  773   0.575   1.628   1.645
  190HOH      O  774   0.435   0.579   3.805
  190HOH     H1  775   0.517   0.604   3.762
  190HOH     H2  776   0.411   0.656   3.857
  191HOH      O  777   0.535   0.473   3.383
  191HOH     H1  778   0.619   0.432   3.363
  191HOH     H2  779   0.552   0.567   3.375
  192HOH      O  780   3.319   2.810   2.447
  192HOH     H1  781   3.264   2.731   2.454
  192HOH     H2  782   3.345   2.828   2.537
  193HOH      O  783   3.060   3.212   1.923
  193HOH     H1  784   3.136   3.162   1.954
  193HOH     H2  785   3.093   3.260   1.846
  194HOH      O  786   1.061   0.358   2.841
  194HOH     H1  787   1.147   0.399   2.846
  194HOH     H2  788   1.078   0.271   2.805
  195HOH      O  789   3.952   1.549   2.453
  195HOH     H1  790   4.039   1.534   2.414
  195HOH     H2  791   3.892   1.548   2.379
  196HOH      O  792   3.947   1.333   0.072
  196HOH     H1  793   3.855   1.333   0.099
  196HOH     H2  794   3.944   1.336  -0.024
  197HOH      O  795   0.176   2.492   2.374
  197HOH     H1  796   0.181   2.568   2.432
  197HOH     H2  797   0.265   2.457   2.373
  198HOH      O  798   3.440   0.418   1.156
  198HOH     H1  799   3.514   0.385   1.206
  198HOH     H2  800   3.385   0.342   1.140
  199HOH      O  801   2.233   2.342   0.241
  199HOH     H1  802   2.317   2.367   0.203
  199HOH     H2  803   2.241   2.364   0.334
  200HOH      O  804   3.834   2.206   0.353
  200HOH     H1  805   3.818   2.270   0.284
  200HOH     H2  806   3.918   2.167   0.330
  201HOH      O  807   0.066   1.969   3.868
  201HOH     H1  808  -0.016   2.019   3.873
  201HOH     H2  809   0.096   1.964   3.958
  202HOH      O  810   2.080   2.655   2.317
  202HOH     H1  811   2.168   2.690   2.303
  202HOH     H2  812   2.053   2.691   2.402
  203HOH      O  813   0.668   0.190   2.268
  203HOH     H1  814   0.591   0.205   2.213
  203HOH     H2  815   0.739   0.236   2.223
  204HOH      O  816   3.344   0.911   1.734
  204HOH     H1  817   3.384   0.965   1.666
  204HOH     H2  818   3.309   0.836   1.686
  205HOH      O  819   2.073   3.011   0.543
  205HOH     H1  820   2.053   3.031   0.451
  205HOH     H2  821   2.166   3.032   0.552
  206HOH      O  822   1.084   1.190   3.343
  206HOH     H1  823   1.078   1.154   3.255
  206HOH     H2  824   1.124   1.276   3.331
  207HOH      O  825   3.472   0.225   2.296
  207HOH     H1  826   3.385   0.234   2.337
  207HOH     H2  827   3.490   0.311   2.260
  208HOH      O  828   0.789   2.382   2.196
  208HOH     H1  829   0.832   2.297   2.188
  208HOH     H2  830   0.834   2.425   2.268
  209HOH      O  831   3.787   3.530   3.559
  209HOH     H1  832   3.800   3.610   3.508
  209HOH     H2  833   3.825   3.551   3.645
  210HOH      O  834   3.098   2.927   2.324
  210HOH     H1  835   3.082   3.021   2.323
  210HOH     H2  836   3.184   2.918   2.364
  211HOH      O  837   2.310   1.238   1.517
  211HOH     H1  838   2.217   1.229   1.496
  211HOH     H2  839   2.346   1.151   1.504
  212HOH      O  840   2.620   2.225   3.016
  212HOH     H1  841   2.549   2.246   2.956
  212HOH     H2  842   2.628   2.130   3.011
  213HOH      O  843   3.372   1.285   1.834
  213HOH     H1  844   3.448   1.238   1.801
  213HOH     H2  845   3.346   1.238   1.912
  214HOH      O  846   1.519   3.556   2.347
  214HOH     H1  847   1.483   3.478   2.390
  214HOH     H2  848   1.452   3.582   2.285
  215HOH      O  849   0.576   1.951   3.772
  215HOH     H1  850   0.582   2.035   3.726
  215HOH     H2  851   0.485   1.925   3.762
  216HOH      O  852   2.133   4.023   0.600
  216HOH     H1  853   2.080   4.017   0.680
  216HOH     H2  854   2.206   4.080   0.625
  217HOH      O  855   0.116   2.869   0.535
  217HOH     H1  856   0.171   2.790   0.545
  217HOH     H2  857   0.027   2.838   0.551
  218HOH      O  858   0.225   2.815   0.888
  218HOH     H1  859   0.133   2.793   0.881
  218HOH     H2  860   0.271   2.731   0.883
  219HOH      O  861   0.840   2.956   1.480
  219HOH     H1  862   0.771   2.900   1.514
  219HOH     H2  863   0.920   2.922   1.520
  220HOH      O  864   2.528   1.658   3.655
  220HOH     H1  865   2.589   1.714   3.606
  220HOH     H2  866   2.560   1.569   3.641
  221HOH      O  867   2.890   1.217   3.018
  221HOH     H1  868   2.842   1.281   3.072
  221HOH     H2  869   2.893   1.257   2.931
  222HOH      O  870   3.522   3.471   3.325
  222HOH     H1  871   3.467   3.549   3.336
  222HOH     H2  872   3.611   3.505   3.317
  223HOH      O  873   1.938   0.733   1.667
  223HOH     H1  874   1.929   0.825   1.642
  223HOH     H2  875   1.852   0.708   1.702
  224HOH      O  876   3.623   3.544   0.656
  224HOH     H1  877   3.698   3.601   0.670
  224HOH     H2  878   3.661   3.458   0.640
  225HOH      O  879   0.585   3.385   3.807
  225HOH     H1  880   0.526   3.450   3.768
  225HOH     H2  881   0.606   3.326   3.735
  226HOH      O  882   2.453   1.418   3.482
  226HOH     H1  883   2.453   1.363   3.560
  226HOH     H2  884   2.392   1.374   3.422
  227HOH      O  885   1.855   0.261   2.306
  227HOH     H1  886   1.760   0.259   2.303
  227HOH     H2  887   1.882   0.204   2.234
  228HOH      O  888   1.065   1.959   2.879
  228HOH     H1  889   1.008   1.994   2.810
  228HOH     H2  890   1.007   1.947   2.954
  229HOH      O  891   2.101   3.134   1.141
  229HOH     H1  892   2.182   3.180   1.161
  229HOH     H2  893   2.056   3.191   1.078
  230HOH      O  894   2.696   3.846   0.764
  230HOH     H1  895   2.712   3.931   0.806
  230HOH     H2  896   2.601   3.838   0.761
  231HOH      O  897   0.048   3.915   3.957
  231HOH     H1  898  -0.026   3.894   4.014
  231HOH     H2  899   0.121   3.933   4.017
  232HOH      O  900   1.251   3.081   3.939
  232HOH     H1  901   1.320   3.098   3.876
  232HOH     H2  902   1.276   2.998   3.979
  233HOH      O  903   3.610   0.798   0.678
  233HOH     H1  904   3.542   0.753   0.627
  233HOH     H2  905   3.562   0.847   0.744
  234HOH      O  906   0.896   0.646   0.500
  234HOH     H1  907   0.871   0.560   0.465
  234HOH     H2  908   0.897   0.634   0.595
  235HOH      O  909   2.391   1.718   1.181
  235HOH     H1  910   2.467   1.659   1.188
  235HOH     H2  911   2.363   1.707   1.090
  236HOH      O  912   0.978   1.211   0.745
  236HOH     H1  913   0.916   1.192   0.675
  236HOH     H2  914   1.037   1.135   0.746
  237HOH      O  915   2.543   1.329   3.995
  237HOH     H1  916   2.614   1.390   4.012
  237HOH     H2  917   2.473   1.384   3.959
  238HOH      O  918   3.158   2.068   1.030
  238HOH     H1  919   3.221   2.051   1.101
  238HOH     H2  920   3.169   2.160   1.008
  239HOH      O  921   3.241   0.407   3.851
  239HOH     H1  922   3.270   0.321   3.879
  239HOH     H2  923   3.251   0.462   3.929
  240HOH      O  924   2.603   2.792   2.488
  240HOH     H1  925   2.616   2.804   2.583
  240HOH     H2  926   2.511   2.814   2.474
  241HOH      O  927   2.186   1.966   2.049
  241HOH     H1  928   2.101   1.946   2.087
  241HOH     H2  929   2.165   2.010   1.966
  242HOH      O  930   1.280   1.047   0.392
  242HOH     H1  931   1.314   1.127   0.432
  242HOH     H2  932   1.202   1.075   0.344
  243HOH      O  933   3.701   2.446   2.359
  243HOH     H1  934   3.788   2.417   2.385
  243HOH     H2  935   3.717   2.526   2.309
  244HOH      O  936   3.996   2.251   1.772
  244HOH     H1  937   3.992   2.191   1.846
  244HOH     H2  938   4.044   2.327   1.805
  245HOH      O  939   2.890   2.059   3.491
  245HOH     H1  940   2.916   2.150   3.476
  245HOH     H2  941   2.972   2.015   3.515
  246HOH      O  942   3.294   2.935   2.927
  246HOH     H1  943   3.279   2.955   3.019
  246HOH     H2  944   3.315   2.842   2.925
  247HOH      O  945   1.023   2.427   0.176
  247HOH     H1  946   1.036   2.383   0.260
  247HOH     H2  947   0.937   2.398   0.147
  248HOH      O  948   1.098   0.873   2.067
  248HOH     H1  949   1.006   0.883   2.092
  248HOH     H2  950   1.113   0.940   2.000
  249HOH      O  951   2.170   0.222   2.926
  249HOH     H1  952   2.245   0.169   2.953
  249HOH     H2  953   2.143   0.266   3.006
  250HOH      O  954   1.922   1.803   2.948
  250HOH     H1  955   1.996   1.828   3.004
  250HOH     H2  956   1.942   1.841   2.863
  251HOH      O  957   1.186   2.979   0.708
  251HOH     H1  958   1.215   2.900   0.753
  251HOH     H2  959   1.100   2.998   0.746
  252HOH      O  960   1.358   1.615   3.936
  252HOH     H1  961   1.450   1.642   3.938
  252HOH     H2  962   1.309   1.696   3.927
  253HOH      O  963   1.609   2.049   1.103
  253HOH     H1  964   1.622   1.958   1.078
  253HOH     H2  965   1.639   2.054   1.193
  254HOH      O  966   1.745   0.053   0.585
  254HOH     H1  967   1.699   0.008   0.514
  254HOH     H2  968   1.816   0.101   0.541
  255HOH      O  969   1.627   0.979   3.945
  255HOH     H1  970   1.712   1.008   3.979
  255HOH     H2  971   1.616   0.890   3.979
  256HOH      O  972   1.064   2.845   1.602
  256HOH     H1  973   1.109   2.929   1.607
  256HOH     H2  974   1.116   2.786   1.657
  257HOH      O  975   3.641   1.320   2.921
  257HOH     H1  976   3.693   1.343   2.844
  257HOH     H2  977   3.560   1.370   2.910
  258HOH      O  978   3.208   3.232   0.941
  258HOH     H1  979   3.237   3.320   0.963
  258HOH     H2  980   3.274   3.174   0.978
  259HOH      O  981   3.439   0.963   2.609
  259HOH     H1  982   3.494   0.886   2.622
  259HOH     H2  983   3.366   0.952   2.670
  260HOH      O  984   2.272   1.681   0.784
  260HOH     H1  985   2.272   1.616   0.854
  260HOH     H2  986   2.184   1.718   0.785
  261HOH      O  987   1.070   1.065   3.089
  261HOH     H1  988   1.138   0.997   3.097
  261HOH     H2  989   1.013   1.033   3.019
  262HOH      O  990   2.728   3.755   1.114
  262HOH     H1  991   2.786   3.826   1.086
  262HOH     H2  992   2.788   3.685   1.140
  263HOH      O  993   2.991   1.905   2.454
  263HOH     H1  994   2.954   1.869   2.373
  263HOH     H2  995   2.974   1.837   2.520
  264HOH      O  996   1.131   1.815   3.958
  264HOH     H1  997   1.101   1.771   3.878
  264HOH     H2  998   1.053   1.822   4.013
  265HOH      O  999   1.073   2.455   3.300
  265HOH     H1 1000   1.026   2.536   3.321
  265HOH     H2 1001   1.089   2.460   3.206
  266HOH      O 1002   1.262   0.201   0.082
  266HOH     H1 1003   1.284   0.151   0.003
  266HOH     H2 1004   1.204   0.143   0.131
  267HOH      O 1005   3.851   0.286   3.577
  267HOH     H1 1006   3.938   0.313   3.548
  267HOH     H2 1007   3.863   0.199   3.613
  268HOH      O 1008   0.162   0.092   0.603
  268HOH     H1 1009   0.102   0.124   0.535
  268HOH     H2 1010   0.248   0.090   0.561
  269HOH      O 1011   3.529   2.619   1.594
  269HOH     H1 1012   3.469   2.685   1.559
  269HOH     H2 1013   3.498   2.605   1.684
  270HOH      O 1014   3.702   1.383   0.208
  270HOH     H1 1015   3.610   1.404   0.227
  270HOH     H2 1016   3.752   1.446   0.260
  271HOH      O 1017   1.399   1.756   2.502
  271HOH     H1 1018   1.468   1.731   2.562
  271HOH     H2 1019   1.319   1.753   2.555
  272HOH      O 1020   1.156   0.958   2.629
  272HOH     H1 1021   1.244   0.958   2.590
  272HOH     H2 1022   1.096   0.956   2.554
  273HOH      O 1023   3.555   0.657   1.527
  273HOH     H1 1024   3.508   0.583   1.490
  273HOH     H2 1025   3.577   0.630   1.616
  274HOH      O 1026   3.041   1.510   0.143
  274HOH     H1 1027   3.003   1.594   0.170
  274HOH     H2 1028   2.981   1.444   0.178
  275HOH      O 1029   2.875   1.338   0.310
  275HOH     H1 1030   2.792   1.308   0.273
  275HOH     H2 1031   2.931   1.260   0.309
  276HOH      O 1032   0.264   1.463   0.446
  276HOH     H1 1033   0.203   1.435   0.515
  276HOH     H2 1034   0.218   1.443   0.364
  277HOH      O 1035   0.043   2.019   3.409
  277HOH     H1 1036   0.010   1.952   3.467
  277HOH     H2 1037   0.095   1.971   3.344
  278HOH      O 1038   0.483   0.369   4.052
  278HOH     H1 1039   0.465   0.410   3.968
  278HOH     H2 1040   0.531   0.289   4.030
  279HOH      O 1041   2.978   1.221   3.778
  279HOH     H1 1042   2.961   1.238   3.871
  279HOH     H2 1043   2.927   1.287   3.732
  280HOH      O 1044   1.838   3.453   0.407
  280HOH     H1 1045   1.816   3.503   0.486
  280HOH     H2 1046   1.926   3.418   0.424
  281HOH      O 1047   2.657   2.758   2.091
  281HOH     H1 1048   2.599   2.683   2.105
  281HOH     H2 1049   2.619   2.828   2.144
  282HOH      O 1050   1.577   2.262   2.034
  282HOH     H1 1051   1.603   2.175   2.064
  282HOH     H2 1052   1.483   2.255   2.018
  283HOH      O 1053   0.738   3.143   1.299
  283HOH     H1 1054   0.768   3.062   1.342
  283HOH     H2 1055   0.777   3.213   1.351
  284HOH      O 1056   1.630   3.831   3.332
  284HOH     H1 1057   1.702   3.860   3.388
  284HOH     H2 1058   1.563   3.802   3.393
  285HOH      O 1059   0.310   1.841   3.891
  285HOH     H1 1060   0.238   1.898   3.865
  285HOH     H2 1061   0.309   1.842   3.987
  286HOH      O 1062   0.421   3.522   3.974
  286HOH     H1 1063   0.381   3.569   3.901
  286HOH     H2 1064   0.427   3.431   3.943
  287HOH      O 1065   1.760   1.136   2.325
  287HOH     H1 1066   1.820   1.150   2.251
  287HOH     H2 1067   1.674   1.131   2.284
  288HOH      O 1068   2.694   0.882   0.432
  288HOH     H1 1069   2.687   0.830   0.352
  288HOH     H2 1070   2.660   0.968   0.407
  289HOH      O 1071   1.081   3.199   2.662
  289HOH     H1 1072   1.143   3.128   2.648
  289HOH     H2 1073   1.051   3.223   2.574
  290HOH      O 1074   0.044   2.937   1.212
  290HOH     H1 1075   0.051   2.993   1.135
  290HOH     H2 1076  -0.030   2.880   1.193
  291HOH      O 1077   3.981   0.348   3.877
  291HOH     H1 1078   3.988   0.432   3.832
  291HOH     H2 1079   3.895   0.315   3.851
  292HOH      O 1080   0.965   2.257   1.760
  292HOH     H1 1081   1.006   2.319   1.700
  292HOH     H2 1082   0.952   2.178   1.707
  293HOH      O 1083   1.835   0.800   3.489
  293HOH     H1 1084   1.748   0.834   3.506
  293HOH     H2 1085   1.895   0.868   3.519
  294HOH      O 1086   3.601   0.735   2.615
  294HOH     H1 1087   3.577   0.719   2.706
  294HOH     H2 1088   3.667   0.667   2.596
  295HOH      O 1089   0.708   0.787   0.754
  295HOH     H1 1090   0.633   0.847   0.757
  295HOH     H2 1091   0.669   0.702   0.733
  296HOH      O 1092   1.602   0.268   0.381
  296HOH     H1 1093   1.560   0.291   0.464
  296HOH     H2 1094   1.594   0.172   0.377
  297HOH      O 1095   0.152   3.698   0.739
  297HOH     H1 1096   0.193   3.700   0.826
  297HOH     H2 1097   0.097   3.776   0.738
  298HOH      O 1098   3.832   0.186   1.619
  298HOH     H1 1099   3.896   0.258   1.621
  298HOH     H2 1100   3.792   0.186   1.706
  299HOH      O 1101   2.414   0.925   3.436
  299HOH     H1 1102   2.485   0.861   3.445
  299HOH     H2 1103   2.355   0.887   3.371
  300HOH      O 1104   0.381   2.140   3.081
  300HOH     H1 1105   0.339   2.225   3.067
  300HOH     H2 1106   0.312   2.085   3.117
  301HOH      O 1107   3.569   3.228   1.904
  301HOH     H1 1108   3.567   3.318   1.872
  301HOH     H2 1109   3.572   3.237   1.999
  302HOH      O 1110   1.010   2.595   3.728
  302HOH     H1 1111   1.066   2.575   3.653
  302HOH     H2 1112   0.972   2.510   3.752
  303HOH      O 1113   0.760   3.090   2.435
  303HOH     H1 1114   0.733   3.144   2.362
  303HOH     H2 1115   0.855   3.102   2.441
  304HOH      O 1116   1.078   0.095   1.061
  304HOH     H1 1117   1.099   0.036   1.133
  304HOH     H2 1118   0.988   0.120   1.077
  305HOH      O 1119   2.620   3.972   0.464
  305HOH     H1 1120   2.687   3.908   0.488
  305HOH     H2 1121   2.667   4.039   0.414
  306HOH      O 1122   1.846   3.642   1.573
  306HOH     H1 1123   1.756   3.675   1.569
  306HOH     H2 1124   1.861   3.624   1.666
  307HOH      O 1125   2.926   0.533   1.211
  307HOH     H1 1126   2.973   0.498   1.287
  307HOH     H2 1127   2.993   0.579   1.161
  308HOH      O 1128   0.943   1.345   1.405
  308HOH     H1 1129   0.995   1.360   1.326
  308HOH     H2 1130   0.893   1.265   1.386
  309HOH      O 1131   1.681   1.784   3.122
  309HOH     H1 1132   1.768   1.778   3.083
  309HOH     H2 1133   1.697   1.792   3.216
  310HOH      O 1134   2.710   2.818   3.038
  310HOH     H1 1135   2.710   2.756   3.111
  310HOH     H2 1136   2.731   2.902   3.078
  311HOH      O 1137   2.049   2.789   1.403
  311HOH     H1 1138   2.053   2.884   1.391
  311HOH     H2 1139   2.031   2.777   1.496
  312HOH      O 1140   1.782   2.715   0.981
  312HOH     H1 1141   1.736   2.632   0.989
  312HOH     H2 1142   1.791   2.729   0.886
  313HOH      O 1143   3.342   3.096   0.366
  313HOH     H1 1144   3.253   3.071   0.344
  313HOH     H2 1145   3.393   3.080   0.287
  314HOH      O 1146   1.125   2.952   2.036
  314HOH     H1 1147   1.158   3.039   2.015
  314HOH     H2 1148   1.051   2.968   2.094
  315HOH      O 1149   2.396   2.414   1.756
  315HOH     H1 1150   2.421   2.327   1.724
  315HOH     H2 1151   2.313   2.432   1.712
  316HOH      O 1152   1.747   1.366   3.766
  316HOH     H1 1153   1.732   1.458   3.743
  316HOH     H2 1154   1.842   1.361   3.779
  317HOH      O 1155   1.911   1.886   2.686
  317HOH     H1 1156   1.876   1.800   2.661
  317HOH     H2 1157   1.907   1.938   2.605
  318HOH      O 1158   1.857   2.519   1.863
  318HOH     H1 1159   1.871   2.435   1.819
  318HOH     H2 1160   1.763   2.535   1.855
  319HOH      O 1161   1.560   1.947   1.634
  319HOH     H1 1162   1.578   2.039   1.615
  319HOH     H2 1163   1.576   1.939   1.728
  320HOH      O 1164   3.856   2.050   1.938
  320HOH     H1 1165   3.773   2.015   1.908
  320HOH     H2 1166   3.834   2.101   2.017
  321HOH      O 1167   3.446   3.947   2.436
  321HOH     H1 1168   3.505   3.985   2.501
  321HOH     H2 1169   3.363   3.994   2.448
  322HOH      O 1170   2.695   3.946   3.473
  322HOH     H1 1171   2.654   3.925   3.389
  322HOH     H2 1172   2.627   3.993   3.522
  323HOH      O 1173   0.121   0.557   1.264
  323HOH     H1 1174   0.193   0.494   1.268
  323HOH     H2 1175   0.163   0.642   1.278
  324HOH      O 1176   3.513   2.423   3.584
  324HOH     H1 1177   3.572   2.498   3.579
  324HOH     H2 1178   3.439   2.455   3.636
  325HOH      O 1179   1.719   2.648   2.580
  325HOH     H1 1180   1.710   2.719   2.644
  325HOH     H2 1181   1.718   2.568   2.633
  326HOH      O 1182   3.506   3.503   1.409
  326HOH     H1 1183   3.574   3.437   1.425
  326HOH     H2 1184   3.548   3.567   1.351
  327HOH      O 1185   1.264   3.844   3.902
  327HOH     H1 1186   1.269   3.780   3.831
  327HOH     H2 1187   1.253   3.791   3.981
  328HOH      O 1188   2.762   2.046   2.387
  328HOH     H1 1189   2.715   1.971   2.424
  328HOH     H2 1190   2.701   2.083   2.323
  329HOH      O 1191   2.623   2.164   0.943
  329HOH     H1 1192   2.540   2.152   0.989
  329HOH     H2 1193   2.659   2.076   0.934
  330HOH      O 1194   0.102   0.007   2.755
  330HOH     H1 1195   0.177   0.031   2.701
  330HOH     H2 1196   0.122   0.044   2.841
  331HOH      O 1197   3.676   3.172   2.670
  331HOH     H1 1198   3.700   3.087   2.634
  331HOH     H2 1199   3.587   3.187   2.637
  332HOH      O 1200   0.327   1.165   0.108
  332HOH     H1 1201   0.399   1.194   0.165
  332HOH     H2 1202   0.313   1.237   0.047
  333HOH      O 1203   0.319   3.056   1.631
  333HOH     H1 1204   0.398   3.068   1.684
  333HOH     H2 1205   0.338   2.980   1.577
  334HOH      O 1206   2.479   2.164   2.499
  334HOH     H1 1207   2.402   2.182   2.554
  334HOH     H2 1208   2.546   2.134   2.560
  335HOH      O 1209   1.083   3.924   2.697
  335HOH     H1 1210   1.113   3.945   2.609
  335HOH     H2 1211   1.082   4.007   2.743
  336HOH      O 1212   2.507   0.292   1.928
  336HOH     H1 1213   2.549   0.378   1.923
  336HOH     H2 1214   2.563   0.241   1.986
  337HOH      O 1215   3.150   1.664   1.558
  337HOH     H1 1216   3.067   1.624   1.587
  337HOH     H2 1217   3.217   1.616   1.606
  338HOH      O 1218   1.704   1.289   3.516
  338HOH     H1 1219   1.710   1.376   3.476
  338HOH     H2 1220   1.696   1.306   3.610
  339HOH      O 1221   0.451   4.042   0.171
  339HOH     H1 1222   0.373   4.015   0.123
  339HOH     H2 1223   0.514   3.972   0.156
  340HOH      O 1224   0.221   0.926   2.779
  340HOH     H1 1225   0.273   1.001   2.809
  340HOH     H2 1226   0.285   0.860   2.754
  341HOH      O 1227   0.836   3.052   3.293
  341HOH     H1 1228   0.827   3.115   3.365
  341HOH     H2 1229   0.762   3.072   3.235
  342HOH      O 1230   3.579   3.198   0.682
  342HOH     H1 1231   3.505   3.138   0.692
  342HOH     H2 1232   3.618   3.201   0.770
  343HOH      O 1233   0.895   3.722   1.781
  343HOH     H1 1234   0.801   3.706   1.787
  343HOH     H2 1235   0.904   3.788   1.713
  344HOH      O 1236   3.295   2.210   0.276
  344HOH     H1 1237   3.246   2.195   0.195
  344HOH     H2 1238   3.228   2.237   0.339
  345HOH      O 1239   1.959   0.204   3.983
  345HOH     H1 1240   1.906   0.173   3.910
  345HOH     H2 1241   1.907   0.183   4.061
  346HOH      O 1242   2.082   2.319   3.046
  346HOH     H1 1243   2.014   2.292   3.107
  346HOH     H2 1244   2.071   2.262   2.970
  347HOH      O 1245   1.342   0.570   2.733
  347HOH     H1 1246   1.337   0.585   2.639
  347HOH     H2 1247   1.432   0.541   2.748
  348HOH      O 1248   0.688   3.472   0.043
  348HOH     H1 1249   0.663   3.463  -0.049
  348HOH     H2 1250   0.617   3.428   0.091
  349HOH      O 1251   0.567   0.352   0.819
  349HOH     H1 1252   0.595   0.268   0.781
  349HOH     H2 1253   0.574   0.339   0.913
  350HOH      O 1254   1.998   1.705   2.315
  350HOH     H1 1255   1.935   1.718   2.386
  350HOH     H2 1256   1.952   1.649   2.253
  351HOH      O 1257   2.882   0.666   3.110
  351HOH     H1 1258   2.799   0.619   3.101
  351HOH     H2 1259   2.867   0.729   3.180
  352HOH      O 1260   1.675   1.728   2.247
  352HOH     H1 1261   1.609   1.789   2.214
  352HOH     H2 1262   1.630   1.644   2.253
  353HOH      O 1263   0.451   2.163   0.589
  353HOH     H1 1264   0.401   2.119   0.658
  353HOH     H2 1265   0.513   2.096   0.559
  354HOH      O 1266   0.874   0.547   0.755
  354HOH     H1 1267   0.839   0.564   0.843
  354HOH     H2 1268   0.944   0.483   0.768
  355HOH      O 1269   2.090   2.385   2.436
  355HOH     H1 1270   2.093   2.468   2.389
  355HOH     H2 1271   2.130   2.321   2.377
  356HOH      O 1272   1.789   0.423   0.101
  356HOH     H1 1273   1.733   0.352   0.070
  356HOH     H2 1274   1.744   0.457   0.179
  357HOH      O 1275   1.394   2.968   0.212
  357HOH     H1 1276   1.403   2.925   0.127
  357HOH     H2 1277   1.338   2.910   0.263
  358HOH      O 1278   1.247   0.312   1.195
  358HOH     H1 1279   1.226   0.223   1.224
  358HOH     H2 1280   1.174   0.338   1.139
  359HOH      O 1281   2.580   3.018   0.439
  359HOH     H1 1282   2.592   3.050   0.529
  359HOH     H2 1283   2.655   3.054   0.391
  360HOH      O 1284   3.049   2.556   3.616
  360HOH     H1 1285   2.973   2.561   3.674
  360HOH     H2 1286   3.120   2.596   3.666
  361HOH      O 1287   1.731   1.688   0.770
  361HOH     H1 1288   1.728   1.606   0.721
  361HOH     H2 1289   1.749   1.755   0.703
  362HOH      O 1290   2.388   3.497   3.487
  362HOH     H1 1291   2.310   3.510   3.433
  362HOH     H2 1292   2.395   3.402   3.498
  363HOH      O 1293   1.470   2.304   2.469
  363HOH     H1 1294   1.537   2.327   2.404
  363HOH     H2 1295   1.493   2.216   2.497
  364HOH      O 1296   3.755   2.833   3.347
  364HOH     H1 1297   3.765   2.900   3.415
  364HOH     H2 1298   3.661   2.817   3.342
  365HOH      O 1299   1.356   0.040   3.951
  365HOH     H1 1300   1.347   0.083   3.866
  365HOH     H2 1301   1.310  -0.044   3.941
  366HOH      O 1302   2.880   1.035   1.839
  366HOH     H1 1303   2.871   1.089   1.918
  366HOH     H2 1304   2.791   1.024   1.807
  367HOH      O 1305   2.926   1.326   4.019
  367HOH     H1 1306   2.998   1.388   4.033
  367HOH     H2 1307   2.848   1.372   4.051
  368HOH      O 1308   2.817   3.164   2.028
  368HOH     H1 1309   2.906   3.183   1.997
  368HOH     H2 1310   2.785   3.248   2.061
  369HOH      O 1311   0.138   1.922   0.077
  369HOH     H1 1312   0.094   1.845   0.114
  369HOH     H2 1313   0.205   1.945   0.142
  370HOH      O 1314   2.590   3.667   3.570
  370HOH     H1 1315   2.515   3.622   3.531
  370HOH     H2 1316   2.633   3.711   3.496
  371HOH      O 1317   2.692   1.804   2.466
  371HOH     H1 1318   2.675   1.780   2.557
  371HOH     H2 1319   2.744   1.733   2.431
  372HOH      O 1320   3.617   0.705   1.825
  372HOH     H1 1321   3.648   0.682   1.913
  372HOH     H2 1322   3.546   0.644   1.808
  373HOH      O 1323   1.716   1.759   3.407
  373HOH     H1 1324   1.791   1.703   3.428
  373HOH     H2 1325   1.733   1.841   3.452
  374HOH      O 1326   1.208   0.082   1.360
  374HOH     H1 1327   1.279   0.018   1.363
  374HOH     H2 1328   1.145   0.051   1.426
  375HOH      O 1329   1.542   0.092   1.695
  375HOH     H1 1330   1.446   0.093   1.694
  375HOH     H2 1331   1.565   0.057   1.781
  376HOH      O 1332   1.417   1.512   2.753
  376HOH     H1 1333   1.472   1.438   2.726
  376HOH     H2 1334   1.328   1.478   2.748
  377HOH      O 1335   2.685   3.196   1.244
  377HOH     H1 1336   2.627   3.190   1.320
  377HOH     H2 1337   2.751   3.260   1.269
  378HOH      O 1338   1.414   0.910   0.173
  378HOH     H1 1339   1.402   0.920   0.268
  378HOH     H2 1340   1.326   0.914   0.137
  379HOH      O 1341   1.631   0.701   3.234
  379HOH     H1 1342   1.573   0.675   3.305
  379HOH     H2 1343   1.718   0.705   3.275
  380HOH      O 1344   1.770   3.508   0.931
  380HOH     H1 1345   1.723   3.461   0.862
  380HOH     H2 1346   1.713   3.501   1.008
  381HOH      O 1347   2.947   1.050   3.451
  381HOH     H1 1348   2.871   1.103   3.479
  381HOH     H2 1349   3.004   1.113   3.408
  382HOH      O 1350   0.477   0.959   0.705
  382HOH     H1 1351   0.403   0.904   0.680
  382HOH     H2 1352   0.445   1.049   0.697
  383HOH      O 1353   0.433   1.061   3.533
  383HOH     H1 1354   0.487   1.027   3.604
  383HOH     H2 1355   0.351   1.086   3.575
  384HOH      O 1356   2.937   0.131   3.805
  384HOH     H1 1357   3.021   0.095   3.778
  384HOH     H2 1358   2.893   0.058   3.849
  385HOH      O 1359   3.382   1.478   2.476
  385HOH     H1 1360   3.408   1.493   2.385
  385HOH     H2 1361   3.346   1.389   2.476
  386HOH      O 1362   1.965   1.553   3.150
  386HOH     H1 1363   2.039   1.493   3.161
  386HOH     H2 1364   1.943   1.581   3.239
  387HOH      O 1365   3.400   3.678   0.785
  387HOH     H1 1366   3.465   3.629   0.735
  387HOH     H2 1367   3.322   3.678   0.728
  388HOH      O 1368   3.877   2.779   3.727
  388HOH     H1 1369   3.965   2.759   3.759
  388HOH     H2 1370   3.886   2.863   3.682
  389HOH      O 1371   0.440   4.014   0.612
  389HOH     H1 1372   0.410   4.012   0.703
  389HOH     H2 1373   0.474   3.926   0.596
  390HOH      O 1374   3.111   3.621   0.401
  390HOH     H1 1375   3.060   3.609   0.320
  390HOH     H2 1376   3.095   3.542   0.451
  391HOH      O 1377   2.581   4.044   2.440
  391HOH     H1 1378   2.559   3.970   2.384
  391HOH     H2 1379   2.582   4.007   2.529
  392HOH      O 1380   1.363   1.517   1.674
  392HOH     H1 1381   1.291   1.514   1.610
  392HOH     H2 1382   1.331   1.577   1.742
  393HOH      O 1383   3.440   0.471   3.240
  393HOH     H1 1384   3.350   0.479   3.269
  393HOH     H2 1385   3.482   0.551   3.270
  394HOH      O 1386   0.175   3.014   3.018
  394HOH     H1 1387   0.162   3.015   2.923
  394HOH     H2 1388   0.179   3.106   3.043
  395HOH      O 1389   3.559   3.556   2.640
  395HOH     H1 1390   3.530   3.631   2.690
  395HOH     H2 1391   3.531   3.574   2.550
  396HOH      O 1392   2.754   0.510   0.963
  396HOH     H1 1393   2.841   0.473   0.950
  396HOH     H2 1394   2.740   0.566   0.887
  397HOH      O 1395   3.090   3.551   3.410
  397HOH     H1 1396   3.063   3.462   3.431
  397HOH     H2 1397   3.051   3.604   3.480
  398HOH      O 1398   2.308   0.204   1.209
  398HOH     H1 1399   2.241   0.208   1.140
  398HOH     H2 1400   2.361   0.283   1.196
  399HOH      O 1401   0.316   0.484   0.757
  399HOH     H1 1402   0.401   0.520   0.731
  399HOH     H2 1403   0.337   0.397   0.792
  400HOH      O 1404   1.443   1.108   3.343
  400HOH     H1 1405   1.386   1.183   3.323
  400HOH     H2 1406   1.397   1.060   3.411
  401HOH      O 1407   2.180   0.180   0.989
  401HOH     H1 1408   2.195   0.087   0.968
  401HOH     H2 1409   2.149   0.218   0.907
  402HOH      O 1410   2.830   1.450   3.723
  402HOH     H1 1411   2.867   1.502   3.793
  402HOH     H2 1412   2.833   1.507   3.646
  403HOH      O 1413   1.366   3.228   2.807
  403HOH     H1 1414   1.388   3.252   2.897
  403HOH     H2 1415   1.310   3.300   2.777
  404HOH      O 1416   1.139   0.448   0.666
  404HOH     H1 1417   1.173   0.515   0.606
  404HOH     H2 1418   1.160   0.483   0.753
  405HOH      O 1419   3.087   1.812   0.478
  405HOH     H1 1420   3.063   1.891   0.527
  405HOH     H2 1421   3.164   1.837   0.427
  406HOH      O 1422   2.545   2.159   1.704
  406HOH     H1 1423   2.510   2.100   1.638
  406HOH     H2 1424   2.640   2.145   1.701
  407HOH      O 1425   0.421   1.628   3.649
  407HOH     H1 1426   0.457   1.628   3.738
  407HOH     H2 1427   0.446   1.542   3.614
  408HOH      O 1428   2.900   3.840   0.363
  408HOH     H1 1429   2.902   3.934   0.384
  408HOH     H2 1430   2.904   3.796   0.448
  409HOH      O 1431   3.515   2.246   1.668
  409HOH     H1 1432   3.510   2.304   1.593
  409HOH     H2 1433   3.591   2.191   1.651
  410HOH      O 1434   2.019   2.746   2.550
  410HOH     H1 1435   1.925   2.765   2.550
  410HOH     H2 1436   2.047   2.768   2.639
  411HOH      O 1437   3.481   3.927   0.760
  411HOH     H1 1438   3.478   3.833   0.777
  411HOH     H2 1439   3.426   3.939   0.682
  412HOH      O 1440   2.115   0.450   1.383
  412HOH     H1 1441   2.113   0.473   1.476
  412HOH     H2 1442   2.164   0.368   1.380
  413HOH      O 1443   1.181   0.095   2.829
  413HOH     H1 1444   1.269   0.117   2.797
  413HOH     H2 1445   1.197   0.037   2.904
  414HOH      O 1446   1.233   1.151   2.071
  414HOH     H1 1447   1.248   1.177   2.162
  414HOH     H2 1448   1.142   1.124   2.067
  415HOH      O 1449   3.044   1.512   3.118
  415HOH     H1 1450   3.135   1.509   3.144
  415HOH     H2 1451   3.017   1.421   3.111
  416HOH      O 1452   2.228   0.547   2.204
  416HOH     H1 1453   2.261   0.460   2.179
  416HOH     H2 1454   2.143   0.529   2.245
  417HOH      O 1455   2.069   1.202   1.424
  417HOH     H1 1456   2.031   1.195   1.511
  417HOH     H2 1457   1.996   1.185   1.365
  418HOH      O 1458   0.933   3.449   3.677
  418HOH     H1 1459   0.898   3.364   3.703
  418HOH     H2 1460   0.951   3.439   3.583
  419HOH      O 1461   0.579   2.202   3.325
  419HOH     H1 1462   0.642   2.131   3.311
  419HOH     H2 1463   0.524   2.200   3.247
  420HOH      O 1464   1.792   2.709   1.301
  420HOH     H1 1465   1.863   2.752   1.348
  420HOH     H2 1466   1.826   2.695   1.213
  421HOH      O 1467   0.005   1.845   3.641
  421HOH     H1 1468  -0.011   1.755   3.670
  421HOH     H2 1469   0.019   1.894   3.722
  422HOH      O 1470   3.815   1.895   2.551
  422HOH     H1 1471   3.764   1.932   2.623
  422HOH     H2 1472   3.861   1.820   2.589
  423HOH      O 1473   0.806   0.268   3.246
  423HOH     H1 1474   0.877   0.207   3.228
  423HOH     H2 1475   0.821   0.295   3.337
  424HOH      O 1476   0.855   0.315   3.513
  424HOH     H1 1477   0.887   0.275   3.594
  424HOH     H2 1478   0.868   0.409   3.526
  425HOH      O 1479   2.367   1.175   0.930
  425HOH     H1 1480   2.279   1.207   0.948
  425HOH     H2 1481   2.408   1.169   1.016
  426HOH      O 1482   3.574   1.562   3.627
  426HOH     H1 1483   3.580   1.550   3.722
  426HOH     H2 1484   3.554   1.474   3.594
  427HOH      O 1485   2.544   2.820   3.528
  427HOH     H1 1486   2.536   2.863   3.443
  427HOH     H2 1487   2.603   2.747   3.512
  428HOH      O 1488   2.116   0.916   4.007
  428HOH     H1 1489   2.124   0.820   4.002
  428HOH     H2 1490   2.089   0.933   4.097
  429HOH      O 1491   3.918   0.312   3.280
  429HOH     H1 1492   3.912   0.407   3.279
  429HOH     H2 1493   3.946   0.290   3.369
  430HOH      O 1494   1.994   1.300   3.877
  430HOH     H1 1495   2.058   1.321   3.945
  430HOH     H2 1496   1.971   1.208   3.893
  431HOH      O 1497   0.124   1.183   3.125
  431HOH     H1 1498   0.052   1.125   3.100
  431HOH     H2 1499   0.126   1.250   3.057
  432HOH      O 1500   3.015   3.833   1.194
  432HOH     H1 1501   3.071   3.838   1.116
  432HOH     H2 1502   3.017   3.740   1.218
  433HOH      O 1503   0.936   1.470   3.128
  433HOH     H1 1504   0.929   1.375   3.124
  433HOH     H2 1505   1.025   1.488   3.096
  434HOH      O 1506   1.053   2.868   3.285
  434HOH     H1 1507   1.000   2.805   3.334
  434HOH     H2 1508   1.012   2.953   3.304
  435HOH      O 1509   1.830   0.700   0.023
  435HOH     H1 1510   1.828   0.607   0.048
  435HOH     H2 1511   1.775   0.744   0.088
  436HOH      O 1512   2.724   1.892   0.892
  436HOH     H1 1513   2.702   1.812   0.939
  436HOH     H2 1514   2.820   1.895   0.894
  437HOH      O 1515   2.201   2.212   3.377
  437HOH     H1 1516   2.214   2.162   3.458
  437HOH     H2 1517   2.193   2.303   3.405
  438HOH      O 1518   1.433   2.363   3.913
  438HOH     H1 1519   1.360   2.409   3.955
  438HOH     H2 1520   1.404   2.273   3.905
  439HOH      O 1521   2.470   1.666   3.331
  439HOH     H1 1522   2.457   1.748   3.379
  439HOH     H2 1523   2.432   1.599   3.387
  440HOH      O 1524   1.617   3.179   2.238
  440HOH     H1 1525   1.599   3.182   2.144
  440HOH     H2 1526   1.559   3.245   2.276
  441HOH      O 1527   0.506   0.290   2.856
  441HOH     H1 1528   0.601   0.297   2.870
  441HOH     H2 1529   0.479   0.377   2.828
  442HOH      O 1530   1.396   1.929   1.246
  442HOH     H1 1531   1.434   1.960   1.164
  442HOH     H2 1532   1.322   1.875   1.219
  443HOH      O 1533   2.260   3.187   0.865
  443HOH     H1 1534   2.283   3.118   0.803
  443HOH     H2 1535   2.316   3.171   0.941
  444HOH      O 1536   0.752   0.589   0.998
  444HOH     H1 1537   0.679   0.651   0.999
  444HOH     H2 1538   0.818   0.628   1.056
  445HOH      O 1539   2.350   0.359   3.746
  445HOH     H1 1540   2.279   0.302   3.717
  445HOH     H2 1541   2.315   0.448   3.738
  446HOH      O 1542   3.319   2.726   0.504
  446HOH     H1 1543   3.357   2.810   0.477
  446HOH     H2 1544   3.226   2.745   0.517
  447HOH      O 1545   1.213   0.457   3.349
  447HOH     H1 1546   1.283   0.516   3.377
  447HOH     H2 1547   1.231   0.440   3.257
  448HOH      O 1548   2.138   3.460   3.105
  448HOH     H1 1549   2.092   3.418   3.032
  448HOH     H2 1550   2.138   3.553   3.083
  449HOH      O 1551   3.527   2.745   3.445
  449HOH     H1 1552   3.458   2.812   3.446
  449HOH     H2 1553   3.537   2.719   3.537
  450HOH      O 1554   0.743   2.422   1.928
  450HOH     H1 1555   0.818   2.372   1.895
  450HOH     H2 1556   0.761   2.432   2.021
  451HOH      O 1557   3.192   0.528   2.514
  451HOH     H1 1558   3.181   0.494   2.603
  451HOH     H2 1559   3.169   0.620   2.521
  452HOH      O 1560   2.524   0.453   0.346
  452HOH     H1 1561   2.619   0.443   0.336
  452HOH     H2 1562   2.487   0.414   0.267
  453HOH      O 1563   3.977   1.326   0.836
  453HOH     H1 1564   4.028   1.245   0.830
  453HOH     H2 1565   3.909   1.306   0.900
  454HOH      O 1566   0.502   1.659   0.955
  454HOH     H1 1567   0.469   1.739   0.994
  454HOH     H2 1568   0.432   1.595   0.967
  455HOH      O 1569   0.288   0.768   3.585
  455HOH     H1 1570   0.291   0.812   3.500
  455HOH     H2 1571   0.302   0.676   3.564
  456HOH      O 1572   0.224   0.269   0.099
  456HOH     H1 1573   0.201   0.177   0.111
  456HOH     H2 1574   0.315   0.274   0.130
  457HOH      O 1575   3.778   1.893   3.685
  457HOH     H1 1576   3.864   1.871   3.649
  457HOH     H2 1577   3.761   1.982   3.653
  458HOH      O 1578   2.977   2.700   1.836
  458HOH     H1 1579   2.906   2.746   1.882
  458HOH     H2 1580   3.024   2.770   1.790
  459HOH      O 1581   1.617   1.608   1.610
  459HOH     H1 1582   1.525   1.593   1.592
  459HOH     H2 1583   1.639   1.687   1.560
  460HOH      O 1584   2.758   2.343   0.789
  460HOH     H1 1585   2.692   2.287   0.831
  460HOH     H2 1586   2.788   2.401   0.859
  461HOH      O 1587   3.195   2.513   1.751
  461HOH     H1 1588   3.283   2.531   1.785
  461HOH     H2 1589   3.138   2.576   1.796
  462HOH      O 1590   1.587   2.586   0.044
  462HOH     H1 1591   1.591   2.537  -0.038
  462HOH     H2 1592   1.647   2.540   0.103
  463HOH      O 1593   0.016   2.829   0.269
  463HOH     H1 1594  -0.018   2.916   0.248
  463HOH     H2 1595   0.088   2.845   0.329
  464HOH      O 1596   1.437   0.542   1.164
  464HOH     H1 1597   1.419   0.450   1.144
  464HOH     H2 1598   1.495   0.570   1.093
  465HOH      O 1599   2.887   1.960   1.558
  465HOH     H1 1600   2.848   1.905   1.490
  465HOH     H2 1601   2.871   1.913   1.639
  466HOH      O 1602   3.524   1.558   0.742
  466HOH     H1 1603   3.565   1.577   0.657
  466HOH     H2 1604   3.448   1.615   0.745
  467HOH      O 1605   2.335   3.199   2.534
  467HOH     H1 1606   2.358   3.129   2.473
  467HOH     H2 1607   2.317   3.275   2.479
  468HOH      O 1608   1.141   3.113   1.643
  468HOH     H1 1609   1.125   3.177   1.712
  468HOH     H2 1610   1.091   3.145   1.568
  469HOH      O 1611   2.458   1.053   2.044
  469HOH     H1 1612   2.458   1.113   2.119
  469HOH     H2 1613   2.490   1.107   1.971
  470HOH      O 1614   2.514   3.654   3.047
  470HOH     H1 1615   2.601   3.666   3.010
  470HOH     H2 1616   2.523   3.580   3.107
  471HOH      O 1617   1.956   2.219   1.426
  471HOH     H1 1618   1.911   2.253   1.349
  471HOH     H2 1619   2.009   2.146   1.392
  472HOH      O 1620   1.448   0.458   1.657
  472HOH     H1 1621   1.398   0.460   1.576
  472HOH     H2 1622   1.386   0.429   1.723
  473HOH      O 1623   2.268   2.630   1.577
  473HOH     H1 1624   2.270   2.541   1.542
  473HOH     H2 1625   2.177   2.643   1.604
  474HOH      O 1626   2.885   2.352   2.127
  474HOH     H1 1627   2.936   2.352   2.045
  474HOH     H2 1628   2.813   2.292   2.110
  475HOH      O 1629   3.362   3.626   0.262
  475HOH     H1 1630   3.349   3.648   0.170
  475HOH     H2 1631   3.273   3.622   0.299
  476HOH      O 1632   3.089   2.754   2.693
  476HOH     H1 1633   3.005   2.738   2.735
  476HOH     H2 1634   3.088   2.847   2.671
  477HOH      O 1635   0.949   2.726   0.274
  477HOH     H1 1636   0.862   2.705   0.239
  477HOH     H2 1637   1.000   2.647   0.259
  478HOH      O 1638   2.856   0.050   3.239
  478HOH     H1 1639   2.893   0.024   3.323
  478HOH     H2 1640   2.773   0.092   3.262
  479HOH      O 1641   3.258   1.948   2.350
  479HOH     H1 1642   3.178   1.910   2.386
  479HOH     H2 1643   3.231   2.034   2.317
  480HOH      O 1644   0.468   1.913   2.792
  480HOH     H1 1645   0.535   1.881   2.732
  480HOH     H2 1646   0.492   1.876   2.877
  481HOH      O 1647   0.887   3.827   0.996
  481HOH     H1 1648   0.806   3.850   1.042
  481HOH     H2 1649   0.956   3.843   1.061
  482HOH      O 1650   1.640   2.546   2.939
  482HOH     H1 1651   1.609   2.509   3.022
  482HOH     H2 1652   1.608   2.485   2.872
  483HOH      O 1653   1.325   3.484   1.305
  483HOH     H1 1654   1.325   3.463   1.398
  483HOH     H2 1655   1.264   3.420   1.267
  484HOH      O 1656   2.725   2.729   0.975
  484HOH     H1 1657   2.634   2.700   0.977
  484HOH     H2 1658   2.721   2.822   0.998
  485HOH      O 1659   1.326   3.017   2.285
  485HOH     H1 1660   1.308   3.044   2.195
  485HOH     H2 1661   1.377   2.937   2.276
  486HOH      O 1662   3.174   2.536   2.526
  486HOH     H1 1663   3.128   2.594   2.586
  486HOH     H2 1664   3.129   2.548   2.442
  487HOH      O 1665   3.761   2.475   0.821
  487HOH     H1 1666   3.719   2.416   0.884
  487HOH     H2 1667   3.798   2.418   0.754
  488HOH      O 1668   3.001   3.260   0.266
  488HOH     H1 1669   2.981   3.265   0.172
  488HOH     H2 1670   2.996   3.167   0.286
  489HOH      O 1671   2.696   1.738   1.444
  489HOH     H1 1672   2.613   1.758   1.488
  489HOH     H2 1673   2.705   1.643   1.451
  490HOH      O 1674   1.448   1.205   3.913
  490HOH     H1 1675   1.517   1.139   3.912
  490HOH     H2 1676   1.483   1.274   3.970
  491HOH      O 1677   1.202   3.695   0.092
  491HOH     H1 1678   1.124   3.746   0.112
  491HOH     H2 1679   1.195   3.617   0.147
  492HOH      O 1680   3.187   3.121   1.553
  492HOH     H1 1681   3.224   3.206   1.577
  492HOH     H2 1682   3.127   3.141   1.481
  493HOH      O 1683   0.133   4.038   0.139
  493HOH     H1 1684   0.142   3.963   0.198
  493HOH     H2 1685   0.044   4.069   0.154
  494HOH      O 1686   0.271   2.032   1.490
  494HOH     H1 1687   0.325   1.975   1.545
  494HOH     H2 1688   0.262   2.112   1.541
  495HOH      O 1689   0.757   2.074   1.364
  495HOH     H1 1690   0.681   2.015   1.363
  495HOH     H2 1691   0.719   2.162   1.360
  496HOH      O 1692   1.332   3.506   2.756
  496HOH     H1 1693   1.423   3.516   2.727
  496HOH     H2 1694   1.316   3.584   2.809
  497HOH      O 1695   0.246   2.985   2.096
  497HOH     H1 1696   0.303   2.925   2.047
  497HOH     H2 1697   0.203   2.930   2.161
  498HOH      O 1698   1.552   2.434   0.772
  498HOH     H1 1699   1.498   2.453   0.849
  498HOH     H2 1700   1.597   2.352   0.794
  499HOH      O 1701   0.433   2.875   0.288
  499HOH     H1 1702   0.452   2.798   0.235
  499HOH     H2 1703   0.448   2.847   0.378
  500HOH      O 1704   2.065   1.333   3.501
  500HOH     H1 1705   2.045   1.247   3.538
  500HOH     H2 1706   2.153   1.322   3.464
  501HOH      O 1707   0.019   1.910   1.826
  501HOH     H1 1708  -0.050   1.963   1.866
  501HOH     H2 1709   0.100   1.955   1.849
  502HOH      O 1710   2.630   1.718   1.908
  502HOH     H1 1711   2.635   1.633   1.865
  502HOH     H2 1712   2.537   1.734   1.920
  503HOH      O 1713   1.775   1.658   2.539
  503HOH     H1 1714   1.738   1.682   2.454
  503HOH     H2 1715   1.832   1.583   2.520
  504HOH      O 1716   3.871   2.650   0.297
  504HOH     H1 1717   3.944   2.711   0.301
  504HOH     H2 1718   3.807   2.683   0.360
  505HOH      O 1719   0.656   1.651   0.691
  505HOH     H1 1720   0.752   1.647   0.696
  505HOH     H2 1721   0.626   1.616   0.774
  506HOH      O 1722   3.533   1.954   3.286
  506HOH     H1 1723   3.481   1.875   3.298
  506HOH     H2 1724   3.622   1.923   3.269
  507HOH      O 1725   3.297   1.038   1.310
  507HOH     H1 1726   3.323   0.975   1.378
  507HOH     H2 1727   3.204   1.020   1.296
  508HOH      O 1728   1.142   3.506   3.908
  508HOH     H1 1729   1.060   3.490   3.861
  508HOH     H2 1730   1.116   3.560   3.983
  509HOH      O 1731   3.263   1.717   2.798
  509HOH     H1 1732   3.296   1.726   2.709
  509HOH     H2 1733   3.339   1.735   2.854
  510HOH      O 1734   0.733   1.891   1.987
  510HOH     H1 1735   0.797   1.822   1.967
  510HOH     H2 1736   0.784   1.972   1.987
  511HOH      O 1737   3.843   0.924   4.003
  511HOH     H1 1738   3.911   0.947   3.940
  511HOH     H2 1739   3.797   1.007   4.020
  512HOH      O 1740   3.374   2.946   2.677
  512HOH     H1 1741   3.456   2.899   2.692
  512HOH     H2 1742   3.326   2.936   2.759
  513HOH      O 1743   1.254   3.108   3.518
  513HOH     H1 1744   1.348   3.123   3.510
  513HOH     H2 1745   1.223   3.180   3.573
  514HOH      O 1746   3.663   1.599   3.303
  514HOH     H1 1747   3.574   1.627   3.324
  514HOH     H2 1748   3.654   1.508   3.275
  515HOH      O 1749   0.814   3.424   2.920
  515HOH     H1 1750   0.867   3.444   2.843
  515HOH     H2 1751   0.734   3.475   2.907
  516HOH      O 1752   1.443   1.479   0.175
  516HOH     H1 1753   1.374   1.543   0.160
  516HOH     H2 1754   1.500   1.487   0.099
  517HOH      O 1755   0.643   1.508   1.362
  517HOH     H1 1756   0.656   1.415   1.340
  517HOH     H2 1757   0.683   1.555   1.289
  518HOH      O 1758   1.099   1.660   3.688
  518HOH     H1 1759   1.148   1.682   3.609
  518HOH     H2 1760   1.032   1.728   3.694
  519HOH      O 1761   1.354   1.678   1.956
  519HOH     H1 1762   1.331   1.594   1.996
  519HOH     H2 1763   1.303   1.742   2.006
  520HOH      O 1764   2.290   0.349   2.707
  520HOH     H1 1765   2.235   0.313   2.636
  520HOH     H2 1766   2.244   0.324   2.787
  521HOH      O 1767   3.935   3.837   1.074
  521HOH     H1 1768   3.855   3.882   1.045
  521HOH     H2 1769   3.971   3.894   1.142
  522HOH      O 1770   1.878   1.549   0.460
  522HOH     H1 1771   1.856   1.635   0.423
  522HOH     H2 1772   1.973   1.552   0.471
  523HOH      O 1773   1.283   1.916   0.381
  523HOH     H1 1774   1.374   1.929   0.356
  523HOH     H2 1775   1.233   1.968   0.318
  524HOH      O 1776   3.879   3.140   1.017
  524HOH     H1 1777   3.971   3.124   0.999
  524HOH     H2 1778   3.867   3.234   1.004
  525HOH      O 1779   1.856   0.775   2.341
  525HOH     H1 1780   1.903   0.701   2.303
  525HOH     H2 1781   1.839   0.834   2.268
  526HOH      O 1782   3.286   3.557   3.654
  526HOH     H1 1783   3.362   3.501   3.671
  526HOH     H2 1784   3.280   3.560   3.558
  527HOH      O 1785   3.043   3.047   1.037
  527HOH     H1 1786   3.117   3.091   0.994
  527HOH     H2 1787   3.071   3.039   1.129
  528HOH      O 1788   0.509   1.403   0.528
  528HOH     H1 1789   0.568   1.477   0.541
  528HOH     H2 1790   0.429   1.442   0.493
  529HOH      O 1791   0.271   0.781   0.034
  529HOH     H1 1792   0.212   0.805   0.106
  529HOH     H2 1793   0.212   0.760  -0.039
  530HOH      O 1794   1.917   1.015   3.853
  530HOH     H1 1795   1.855   0.943   3.843
  530HOH     H2 1796   1.983   0.981   3.913
  531HOH      O 1797   3.433   4.018   1.151
  531HOH     H1 1798   3.408   3.985   1.237
  531HOH     H2 1799   3.520   4.056   1.164
  532HOH      O 1800   0.316   1.441   0.971
  532HOH     H1 1801   0.248   1.508   0.975
  532HOH     H2 1802   0.287   1.382   0.902
  533HOH      O 1803   2.214   3.265   3.666
  533HOH     H1 1804   2.139   3.325   3.661
  533HOH     H2 1805   2.174   3.179   3.677
  534HOH      O 1806   1.203   2.735   3.895
  534HOH     H1 1807   1.192   2.656   3.948
  534HOH     H2 1808   1.160   2.716   3.812
  535HOH      O 1809   0.630   2.311   1.375
  535HOH     H1 1810   0.693   2.355   1.319
  535HOH     H2 1811   0.545   2.335   1.339
  536HOH      O 1812   1.355   3.996   3.574
  536HOH     H1 1813   1.358   3.901   3.562
  536HOH     H2 1814   1.291   4.027   3.509
  537HOH      O 1815   0.017   3.448   2.912
  537HOH     H1 1816   0.099   3.406   2.883
  537HOH     H2 1817  -0.052   3.396   2.872
  538HOH      O 1818   1.002   2.192   1.200
  538HOH     H1 1819   0.959   2.141   1.268
  538HOH     H2 1820   1.096   2.185   1.220
  539HOH      O 1821   0.048   1.110   0.177
  539HOH     H1 1822   0.003   1.186   0.139
  539HOH     H2 1823   0.137   1.115   0.142
  540HOH      O 1824   0.481   3.478   2.823
  540HOH     H1 1825   0.517   3.566   2.831
  540HOH     H2 1826   0.458   3.469   2.731
  541HOH      O 1827   2.313   4.041   0.212
  541HOH     H1 1828   2.323   3.956   0.256
  541HOH     H2 1829   2.396   4.085   0.227
  542HOH      O 1830   1.221   2.154   2.294
  542HOH     H1 1831   1.294   2.099   2.266
  542HOH     H2 1832   1.222   2.148   2.390
  543HOH      O 1833   3.819   1.108   3.373
  543HOH     H1 1834   3.891   1.163   3.404
  543HOH     H2 1835   3.862   1.038   3.323
  544HOH      O 1836   1.784   0.064   2.094
  544HOH     H1 1837   1.799  -0.028   2.071
  544HOH     H2 1838   1.696   0.065   2.132
  545HOH      O 1839   0.590   3.799   0.243
  545HOH     H1 1840   0.592   3.770   0.334
  545HOH     H2 1841   0.501   3.780   0.213
  546HOH      O 1842   0.183   0.577   3.307
  546HOH     H1 1843   0.211   0.662   3.272
  546HOH     H2 1844   0.223   0.513   3.248
  547HOH      O 1845   2.951   2.045   0.561
  547HOH     H1 1846   2.894   2.071   0.488
  547HOH     H2 1847   2.898   1.985   0.612
  548HOH      O 1848   3.524   2.135   0.174
  548HOH     H1 1849   3.445   2.155   0.224
  548HOH     H2 1850   3.561   2.221   0.152
  549HOH      O 1851   2.713   0.850   0.919
  549HOH     H1 1852   2.690   0.884   1.006
  549HOH     H2 1853   2.637   0.870   0.864
  550HOH      O 1854   3.190   1.789   0.082
  550HOH     H1 1855   3.242   1.709   0.080
  550HOH     H2 1856   3.242   1.853   0.035
  551HOH      O 1857   0.428   1.120   2.946
  551HOH     H1 1858   0.403   1.195   2.892
  551HOH     H2 1859   0.485   1.068   2.890
  552HOH      O 1860   3.395   1.425   2.178
  552HOH     H1 1861   3.312   1.471   2.176
  552HOH     H2 1862   3.461   1.493   2.163
  553HOH      O 1863   2.839   2.350   2.466
  553HOH     H1 1864   2.747   2.371   2.448
  553HOH     H2 1865   2.886   2.430   2.446
  554HOH      O 1866   0.044   3.913   0.393
  554HOH     H1 1867  -0.046   3.881   0.396
  554HOH     H2 1868   0.039   4.001   0.431
  555HOH      O 1869   2.905   1.424   0.605
  555HOH     H1 1870   2.952   1.422   0.521
  555HOH     H2 1871   2.910   1.334   0.637
  556HOH      O 1872   2.794   2.189   1.613
  556HOH     H1 1873   2.796   2.247   1.536
  556HOH     H2 1874   2.827   2.105   1.581
  557HOH      O 1875   1.628   3.672   1.761
  557HOH     H1 1876   1.597   3.621   1.686
  557HOH     H2 1877   1.660   3.607   1.823
  558HOH      O 1878   0.106   3.374   3.401
  558HOH     H1 1879   0.017   3.348   3.424
  558HOH     H2 1880   0.125   3.449   3.458
  559HOH      O 1881   0.146   3.486   0.474
  559HOH     H1 1882   0.180   3.574   0.458
  559HOH     H2 1883   0.201   3.451   0.545
  560HOH      O 1884   1.175   0.683   0.513
  560HOH     H1 1885   1.183   0.693   0.418
  560HOH     H2 1886   1.083   0.660   0.527
  561HOH      O 1887   1.113   3.303   1.129
  561HOH     H1 1888   1.173   3.323   1.057
  561HOH     H2 1889   1.026   3.320   1.094
  562HOH      O 1890   1.931   3.394   1.401
  562HOH     H1 1891   1.875   3.461   1.439
  562HOH     H2 1892   1.911   3.314   1.450
  563HOH      O 1893   2.712   0.313   2.805
  563HOH     H1 1894   2.635   0.313   2.863
  563HOH     H2 1895   2.691   0.248   2.739
  564HOH      O 1896   3.071   2.142   1.359
  564HOH     H1 1897   3.046   2.092   1.436
  564HOH     H2 1898   3.105   2.077   1.298
  565HOH      O 1899   1.220   2.185   3.876
  565HOH     H1 1900   1.130   2.195   3.907
  565HOH     H2 1901   1.230   2.253   3.809
  566HOH      O 1902   0.537   1.257   0.254
  566HOH     H1 1903   0.509   1.309   0.329
  566HOH     H2 1904   0.583   1.182   0.293
  567HOH      O 1905   0.222   0.718   0.919
  567HOH     H1 1906   0.226   0.639   0.865
  567HOH     H2 1907   0.313   0.740   0.936
  568HOH      O 1908   2.136   3.211   3.223
  568HOH     H1 1909   2.145   3.299   3.185
  568HOH     H2 1910   2.073   3.222   3.294
  569HOH      O 1911   3.224   1.366   0.405
  569HOH     H1 1912   3.220   1.435   0.471
  569HOH     H2 1913   3.211   1.285   0.454
  570HOH      O 1914   3.844   2.800   3.083
  570HOH     H1 1915   3.777   2.838   3.140
  570HOH     H2 1916   3.927   2.834   3.118
  571HOH      O 1917   3.640   0.076   1.416
  571HOH     H1 1918   3.652   0.142   1.349
  571HOH     H2 1919   3.705   0.096   1.482
  572HOH      O 1920   3.099   3.230   3.752
  572HOH     H1 1921   3.194   3.228   3.756
  572HOH     H2 1922   3.071   3.166   3.818
  573HOH      O 1923   1.123   1.552   1.533
  573HOH     H1 1924   1.069   1.631   1.525
  573HOH     H2 1925   1.067   1.481   1.503
  574HOH      O 1926   0.695   3.037   1.760
  574HOH     H1 1927   0.699   3.048   1.665
  574HOH     H2 1928   0.652   3.116   1.791
  575HOH      O 1929   2.350   1.753   1.981
  575HOH     H1 1930   2.292   1.724   1.910
  575HOH     H2 1931   2.308   1.830   2.017
  576HOH      O 1932   2.361   0.325   2.198
  576HOH     H1 1933   2.351   0.256   2.264
  576HOH     H2 1934   2.389   0.280   2.119
  577HOH      O 1935   1.312   1.228   0.777
  577HOH     H1 1936   1.384   1.278   0.815
  577HOH     H2 1937   1.335   1.217   0.685
  578HOH      O 1938   1.117   3.491   0.622
  578HOH     H1 1939   1.173   3.530   0.555
  578HOH     H2 1940   1.135   3.543   0.701
  579HOH      O 1941   1.337   0.937   3.062
  579HOH     H1 1942   1.301   0.863   3.013
  579HOH     H2 1943   1.424   0.951   3.023
  580HOH      O 1944   0.904   1.379   0.266
  580HOH     H1 1945   0.954   1.373   0.184
  580HOH     H2 1946   0.863   1.465   0.262
  581HOH      O 1947   2.965   3.525   0.148
  581HOH     H1 1948   2.912   3.477   0.212
  581HOH     H2 1949   3.001   3.457   0.091
  582HOH      O 1950   3.566   2.811   2.793
  582HOH     H1 1951   3.567   2.788   2.886
  582HOH     H2 1952   3.658   2.825   2.771
  583HOH      O 1953   0.754   1.645   1.110
  583HOH     H1 1954   0.698   1.711   1.070
  583HOH     H2 1955   0.773   1.583   1.040
  584HOH      O 1956   1.539   1.144   2.189
  584HOH     H1 1957   1.569   1.180   2.105
  584HOH     H2 1958   1.472   1.080   2.164
  585HOH      O 1959   2.121   3.348   0.516
  585HOH     H1 1960   2.200   3.385   0.556
  585HOH     H2 1961   2.073   3.310   0.589
  586HOH      O 1962   1.572   0.386   3.189
  586HOH     H1 1963   1.508   0.315   3.196
  586HOH     H2 1964   1.613   0.391   3.275
  587HOH      O 1965   1.010   3.831   3.424
  587HOH     H1 1966   0.948   3.760   3.408
  587HOH     H2 1967   1.074   3.824   3.354
  588HOH      O 1968   2.410   3.847   0.736
  588HOH     H1 1969   2.347   3.801   0.679
  588HOH     H2 1970   2.373   3.935   0.746
  589HOH      O 1971   3.999   1.696   0.040
  589HOH     H1 1972   4.051   1.680  -0.039
  589HOH     H2 1973   3.910   1.709   0.008
  590HOH      O 1974   2.893   1.614   2.015
  590HOH     H1 1975   2.820   1.553   2.027
  590HOH     H2 1976   2.855   1.689   1.970
  591HOH      O 1977   3.464   1.491   0.294
  591HOH     H1 1978   3.467   1.550   0.370
  591HOH     H2 1979   3.394   1.429   0.316
  592HOH      O 1980   2.799   3.137   1.612
  592HOH     H1 1981   2.774   3.060   1.562
  592HOH     H2 1982   2.874   3.109   1.664
  593HOH      O 1983   2.285   0.124   1.770
  593HOH     H1 1984   2.336   0.165   1.840
  593HOH     H2 1985   2.197   0.159   1.781
  594HOH      O 1986   0.832   3.789   0.731
  594HOH     H1 1987   0.890   3.834   0.669
  594HOH     H2 1988   0.883   3.782   0.811
  595HOH      O 1989   3.767   2.193   1.598
  595HOH     H1 1990   3.842   2.199   1.657
  595HOH     H2 1991   3.793   2.130   1.531
  596HOH      O 1992   2.007   1.084   0.646
  596HOH     H1 1993   1.974   1.020   0.583
  596HOH     H2 1994   2.094   1.107   0.614
  597HOH      O 1995   0.204   0.385   0.384
  597HOH     H1 1996   0.201   0.353   0.294
  597HOH     H2 1997   0.288   0.432   0.390
  598HOH      O 1998   2.258   2.688   1.972
  598HOH     H1 1999   2.222   2.624   2.033
  598HOH     H2 2000   2.344   2.653   1.948
  599HOH      O 2001   0.375   1.202   2.685
  599HOH     H1 2002   0.282   1.213   2.664
  599HOH     H2 2003   0.419   1.202   2.600
  600HOH      O 2004   3.159   1.149   0.603
  600HOH     H1 2005   3.068   1.122   0.617
  600HOH     H2 2006   3.178   1.208   0.676
  601HOH      O 2007   2.991   2.564   0.652
  601HOH     H1 2008   3.084   2.554   0.674
  601HOH     H2 2009   2.946   2.545   0.734
  602HOH      O 2010   3.672   0.157   1.831
  602HOH     H1 2011   3.680   0.208   1.911
  602HOH     H2 2012   3.578   0.152   1.815
  603HOH      O 2013   1.900   3.869   2.775
  603HOH     H1 2014   1.991   3.898   2.778
  603HOH     H2 2015   1.905   3.776   2.753
  604HOH      O 2016   2.037   3.160   2.392
  604HOH     H1 2017   2.099   3.119   2.452
  604HOH     H2 2018   1.961   3.102   2.393
  605HOH      O 2019   2.073   0.118   2.639
  605HOH     H1 2020   2.108   0.056   2.703
  605HOH     H2 2021   2.064   0.066   2.559
  606HOH      O 2022   2.112   2.036   1.314
  606HOH     H1 2023   2.193   1.999   1.350
  606HOH     H2 2024   2.045   1.970   1.334
  607HOH      O 2025   1.689   2.379   2.257
  607HOH     H1 2026   1.775   2.365   2.219
  607HOH     H2 2027   1.628   2.361   2.185
  608HOH      O 2028   2.071   3.789   3.974
  608HOH     H1 2029   2.161   3.779   3.944
  608HOH     H2 2030   2.076   3.854   4.043
  609HOH      O 2031   2.005   0.795   1.975
  609HOH     H1 2032   1.948   0.720   1.988
  609HOH     H2 2033   2.044   0.781   1.889
  610HOH      O 2034   0.680   2.449   3.138
  610HOH     H1 2035   0.660   2.366   3.180
  610HOH     H2 2036   0.685   2.513   3.209
  611HOH      O 2037   1.552   1.091   3.083
  611HOH     H1 2038   1.491   1.146   3.034
  611HOH     H2 2039   1.501   1.062   3.159
  612HOH      O 2040   1.284   0.562   3.971
  612HOH     H1 2041   1.316   0.498   4.034
  612HOH     H2 2042   1.316   0.531   3.886
  613HOH      O 2043   3.269   0.124   1.703
  613HOH     H1 2044   3.292   0.158   1.790
  613HOH     H2 2045   3.181   0.158   1.687
  614HOH      O 2046   0.118   2.444   3.298
  614HOH     H1 2047   0.030   2.450   3.335
  614HOH     H2 2048   0.169   2.395   3.363
  615HOH      O 2049   0.920   3.731   0.420
  615HOH     H1 2050   0.867   3.659   0.386
  615HOH     H2 2051   0.872   3.762   0.497
  616HOH      O 2052   3.227   3.900   1.782
  616HOH     H1 2053   3.305   3.849   1.806
  616HOH     H2 2054   3.259   3.990   1.772
  617HOH      O 2055   2.642   2.176   1.254
  617HOH     H1 2056   2.713   2.185   1.190
  617HOH     H2 2057   2.658   2.092   1.296
  618HOH      O 2058   1.489   3.971   3.120
  618HOH     H1 2059   1.501   3.935   3.032
  618HOH     H2 2060   1.526   3.905   3.178
  619HOH      O 2061   0.960   2.921   2.973
  619HOH     H1 2062   0.910   2.909   3.054
  619HOH     H2 2063   0.980   3.014   2.970
  620HOH      O 2064   0.003   2.260   2.711
  620HOH     H1 2065   0.009   2.182   2.767
  620HOH     H2 2066   0.090   2.301   2.718
  621HOH      O 2067   3.774   3.689   1.658
  621HOH     H1 2068   3.802   3.718   1.571
  621HOH     H2 2069   3.770   3.769   1.710
  622HOH      O 2070   0.392   2.877   2.968
  622HOH     H1 2071   0.469   2.933   2.979
  622HOH     H2 2072   0.323   2.921   3.017
  623HOH      O 2073   3.756   2.422   3.315
  623HOH     H1 2074   3.666   2.405   3.289
  623HOH     H2 2075   3.805   2.348   3.278
  624HOH      O 2076   3.322   2.003   1.262
  624HOH     H1 2077   3.353   1.913   1.267
  624HOH     H2 2078   3.306   2.028   1.354
  625HOH      O 2079   2.012   1.062   2.877
  625HOH     H1 2080   1.945   1.014   2.924
  625HOH     H2 2081   2.033   1.007   2.801
  626HOH      O 2082   3.942   2.611   3.353
  626HOH     H1 2083   3.891   2.533   3.332
  626HOH     H2 2084   3.882   2.684   3.336
  627HOH      O 2085   2.896   4.037   2.324
  627HOH     H1 2086   2.855   4.015   2.407
  627HOH     H2 2087   2.855   3.978   2.261
  628HOH      O 2088   0.056   0.454   0.624
  628HOH     H1 2089   0.135   0.477   0.672
  628HOH     H2 2090   0.088   0.426   0.538
  629HOH      O 2091   2.523   0.491   2.399
  629HOH     H1 2092   2.440   0.459   2.363
  629HOH     H2 2093   2.568   0.532   2.326
  630HOH      O 2094   3.498   1.246   0.706
  630HOH     H1 2095   3.531   1.241   0.617
  630HOH     H2 2096   3.537   1.326   0.741
  631HOH      O 2097   0.779   1.134   2.796
  631HOH     H1 2098   0.714   1.119   2.727
  631HOH     H2 2099   0.747   1.082   2.870
  632HOH      O 2100   3.028   2.945   3.769
  632HOH     H1 2101   2.991   2.943   3.857
  632HOH     H2 2102   2.952   2.953   3.712
  633HOH      O 2103   0.603   2.465   2.595
  633HOH     H1 2104   0.527   2.492   2.646
  633HOH     H2 2105   0.620   2.539   2.537
  634HOH      O 2106   1.956   0.257   1.152
  634HOH     H1 2107   1.925   0.170   1.178
  634HOH     H2 2108   2.037   0.240   1.103
  635HOH      O 2109   2.368   0.702   3.844
  635HOH     H1 2110   2.303   0.702   3.774
  635HOH     H2 2111   2.318   0.685   3.924
  636HOH      O 2112   3.755   1.848   3.211
  636HOH     H1 2113   3.732   1.769   3.261
  636HOH     H2 2114   3.768   1.816   3.122
  637HOH      O 2115   1.325   0.304   1.876
  637HOH     H1 2116   1.355   0.234   1.933
  637HOH     H2 2117   1.242   0.273   1.841
  638HOH      O 2118   3.016   1.891   0.918
  638HOH     H1 2119   3.074   1.952   0.964
  638HOH     H2 2120   3.051   1.805   0.938
  639HOH      O 2121   3.926   1.671   2.712
  639HOH     H1 2122   3.914   1.609   2.640
  639HOH     H2 2123   4.021   1.676   2.723
  640HOH      O 2124   3.627   3.071   0.931
  640HOH     H1 2125   3.705   3.106   0.974
  640HOH     H2 2126   3.640   2.976   0.931
  641HOH      O 2127   1.323   2.866   3.258
  641HOH     H1 2128   1.318   2.775   3.228
  641HOH     H2 2129   1.233   2.898   3.251
  642HOH      O 2130   1.637   2.199   1.642
  642HOH     H1 2131   1.705   2.212   1.709
  642HOH     H2 2132   1.555   2.210   1.690
  643HOH      O 2133   3.585   1.523   2.652
  643HOH     H1 2134   3.656   1.468   2.619
  643HOH     H2 2135   3.515   1.513   2.587
  644HOH      O 2136   1.484   0.833   1.921
  644HOH     H1 2137   1.395   0.797   1.916
  644HOH     H2 2138   1.498   0.848   2.015
  645HOH      O 2139   0.680   2.531   0.776
  645HOH     H1 2140   0.768   2.499   0.796
  645HOH     H2 2141   0.694   2.597   0.708
  646HOH      O 2142   1.823   3.780   0.979
  646HOH     H1 2143   1.877   3.740   1.047
  646HOH     H2 2144   1.779   3.706   0.937
  647HOH      O 2145   1.385   1.901   2.264
  647HOH     H1 2146   1.396   1.849   2.344
  647HOH     H2 2147   1.307   1.865   2.223
  648HOH      O 2148   3.564   3.282   0.089
  648HOH     H1 2149   3.659   3.290   0.081
  648HOH     H2 2150   3.543   3.331   0.169
  649HOH      O 2151   0.833   2.186   3.079
  649HOH     H1 2152   0.908   2.239   3.054
  649HOH     H2 2153   0.762   2.215   3.022
  650HOH      O 2154   1.868   2.256   1.103
  650HOH     H1 2155   1.841   2.168   1.078
  650HOH     H2 2156   1.886   2.301   1.020
  651HOH      O 2157   1.166   2.217   3.366
  651HOH     H1 2158   1.121   2.296   3.336
  651HOH     H2 2159   1.245   2.212   3.312
  652HOH      O 2160   0.893   1.716   1.880
  652HOH     H1 2161   0.909   1.633   1.924
  652HOH     H2 2162   0.964   1.725   1.817
  653HOH      O 2163   0.625   1.068   0.440
  653HOH     H1 2164   0.583   0.991   0.480
  653HOH     H2 2165   0.718   1.044   0.434
  654HOH      O 2166   1.485   2.065   3.700
  654HOH     H1 2167   1.570   2.109   3.703
  654HOH     H2 2168   1.421   2.136   3.707
  655HOH      O 2169   0.864   1.803   0.855
  655HOH     H1 2170   0.893   1.858   0.782
  655HOH     H2 2171   0.813   1.862   0.910
  656HOH      O 2172   2.033   0.963   2.182
  656HOH     H1 2173   2.119   0.946   2.221
  656HOH     H2 2174   2.021   0.894   2.117
  657HOH      O 2175   0.202   1.225   0.806
  657HOH     H1 2176   0.170   1.145   0.848
  657HOH     H2 2177   0.243   1.194   0.725
  658HOH      O 2178   3.974   2.370   2.407
  658HOH     H1 2179   3.998   2.277   2.401
  658HOH     H2 2180   4.056   2.417   2.396
  659HOH      O 2181   1.807   3.549   3.872
  659HOH     H1 2182   1.810   3.615   3.941
  659HOH     H2 2183   1.809   3.465   3.918
  660HOH      O 2184   0.981   2.039   1.937
  660HOH     H1 2185   1.012   1.973   1.875
  660HOH     H2 2186   0.966   2.117   1.884
  661HOH      O 2187   2.194   1.815   0.254
  661HOH     H1 2188   2.245   1.764   0.192
  661HOH     H2 2189   2.260   1.864   0.305
  662HOH      O 2190   0.796   0.326   2.868
  662HOH     H1 2191   0.892   0.337   2.866
  662HOH     H2 2192   0.772   0.347   2.958
  663HOH      O 2193   0.645   0.874   1.131
  663HOH     H1 2194   0.718   0.902   1.075
  663HOH     H2 2195   0.685   0.859   1.216
  664HOH      O 2196   2.314   1.123   3.137
  664HOH     H1 2197   2.310   1.030   3.114
  664HOH     H2 2198   2.335   1.167   3.055
  665HOH      O 2199   2.590   2.179   4.015
  665HOH     H1 2200   2.605   2.199   3.923
  665HOH     H2 2201   2.675   2.150   4.047
  666HOH      O 2202   1.986   3.338   2.916
  666HOH     H1 2203   1.987   3.243   2.927
  666HOH     H2 2204   1.896   3.358   2.892
  667HOH      O 2205   3.729   3.632   4.032
  667HOH     H1 2206   3.703   3.566   3.968
  667HOH     H2 2207   3.722   3.588   4.116
  668HOH      O 2208   1.153   3.834   0.354
  668HOH     H1 2209   1.070   3.802   0.389
  668HOH     H2 2210   1.209   3.844   0.432
  669HOH      O 2211   0.663   2.721   3.286
  669HOH     H1 2212   0.749   2.723   3.328
  669HOH     H2 2213   0.608   2.776   3.340
  670HOH      O 2214   2.544   2.826   3.254
  670HOH     H1 2215   2.474   2.887   3.232
  670HOH     H2 2216   2.519   2.744   3.211
  671HOH      O 2217   3.616   2.646   3.909
  671HOH     H1 2218   3.647   2.601   3.831
  671HOH     H2 2219   3.692   2.649   3.968
  672HOH      O 2220   2.583   0.102   0.239
  672HOH     H1 2221   2.656   0.089   0.179
  672HOH     H2 2222   2.536   0.178   0.204
  673HOH      O 2223   2.579   3.913   2.684
  673HOH     H1 2224   2.589   3.949   2.772
  673HOH     H2 2225   2.505   3.853   2.690
  674HOH      O 2226   2.002   1.276   1.681
  674HOH     H1 2227   2.055   1.272   1.760
  674HOH     H2 2228   1.914   1.297   1.712
  675HOH      O 2229   2.465   2.523   3.396
  675HOH     H1 2230   2.380   2.541   3.435
  675HOH     H2 2231   2.463   2.567   3.312
  676HOH      O 2232   2.324   0.273   1.517
  676HOH     H1 2233   2.397   0.250   1.460
  676HOH     H2 2234   2.324   0.205   1.584
  677HOH      O 2235   1.649   3.150   2.635
  677HOH     H1 2236   1.676   3.061   2.659
  677HOH     H2 2237   1.571   3.167   2.688
  678HOH      O 2238   1.238   0.327   0.417
  678HOH     H1 2239   1.183   0.313   0.494
  678HOH     H2 2240   1.229   0.246   0.366
  679HOH      O 2241   3.726   1.008   0.869
  679HOH     H1 2242   3.682   1.000   0.954
  679HOH     H2 2243   3.663   1.055   0.814
  680HOH      O 2244   2.071   4.002   0.128
  680HOH     H1 2245   2.021   4.083   0.132
  680HOH     H2 2246   2.161   4.028   0.144
  681HOH      O 2247   1.514   2.246   2.878
  681HOH     H1 2248   1.553   2.160   2.864
  681HOH     H2 2249   1.421   2.227   2.891
  682HOH      O 2250   2.744   3.768   1.743
  682HOH     H1 2251   2.790   3.836   1.792
  682HOH     H2 2252   2.752   3.794   1.651
  683HOH      O 2253   3.144   2.936   0.792
  683HOH     H1 2254   3.076   2.996   0.822
  683HOH     H2 2255   3.146   2.867   0.859
  684HOH      O 2256   1.996   2.453   3.705
  684HOH     H1 2257   1.952   2.434   3.787
  684HOH     H2 2258   1.938   2.515   3.661
  685HOH      O 2259   0.651   2.283   0.404
  685HOH     H1 2260   0.605   2.317   0.481
  685HOH     H2 2261   0.697   2.206   0.436
  686HOH      O 2262   3.180   0.828   0.076
  686HOH     H1 2263   3.112   0.894   0.058
  686HOH     H2 2264   3.262   0.876   0.065
  687HOH      O 2265   1.067   3.448   2.782
  687HOH     H1 2266   1.157   3.480   2.793
  687HOH     H2 2267   1.076   3.354   2.770
  688HOH      O 2268   2.230   3.201   2.790
  688HOH     H1 2269   2.282   3.202   2.710
  688HOH     H2 2270   2.213   3.293   2.809
  689HOH      O 2271   2.037   2.627   1.173
  689HOH     H1 2272   2.065   2.652   1.261
  689HOH     H2 2273   2.030   2.531   1.177
  690HOH      O 2274   1.705   0.331   0.994
  690HOH     H1 2275   1.706   0.298   1.084
  690HOH     H2 2276   1.666   0.418   1.000
  691HOH      O 2277   1.128   1.776   2.635
  691HOH     H1 2278   1.056   1.781   2.698
  691HOH     H2 2279   1.089   1.734   2.558
  692HOH      O 2280   3.742   2.197   0.787
  692HOH     H1 2281   3.709   2.116   0.825
  692HOH     H2 2282   3.837   2.190   0.795
  693HOH      O 2283   3.960   0.392   1.288
  693HOH     H1 2284   4.034   0.451   1.273
  693HOH     H2 2285   3.941   0.401   1.381
  694HOH      O 2286   3.852   1.699   1.496
  694HOH     H1 2287   3.776   1.742   1.537
  694HOH     H2 2288   3.926   1.755   1.519
  695HOH      O 2289   0.726   0.987   3.004
  695HOH     H1 2290   0.730   0.894   2.983
  695HOH     H2 2291   0.697   0.990   3.095
  696HOH      O 2292   3.842   2.396   0.169
  696HOH     H1 2293   3.852   2.489   0.190
  696HOH     H2 2294   3.768   2.393   0.108
  697HOH      O 2295   0.329   0.519   2.890
  697HOH     H1 2296   0.362   0.602   2.924
  697HOH     H2 2297   0.240   0.513   2.925
  698HOH      O 2298   1.578   0.193   0.021
  698HOH     H1 2299   1.536   0.277   0.001
  698HOH     H2 2300   1.509   0.128   0.005
  699HOH      O 2301   1.954   3.687   2.203
  699HOH     H1 2302   1.971   3.762   2.146
  699HOH     H2 2303   1.977   3.718   2.290
  700HOH      O 2304   2.496   2.341   0.574
  700HOH     H1 2305   2.545   2.278   0.626
  700HOH     H2 2306   2.440   2.386   0.637
  701HOH      O 2307   3.015   0.234   1.668
  701HOH     H1 2308   2.947   0.204   1.607
  701HOH     H2 2309   2.973   0.229   1.754
  702HOH      O 2310   3.770   1.963   0.119
  702HOH     H1 2311   3.704   2.028   0.140
  702HOH     H2 2312   3.848   2.014   0.096
  703HOH      O 2313   0.164   1.601   3.916
  703HOH     H1 2314   0.235   1.665   3.915
  703HOH     H2 2315   0.136   1.595   3.825
  704HOH      O 2316   1.559   1.227   0.272
  704HOH     H1 2317   1.571   1.319   0.248
  704HOH     H2 2318   1.520   1.187   0.194
  705HOH      O 2319   2.050   1.238   0.382
  705HOH     H1 2320   2.071   1.188   0.303
  705HOH     H2 2321   1.954   1.239   0.385
  706HOH      O 2322   0.930   1.052   1.512
  706HOH     H1 2323   0.982   1.102   1.448
  706HOH     H2 2324   0.989   0.983   1.541
  707HOH      O 2325   3.754   2.208   2.156
  707HOH     H1 2326   3.718   2.199   2.244
  707HOH     H2 2327   3.846   2.232   2.170
  708HOH      O 2328   1.119   1.454   0.829
  708HOH     H1 2329   1.070   1.374   0.812
  708HOH     H2 2330   1.211   1.428   0.821
  709HOH      O 2331   1.577   2.065   0.037
  709HOH     H1 2332   1.498   2.017   0.011
  709HOH     H2 2333   1.544   2.132   0.098
  710HOH      O 2334   2.695   2.729   3.914
  710HOH     H1 2335   2.710   2.781   3.835
  710HOH     H2 2336   2.614   2.764   3.951
  711HOH      O 2337   3.522   0.536   2.377
  711HOH     H1 2338   3.557   0.622   2.396
  711HOH     H2 2339   3.469   0.548   2.298
  712HOH      O 2340   1.370   0.786   1.543
  712HOH     H1 2341   1.347   0.715   1.603
  712HOH     H2 2342   1.289   0.835   1.531
  713HOH      O 2343   1.545   1.028   0.821
  713HOH     H1 2344   1.486   1.077   0.763
  713HOH     H2 2345   1.488   0.964   0.864
  714HOH      O 2346   0.701   1.673   2.332
  714HOH     H1 2347   0.671   1.582   2.328
  714HOH     H2 2348   0.627   1.725   2.301
  715HOH      O 2349   3.788   1.106   1.575
  715HOH     H1 2350   3.712   1.103   1.517
  715HOH     H2 2351   3.811   1.014   1.589
  716HOH      O 2352   2.931   1.072   1.297
  716HOH     H1 2353   2.930   1.119   1.380
  716HOH     H2 2354   2.839   1.055   1.278
  717HOH      O 2355   2.902   0.054   0.385
  717HOH     H1 2356   2.942   0.134   0.420
  717HOH     H2 2357   2.909   0.064   0.290
  718HOH      O 2358   1.285   3.182   0.560
  718HOH     H1 2359   1.277   3.100   0.609
  718HOH     H2 2360   1.215   3.178   0.494
  719HOH      O 2361   1.639   0.765   0.575
  719HOH     H1 2362   1.610   0.681   0.540
  719HOH     H2 2363   1.557   0.812   0.594
  720HOH      O 2364   2.584   2.430   2.695
  720HOH     H1 2365   2.564   2.451   2.604
  720HOH     H2 2366   2.501   2.442   2.742
  721HOH      O 2367   2.137   2.450   2.708
  721HOH     H1 2368   2.121   2.428   2.616
  721HOH     H2 2369   2.050   2.450   2.748
  722HOH      O 2370   0.813   3.643   3.360
  722HOH     H1 2371   0.777   3.658   3.273
  722HOH     H2 2372   0.755   3.578   3.399
  723HOH      O 2373   1.256   3.005   2.554
  723HOH     H1 2374   1.307   2.925   2.565
  723HOH     H2 2375   1.274   3.033   2.464
  724HOH      O 2376   1.850   0.189   2.849
  724HOH     H1 2377   1.943   0.192   2.824
  724HOH     H2 2378   1.851   0.195   2.945
  725HOH      O 2379   4.014   2.110   0.158
  725HOH     H1 2380   4.078   2.047   0.125
  725HOH     H2 2381   3.999   2.169   0.084
  726HOH      O 2382   1.705   2.646   2.297
  726HOH     H1 2383   1.688   2.554   2.279
  726HOH     H2 2384   1.757   2.646   2.377
  727HOH      O 2385   3.298   1.983   0.437
  727HOH     H1 2386   3.303   2.073   0.404
  727HOH     H2 2387   3.349   1.985   0.518
  728HOH      O 2388   1.399   0.881   0.573
  728HOH     H1 2389   1.324   0.823   0.585
  728HOH     H2 2390   1.364   0.956   0.525
  729HOH      O 2391   0.256   1.635   3.105
  729HOH     H1 2392   0.170   1.594   3.094
  729HOH     H2 2393   0.311   1.566   3.142
  730HOH      O 2394   3.216   3.606   2.647
  730HOH     H1 2395   3.196   3.695   2.620
  730HOH     H2 2396   3.270   3.570   2.576
  731HOH      O 2397   2.007   2.722   3.248
  731HOH     H1 2398   2.026   2.676   3.166
  731HOH     H2 2399   2.063   2.679   3.313
  732HOH      O 2400   1.935   2.356   2.152
  732HOH     H1 2401   1.959   2.402   2.072
  732HOH     H2 2402   2.017   2.348   2.200
  733HOH      O 2403   1.390   0.094   2.037
  733HOH     H1 2404   1.368   0.002   2.030
  733HOH     H2 2405   1.459   0.098   2.103
  734HOH      O 2406   2.429   1.007   1.479
  734HOH     H1 2407   2.365   0.936   1.488
  734HOH     H2 2408   2.475   0.987   1.397
  735HOH      O 2409   3.775   2.980   3.966
  735HOH     H1 2410   3.784   2.975   4.061
  735HOH     H2 2411   3.767   2.889   3.937
  736HOH      O 2412   1.278   3.740   1.159
  736HOH     H1 2413   1.308   3.679   1.226
  736HOH     H2 2414   1.338   3.814   1.166
  737HOH      O 2415   2.937   1.736   3.248
  737HOH     H1 2416   2.855   1.737   3.197
  737HOH     H2 2417   2.992   1.671   3.204
  738HOH      O 2418   0.369   3.432   3.405
  738HOH     H1 2419   0.281   3.393   3.400
  738HOH     H2 2420   0.411   3.408   3.323
  739HOH      O 2421   1.742   3.793   0.705
  739HOH     H1 2422   1.680   3.771   0.635
  739HOH     H2 2423   1.738   3.888   0.712
  740HOH      O 2424   2.612   1.484   1.775
  740HOH     H1 2425   2.655   1.462   1.692
  740HOH     H2 2426   2.522   1.453   1.764
  741HOH      O 2427   0.154   3.303   0.753
  741HOH     H1 2428   0.083   3.368   0.752
  741HOH     H2 2429   0.233   3.354   0.771
  742HOH      O 2430   2.853   1.834   1.790
  742HOH     H1 2431   2.767   1.833   1.833
  742HOH     H2 2432   2.904   1.896   1.842
  743HOH      O 2433   3.649   3.574   2.031
  743HOH     H1 2434   3.597   3.652   2.010
  743HOH     H2 2435   3.600   3.531   2.101
  744HOH      O 2436   3.035   2.801   1.384
  744HOH     H1 2437   3.057   2.722   1.434
  744HOH     H2 2438   3.004   2.769   1.300
  745HOH      O 2439   1.116   1.448   0.430
  745HOH     H1 2440   1.036   1.426   0.383
  745HOH     H2 2441   1.184   1.446   0.362
  746HOH      O 2442   2.035   0.734   0.311
  746HOH     H1 2443   2.074   0.718   0.398
  746HOH     H2 2444   2.057   0.655   0.261
  747HOH      O 2445   3.333   1.721   3.707
  747HOH     H1 2446   3.350   1.755   3.795
  747HOH     H2 2447   3.419   1.698   3.673
  748HOH      O 2448   1.296   1.861   0.924
  748HOH     H1 2449   1.217   1.814   0.950
  748HOH     H2 2450   1.339   1.802   0.862
  749HOH      O 2451   1.244   2.162   0.541
  749HOH     H1 2452   1.249   2.090   0.478
  749HOH     H2 2453   1.245   2.119   0.626
  750HOH      O 2454   1.287   3.730   2.210
  750HOH     H1 2455   1.195   3.705   2.213
  750HOH     H2 2456   1.299   3.788   2.285
  751HOH      O 2457   2.011   1.267   3.066
  751HOH     H1 2458   2.035   1.193   3.010
  751HOH     H2 2459   2.025   1.234   3.155
  752HOH      O 2460   1.914   1.283   0.835
  752HOH     H1 2461   1.940   1.233   0.757
  752HOH     H2 2462   1.822   1.260   0.848
  753HOH      O 2463   2.311   2.428   0.781
  753HOH     H1 2464   2.303   2.343   0.824
  753HOH     H2 2465   2.268   2.490   0.840
  754HOH      O 2466   3.531   1.019   3.201
  754HOH     H1 2467   3.457   0.960   3.187
  754HOH     H2 2468   3.596   0.993   3.136
  755HOH      O 2469   0.447   3.087   3.946
  755HOH     H1 2470   0.380   3.147   3.915
  755HOH     H2 2471   0.511   3.143   3.990
  756HOH      O 2472   2.283   1.628   1.462
  756HOH     H1 2473   2.335   1.668   1.393
  756HOH     H2 2474   2.204   1.597   1.417
  757HOH      O 2475   2.186   0.307  -0.003
  757HOH     H1 2476   2.139   0.381   0.035
  757HOH     H2 2477   2.119   0.242  -0.022
  758HOH      O 2478   3.409   0.959   3.943
  758HOH     H1 2479   3.427   0.943   3.850
  758HOH     H2 2480   3.334   1.019   3.942
  759HOH      O 2481   1.014   3.302   0.787
  759HOH     H1 2482   0.993   3.215   0.753
  759HOH     H2 2483   1.086   3.332   0.732
  760HOH      O 2484   0.576   1.237   1.696
  760HOH     H1 2485   0.520   1.314   1.702
  760HOH     H2 2486   0.558   1.201   1.609
  761HOH      O 2487   2.976   0.810   0.813
  761HOH     H1 2488   2.881   0.825   0.819
  761HOH     H2 2489   2.988   0.768   0.728
  762HOH      O 2490   2.578   0.587   3.086
  762HOH     H1 2491   2.542   0.655   3.030
  762HOH     H2 2492   2.578   0.508   3.032
  763HOH      O 2493   0.255   0.420   3.675
  763HOH     H1 2494   0.308   0.478   3.730
  763HOH     H2 2495   0.235   0.346   3.732
  764HOH      O 2496   0.244   3.737   0.467
  764HOH     H1 2497   0.192   3.803   0.423
  764HOH     H2 2498   0.211   3.736   0.557
  765HOH      O 2499   0.253   1.785   3.498
  765HOH     H1 2500   0.317   1.739   3.552
  765HOH     H2 2501   0.184   1.811   3.558
  766HOH      O 2502   4.008   1.425   3.046
  766HOH     H1 2503   3.988   1.391   2.959
  766HOH     H2 2504   3.926   1.462   3.077
  767HOH      O 2505   2.399   3.277   2.041
  767HOH     H1 2506   2.314   3.258   2.082
  767HOH     H2 2507   2.407   3.211   1.972
  768HOH      O 2508   1.607   0.795   2.807
  768HOH     H1 2509   1.575   0.835   2.726
  768HOH     H2 2510   1.614   0.702   2.785
  769HOH      O 2511   0.694   2.827   0.940
  769HOH     H1 2512   0.633   2.850   0.869
  769HOH     H2 2513   0.705   2.908   0.989
  770HOH      O 2514   3.503   2.560   1.860
  770HOH     H1 2515   3.455   2.568   1.942
  770HOH     H2 2516   3.582   2.511   1.882
  771HOH      O 2517   1.426   2.248   0.194
  771HOH     H1 2518   1.415   2.343   0.197
  771HOH     H2 2519   1.494   2.230   0.259
  772HOH      O 2520   0.058   1.178   3.652
  772HOH     H1 2521   0.153   1.178   3.664
  772HOH     H2 2522   0.046   1.193   3.558
  773HOH      O 2523   0.094   1.134   2.115
  773HOH     H1 2524   0.109   1.121   2.208
  773HOH     H2 2525   0.179   1.118   2.074
  774HOH      O 2526   2.857   1.194   2.062
  774HOH     H1 2527   2.929   1.193   2.125
  774HOH     H2 2528   2.779   1.181   2.116
  775HOH      O 2529   1.780   2.039   3.467
  775HOH     H1 2530   1.692   2.034   3.431
  775HOH     H2 2531   1.775   2.108   3.533
  776HOH      O 2532   2.193   2.234   2.249
  776HOH     H1 2533   2.273   2.281   2.268
  776HOH     H2 2534   2.222   2.153   2.207
  777HOH      O 2535   0.447   3.361   0.183
  777HOH     H1 2536   0.434   3.285   0.240
  777HOH     H2 2537   0.360   3.377   0.146
  778HOH      O 2538   2.822   0.497   0.295
  778HOH     H1 2539   2.851   0.473   0.208
  778HOH     H2 2540   2.893   0.469   0.353
  779HOH      O 2541   1.708   3.319   3.570
  779HOH     H1 2542   1.629   3.351   3.612
  779HOH     H2 2543   1.767   3.395   3.568
  780HOH      O 2544   3.796   2.651   2.237
  780HOH     H1 2545   3.867   2.659   2.174
  780HOH     H2 2546   3.757   2.739   2.241
  781HOH      O 2547   0.585   1.867   1.406
  781HOH     H1 2548   0.531   1.823   1.339
  781HOH     H2 2549   0.585   1.807   1.480
  782HOH      O 2550   0.103   3.646   1.669
  782HOH     H1 2551   0.110   3.741   1.680
  782HOH     H2 2552   0.096   3.612   1.758
  783HOH      O 2553   3.658   0.790   2.201
  783HOH     H1 2554   3.682   0.708   2.158
  783HOH     H2 2555   3.592   0.829   2.143
  784HOH      O 2556   2.111   1.526   0.597
  784HOH     H1 2557   2.058   1.458   0.639
  784HOH     H2 2558   2.077   1.608   0.633
  785HOH      O 2559   3.860   3.800   0.401
  785HOH     H1 2560   3.764   3.805   0.394
  785HOH     H2 2561   3.878   3.709   0.425
  786HOH      O 2562   1.558   1.980   0.401
  786HOH     H1 2563   1.596   2.068   0.399
  786HOH     H2 2564   1.519   1.973   0.488
  787HOH      O 2565   2.571   1.435   1.246
  787HOH     H1 2566   2.594   1.430   1.339
  787HOH     H2 2567   2.653   1.415   1.201
  788HOH      O 2568   3.929   1.762   1.113
  788HOH     H1 2569   3.950   1.854   1.126
  788HOH     H2 2570   3.834   1.757   1.123
  789HOH      O 2571   3.776   3.538   3.201
  789HOH     H1 2572   3.760   3.593   3.125
  789HOH     H2 2573   3.803   3.453   3.165
  790HOH      O 2574   1.910   0.614   0.712
  790HOH     H1 2575   1.834   0.589   0.660
  790HOH     H2 2576   1.895   0.576   0.798
  791HOH      O 2577   0.532   2.825   3.516
  791HOH     H1 2578   0.509   2.909   3.476
  791HOH     H2 2579   0.553   2.847   3.607
  792HOH      O 2580   3.050   0.585   1.792
  792HOH     H1 2581   3.056   0.514   1.857
  792HOH     H2 2582   3.140   0.605   1.769
  793HOH      O 2583   0.025   0.158   0.383
  793HOH     H1 2584  -0.067   0.181   0.373
  793HOH     H2 2585   0.073   0.236   0.357
  794HOH      O 2586   0.740   1.281   3.051
  794HOH     H1 2587   0.812   1.235   3.007
  794HOH     H2 2588   0.687   1.212   3.090
  795HOH      O 2589   2.738   1.516   2.614
  795HOH     H1 2590   2.696   1.566   2.684
  795HOH     H2 2591   2.822   1.559   2.599
  796HOH      O 2592   0.302   1.572   2.366
  796HOH     H1 2593   0.277   1.602   2.453
  796HOH     H2 2594   0.303   1.477   2.372
  797HOH      O 2595   1.936   0.336   2.590
  797HOH     H1 2596   1.989   0.257   2.599
  797HOH     H2 2597   1.869   0.312   2.527
  798HOH      O 2598   2.852   2.367   1.414
  798HOH     H1 2599   2.900   2.311   1.353
  798HOH     H2 2600   2.876   2.456   1.390
  799HOH      O 2601   3.273   1.540   1.766
  799HOH     H1 2602   3.291   1.447   1.760
  799HOH     H2 2603   3.220   1.550   1.845
  800HOH      O 2604   3.871   3.037   2.480
  800HOH     H1 2605   3.929   3.113   2.473
  800HOH     H2 2606   3.916   2.978   2.539
  801HOH      O 2607   1.695   2.886   2.737
  801HOH     H1 2608   1.765   2.869   2.801
  801HOH     H2 2609   1.616   2.894   2.790
  802HOH      O 2610   1.002   0.474   3.094
  802HOH     H1 2611   1.017   0.452   3.002
  802HOH     H2 2612   0.985   0.389   3.136
  803HOH      O 2613   3.339   1.219   2.736
  803HOH     H1 2614   3.365   1.239   2.646
  803HOH     H2 2615   3.401   1.151   2.764
  804HOH      O 2616   3.019   1.103   0.261
  804HOH     H1 2617   2.981   1.034   0.206
  804HOH     H2 2618   3.111   1.107   0.234
  805HOH      O 2619   1.835   3.630   3.212
  805HOH     H1 2620   1.912   3.659   3.164
  805HOH     H2 2621   1.781   3.708   3.222
  806HOH      O 2622   3.342   2.996   1.282
  806HOH     H1 2623   3.375   2.947   1.357
  806HOH     H2 2624   3.338   3.087   1.312
  807HOH      O 2625   3.389   0.170   3.045
  807HOH     H1 2626   3.373   0.099   2.983
  807HOH     H2 2627   3.483   0.166   3.062
  808HOH      O 2628   0.336   1.179   0.562
  808HOH     H1 2629   0.334   1.127   0.481
  808HOH     H2 2630   0.400   1.248   0.545
  809HOH      O 2631   1.393   1.395   2.365
  809HOH     H1 2632   1.452   1.444   2.308
  809HOH     H2 2633   1.444   1.378   2.444
  810HOH      O 2634   1.784   2.772   0.719
  810HOH     H1 2635   1.846   2.700   0.715
  810HOH     H2 2636   1.801   2.823   0.640
  811HOH      O 2637   2.110   2.597   3.032
  811HOH     H1 2638   2.108   2.606   2.936
  811HOH     H2 2639   2.095   2.504   3.047
  812HOH      O 2640   0.402   1.490   2.751
  812HOH     H1 2641   0.416   1.409   2.702
  812HOH     H2 2642   0.485   1.504   2.798
  813HOH      O 2643   0.823   3.947   3.859
  813HOH     H1 2644   0.813   3.931   3.952
  813HOH     H2 2645   0.846   3.862   3.822
  814HOH      O 2646   3.311   0.617   3.486
  814HOH     H1 2647   3.294   0.712   3.487
  814HOH     H2 2648   3.340   0.597   3.575
  815HOH      O 2649   0.922   2.080   2.672
  815HOH     H1 2650   0.912   2.175   2.671
  815HOH     H2 2651   0.875   2.050   2.594
  816HOH      O 2652   1.688   0.577   3.803
  816HOH     H1 2653   1.758   0.519   3.834
  816HOH     H2 2654   1.683   0.646   3.869
  817HOH      O 2655  -0.002   2.218   2.082
  817HOH     H1 2656   0.080   2.173   2.100
  817HOH     H2 2657   0.013   2.308   2.111
  818HOH      O 2658   3.657   3.487   1.779
  818HOH     H1 2659   3.692   3.544   1.711
  818HOH     H2 2660   3.674   3.534   1.861
  819HOH      O 2661   1.883   1.954   3.879
  819HOH     H1 2662   1.965   1.985   3.841
  819HOH     H2 2663   1.905   1.934   3.971
  820HOH      O 2664   3.815   0.841   1.599
  820HOH     H1 2665   3.768   0.783   1.660
  820HOH     H2 2666   3.869   0.781   1.547
  821HOH      O 2667   0.951   0.582   3.542
  821HOH     H1 2668   1.033   0.631   3.550
  821HOH     H2 2669   0.893   0.641   3.493
  822HOH      O 2670   0.538   2.190   3.646
  822HOH     H1 2671   0.561   2.278   3.674
  822HOH     H2 2672   0.513   2.199   3.554
  823HOH      O 2673   3.603   2.804   0.980
  823HOH     H1 2674   3.569   2.726   1.026
  823HOH     H2 2675   3.655   2.768   0.908
  824HOH      O 2676   3.334   0.103   0.425
  824HOH     H1 2677   3.404   0.156   0.462
  824HOH     H2 2678   3.379   0.040   0.368
  825HOH      O 2679   2.142   3.547   2.059
  825HOH     H1 2680   2.145   3.465   2.108
  825HOH     H2 2681   2.055   3.582   2.076
  826HOH      O 2682   3.104   0.702   1.036
  826HOH     H1 2683   3.091   0.764   1.108
  826HOH     H2 2684   3.070   0.748   0.959
  827HOH      O 2685   0.092   3.593   4.005
  827HOH     H1 2686   0.025   3.624   4.066
  827HOH     H2 2687   0.076   3.499   3.998
  828HOH      O 2688   1.482   0.301   0.638
  828HOH     H1 2689   1.387   0.294   0.643
  828HOH     H2 2690   1.515   0.229   0.693
  829HOH      O 2691   3.608   2.948   0.522
  829HOH     H1 2692   3.589   2.874   0.580
  829HOH     H2 2693   3.598   3.025   0.577
  830HOH      O 2694   0.028   1.160   0.456
  830HOH     H1 2695   0.088   1.170   0.382
  830HOH     H2 2696   0.038   1.068   0.483
  831HOH      O 2697   0.634   1.466   2.899
  831HOH     H1 2698   0.665   1.383   2.936
  831HOH     H2 2699   0.680   1.533   2.949
  832HOH      O 2700   1.659   3.182   0.160
  832HOH     H1 2701   1.672   3.090   0.138
  832HOH     H2 2702   1.582   3.182   0.217
  833HOH      O 2703   2.358   3.015   0.669
  833HOH     H1 2704   2.437   3.067   0.651
  833HOH     H2 2705   2.387   2.924   0.662
  834HOH      O 2706   3.265   1.972   3.589
  834HOH     H1 2707   3.210   1.944   3.515
  834HOH     H2 2708   3.272   1.894   3.644
  835HOH      O 2709   3.927   2.215   3.231
  835HOH     H1 2710   3.916   2.160   3.153
  835HOH     H2 2711   3.978   2.161   3.291
  836HOH      O 2712   3.537   0.994   2.381
  836HOH     H1 2713   3.568   0.911   2.347
  836HOH     H2 2714   3.502   0.973   2.467
  837HOH      O 2715   1.515   3.552   1.061
  837HOH     H1 2716   1.485   3.618   0.999
  837HOH     H2 2717   1.440   3.534   1.117
  838HOH      O 2718   0.905   0.866   0.325
  838HOH     H1 2719   0.912   0.825   0.411
  838HOH     H2 2720   0.830   0.823   0.284
  839HOH      O 2721   2.226   2.594   3.927
  839HOH     H1 2722   2.242   2.607   4.021
  839HOH     H2 2723   2.135   2.567   3.922
  840HOH      O 2724   1.945   3.501   1.153
  840HOH     H1 2725   1.934   3.441   1.227
  840HOH     H2 2726   1.938   3.445   1.076
  841HOH      O 2727   1.078   2.084   0.204
  841HOH     H1 2728   1.066   2.145   0.277
  841HOH     H2 2729   1.053   2.135   0.126
  842HOH      O 2730   1.337   2.634   2.239
  842HOH     H1 2731   1.392   2.703   2.203
  842HOH     H2 2732   1.247   2.661   2.219
  843HOH      O 2733   3.970   2.985   2.034
  843HOH     H1 2734   4.056   3.020   2.057
  843HOH     H2 2735   3.932   3.049   1.974
  844HOH      O 2736   0.574   3.157   0.761
  844HOH     H1 2737   0.499   3.212   0.779
  844HOH     H2 2738   0.609   3.190   0.678
  845HOH      O 2739   3.694   2.031   2.972
  845HOH     H1 2740   3.635   1.963   3.006
  845HOH     H2 2741   3.668   2.111   3.017
  846HOH      O 2742   1.860   2.479   3.401
  846HOH     H1 2743   1.802   2.552   3.378
  846HOH     H2 2744   1.806   2.423   3.456
  847HOH      O 2745   2.680   3.484   0.602
  847HOH     H1 2746   2.615   3.508   0.668
  847HOH     H2 2747   2.756   3.538   0.622
  848HOH      O 2748   2.036   1.839   0.471
  848HOH     H1 2749   2.129   1.818   0.477
  848HOH     H2 2750   2.014   1.823   0.379
  849HOH      O 2751   1.242   1.804   3.034
  849HOH     H1 2752   1.188   1.725   3.024
  849HOH     H2 2753   1.210   1.864   2.967
  850HOH      O 2754   2.331   2.168   3.877
  850HOH     H1 2755   2.274   2.206   3.945
  850HOH     H2 2756   2.400   2.123   3.927
  851HOH      O 2757   3.120   2.306   1.975
  851HOH     H1 2758   3.164   2.379   2.017
  851HOH     H2 2759   3.086   2.342   1.893
  852HOH      O 2760   1.478   1.899   1.902
  852HOH     H1 2761   1.431   1.816   1.916
  852HOH     H2 2762   1.420   1.951   1.847
  853HOH      O 2763   2.159   3.304   2.196
  853HOH     H1 2764   2.110   3.257   2.129
  853HOH     H2 2765   2.115   3.282   2.278
  854HOH      O 2766   0.329   3.762   1.881
  854HOH     H1 2767   0.309   3.850   1.912
  854HOH     H2 2768   0.257   3.708   1.913
  855HOH      O 2769   3.849   1.530   2.150
  855HOH     H1 2770   3.900   1.468   2.201
  855HOH     H2 2771   3.914   1.584   2.105
  856HOH      O 2772   2.495   0.469   2.835
  856HOH     H1 2773   2.416   0.447   2.786
  856HOH     H2 2774   2.552   0.511   2.771
  857HOH      O 2775   0.915   2.670   3.451
  857HOH     H1 2776   0.889   2.578   3.464
  857HOH     H2 2777   0.905   2.709   3.538
  858HOH      O 2778   3.156   4.006   0.262
  858HOH     H1 2779   3.165   4.058   0.342
  858HOH     H2 2780   3.119   3.923   0.291
  859HOH      O 2781   3.667   1.992   0.927
  859HOH     H1 2782   3.681   1.907   0.968
  859HOH     H2 2783   3.588   1.981   0.875
  860HOH      O 2784   2.614   1.288   3.721
  860HOH     H1 2785   2.692   1.336   3.693
  860HOH     H2 2786   2.596   1.321   3.809
  861HOH      O 2787   0.472   0.825   0.456
  861HOH     H1 2788   0.403   0.787   0.511
  861HOH     H2 2789   0.500   0.753   0.400
  862HOH      O 2790   3.436   1.122   1.562
  862HOH     H1 2791   3.496   1.177   1.612
  862HOH     H2 2792   3.473   1.120   1.474
  863HOH      O 2793   1.655   1.168   1.565
  863HOH     H1 2794   1.590   1.129   1.623
  863HOH     H2 2795   1.656   1.111   1.488
  864HOH      O 2796   0.045   1.113   1.322
  864HOH     H1 2797  -0.043   1.092   1.291
  864HOH     H2 2798   0.032   1.154   1.407
  865HOH      O 2799   1.710   0.038   2.642
  865HOH     H1 2800   1.774  -0.033   2.650
  865HOH     H2 2801   1.737   0.102   2.707
  866HOH      O 2802   1.370   2.393   0.494
  866HOH     H1 2803   1.328   2.308   0.503
  866HOH     H2 2804   1.333   2.445   0.565
  867HOH      O 2805   2.710   1.390   3.381
  867HOH     H1 2806   2.698   1.371   3.288
  867HOH     H2 2807   2.624   1.419   3.411
  868HOH      O 2808   1.362   3.870   1.997
  868HOH     H1 2809   1.325   3.823   2.071
  868HOH     H2 2810   1.447   3.829   1.982
  869HOH      O 2811   2.546   3.464   2.621
  869HOH     H1 2812   2.474   3.429   2.568
  869HOH     H2 2813   2.614   3.486   2.557
  870HOH      O 2814   1.330   2.745   1.162
  870HOH     H1 2815   1.257   2.807   1.158
  870HOH     H2 2816   1.400   2.794   1.206
  871HOH      O 2817   1.633   1.381   1.324
  871HOH     H1 2818   1.556   1.387   1.380
  871HOH     H2 2819   1.700   1.341   1.380
  872HOH      O 2820   1.911   3.015   0.863
  872HOH     H1 2821   1.819   2.996   0.845
  872HOH     H2 2822   1.921   3.108   0.844
  873HOH      O 2823   3.611   0.835   1.310
  873HOH     H1 2824   3.704   0.810   1.308
  873HOH     H2 2825   3.573   0.777   1.376
  874HOH      O 2826   3.243   1.292   0.120
  874HOH     H1 2827   3.245   1.357   0.050
  874HOH     H2 2828   3.194   1.335   0.191
  875HOH      O 2829   0.230   0.199   3.859
  875HOH     H1 2830   0.233   0.272   3.921
  875HOH     H2 2831   0.151   0.150   3.884
  876HOH      O 2832   1.605   0.123   0.820
  876HOH     H1 2833   1.668   0.100   0.752
  876HOH     H2 2834   1.658   0.157   0.892
  877HOH      O 2835   3.523   2.549   1.099
  877HOH     H1 2836   3.433   2.519   1.084
  877HOH     H2 2837   3.554   2.495   1.172
  878HOH      O 2838   3.714   0.214   3.987
  878HOH     H1 2839   3.676   0.251   3.907
  878HOH     H2 2840   3.653   0.146   4.014
  879HOH      O 2841   0.172   1.938   0.474
  879HOH     H1 2842   0.212   1.963   0.391
  879HOH     H2 2843   0.226   1.866   0.506
  880HOH      O 2844   1.528   3.022   3.138
  880HOH     H1 2845   1.474   2.957   3.184
  880HOH     H2 2846   1.516   3.001   3.045
  881HOH      O 2847   1.658   3.924   2.356
  881HOH     H1 2848   1.624   4.003   2.313
  881HOH     H2 2849   1.593   3.904   2.423
  882HOH      O 2850   0.893   1.480   4.022
  882HOH     H1 2851   0.983   1.450   4.003
  882HOH     H2 2852   0.873   1.541   3.951
  883HOH      O 2853   0.266   1.821   2.616
  883HOH     H1 2854   0.329   1.838   2.686
  883HOH     H2 2855   0.291   1.881   2.546
  884HOH      O 2856   0.459   1.879   1.943
  884HOH     H1 2857   0.446   1.785   1.929
  884HOH     H2 2858   0.553   1.888   1.960
  885HOH      O 2859   1.752   1.373   0.617
  885HOH     H1 2860   1.739   1.292   0.570
  885HOH     H2 2861   1.794   1.432   0.554
  886HOH      O 2862   4.018   0.419   1.649
  886HOH     H1 2863   3.958   0.475   1.699
  886HOH     H2 2864   4.088   0.398   1.710
  887HOH      O 2865   1.282   0.478   1.419
  887HOH     H1 2866   1.215   0.547   1.417
  887HOH     H2 2867   1.273   0.434   1.335
  888HOH      O 2868   1.346   2.419   1.451
  888HOH     H1 2869   1.316   2.486   1.390
  888HOH     H2 2870   1.441   2.417   1.438
  889HOH      O 2871   0.201   1.668   1.707
  889HOH     H1 2872   0.160   1.748   1.738
  889HOH     H2 2873   0.167   1.656   1.618
  890HOH      O 2874   0.049   2.586   3.950
  890HOH     H1 2875  -0.002   2.641   4.009
  890HOH     H2 2876   0.085   2.647   3.885
  891HOH      O 2877   1.437   3.777   0.243
  891HOH     H1 2878   1.496   3.781   0.168
  891HOH     H2 2879   1.349   3.776   0.204
  892HOH      O 2880   2.225   2.967   2.934
  892HOH     H1 2881   2.283   2.979   3.010
  892HOH     H2 2882   2.234   3.048   2.884
  893HOH      O 2883   2.338   3.943   3.966
  893HOH     H1 2884   2.376   3.856   3.975
  893HOH     H2 2885   2.331   3.975   4.056
  894HOH      O 2886   2.142   3.956   2.848
  894HOH     H1 2887   2.236   3.953   2.867
  894HOH     H2 2888   2.104   4.004   2.922
  895HOH      O 2889   2.633   2.679   0.683
  895HOH     H1 2890   2.626   2.670   0.778
  895HOH     H2 2891   2.542   2.686   0.654
  896HOH      O 2892   1.696   1.181   0.982
  896HOH     H1 2893   1.639   1.258   0.978
  896HOH     H2 2894   1.656   1.119   0.921
  897HOH      O 2895   0.794   2.939   0.538
  897HOH     H1 2896   0.704   2.966   0.556
  897HOH     H2 2897   0.816   2.982   0.455
  898HOH      O 2898   3.895   0.678   2.710
  898HOH     H1 2899   3.931   0.635   2.632
  898HOH     H2 2900   3.824   0.621   2.739
  899HOH      O 2901   2.590   0.801   2.913
  899HOH     H1 2902   2.647   0.876   2.932
  899HOH     H2 2903   2.555   0.819   2.826
  900HOH      O 2904   1.406   3.273   3.064
  900HOH     H1 2905   1.413   3.199   3.125
  900HOH     H2 2906   1.475   3.334   3.093
  901HOH      O 2907   3.126  -0.001   0.577
  901HOH     H1 2908   3.082   0.066   0.629
  901HOH     H2 2909   3.205   0.042   0.543
  902HOH      O 2910   1.648   0.532   2.750
  902HOH     H1 2911   1.651   0.458   2.689
  902HOH     H2 2912   1.703   0.505   2.824
  903HOH      O 2913   2.668   2.998   1.039
  903HOH     H1 2914   2.703   3.063   1.100
  903HOH     H2 2915   2.574   3.000   1.053
  904HOH      O 2916   0.310   1.353   3.945
  904HOH     H1 2917   0.383   1.404   3.911
  904HOH     H2 2918   0.240   1.417   3.958
  905HOH      O 2919   2.983   0.737   3.594
  905HOH     H1 2920   3.029   0.654   3.607
  905HOH     H2 2921   2.966   0.769   3.683
  906HOH      O 2922   0.738   3.153   2.176
  906HOH     H1 2923   0.649   3.125   2.155
  906HOH     H2 2924   0.751   3.233   2.124
  907HOH      O 2925   1.782   1.168   3.275
  907HOH     H1 2926   1.768   1.205   3.362
  907HOH     H2 2927   1.698   1.180   3.230
  908HOH      O 2928   1.648   1.738   1.349
  908HOH     H1 2929   1.654   1.802   1.278
  908HOH     H2 2930   1.561   1.698   1.338
  909HOH      O 2931   0.735   1.655   3.073
  909HOH     H1 2932   0.813   1.601   3.087
  909HOH     H2 2933   0.762   1.744   3.095
  910HOH      O 2934   2.124   3.618   2.747
  910HOH     H1 2935   2.043   3.591   2.703
  910HOH     H2 2936   2.170   3.536   2.764
  911HOH      O 2937   3.224   1.575   0.564
  911HOH     H1 2938   3.149   1.634   0.558
  911HOH     H2 2939   3.297   1.631   0.593
  912HOH      O 2940   1.138   0.911   0.132
  912HOH     H1 2941   1.115   0.876   0.046
  912HOH     H2 2942   1.068   0.880   0.189
  913HOH      O 2943   1.862   3.873   0.279
  913HOH     H1 2944   1.930   3.923   0.234
  913HOH     H2 2945   1.898   3.857   0.366
  914HOH      O 2946   0.733   2.347   0.116
  914HOH     H1 2947   0.683   2.307   0.044
  914HOH     H2 2948   0.704   2.299   0.194
  915HOH      O 2949   0.435   1.091   1.869
  915HOH     H1 2950   0.370   1.103   1.800
  915HOH     H2 2951   0.513   1.136   1.835
  916HOH      O 2952   1.935   0.436   3.863
  916HOH     H1 2953   1.944   0.371   3.933
  916HOH     H2 2954   1.956   0.387   3.783
  917HOH      O 2955   1.502   3.921   1.137
  917HOH     H1 2956   1.499   3.936   1.043
  917HOH     H2 2957   1.594   3.927   1.160
  918HOH      O 2958   3.118   0.246   1.307
  918HOH     H1 2959   3.106   0.260   1.214
  918HOH     H2 2960   3.110   0.151   1.319
  919HOH      O 2961   1.608   2.291   0.426
  919HOH     H1 2962   1.655   2.369   0.397
  919HOH     H2 2963   1.539   2.324   0.483
  920HOH      O 2964   3.538   0.037   0.032
  920HOH     H1 2965   3.512  -0.049  -0.001
  920HOH     H2 2966   3.538   0.027   0.127
  921HOH      O 2967   0.703   2.621   0.154
  921HOH     H1 2968   0.724   2.528   0.165
  921HOH     H2 2969   0.612   2.622   0.125
  922HOH      O 2970   3.243   1.339   0.783
  922HOH     H1 2971   3.238   1.423   0.739
  922HOH     H2 2972   3.329   1.304   0.759
  923HOH      O 2973   2.817   2.385   1.058
  923HOH     H1 2974   2.850   2.296   1.049
  923HOH     H2 2975   2.722   2.374   1.064
  924HOH      O 2976   1.938   1.112   1.908
  924HOH     H1 2977   1.908   1.021   1.910
  924HOH     H2 2978   2.024   1.111   1.949
  925HOH      O 2979   1.689   0.893   0.153
  925HOH     H1 2980   1.601   0.930   0.144
  925HOH     H2 2981   1.726   0.938   0.229
  926HOH      O 2982   3.915   3.532   0.458
  926HOH     H1 2983   3.872   3.452   0.490
  926HOH     H2 2984   4.008   3.516   0.472
  927HOH      O 2985   3.757   2.937   2.224
  927HOH     H1 2986   3.826   2.943   2.157
  927HOH     H2 2987   3.801   2.963   2.305
  928HOH      O 2988   3.897   0.035   3.719
  928HOH     H1 2989   3.921   0.041   3.812
  928HOH     H2 2990   3.859  -0.052   3.710
  929HOH      O 2991   0.615   1.742   3.448
  929HOH     H1 2992   0.607   1.647   3.438
  929HOH     H2 2993   0.584   1.759   3.536
  930HOH      O 2994   2.977   3.406   2.135
  930HOH     H1 2995   3.063   3.447   2.123
  930HOH     H2 2996   2.968   3.347   2.060
  931HOH      O 2997   0.278   2.341   0.493
  931HOH     H1 2998   0.352   2.294   0.533
  931HOH     H2 2999   0.201   2.293   0.522
  932HOH      O 3000   3.784   2.153   3.540
  932HOH     H1 3001   3.864   2.206   3.535
  932HOH     H2 3002   3.731   2.185   3.467
  933HOH      O 3003   2.574   2.289   3.479
  933HOH     H1 3004   2.515   2.363   3.466
  933HOH     H2 3005   2.627   2.287   3.399
  934HOH      O 3006   0.426   1.621   1.821
  934HOH     H1 3007   0.384   1.545   1.861
  934HOH     H2 3008   0.357   1.663   1.771
  935HOH      O 3009   2.995   2.945   3.310
  935HOH     H1 3010   3.028   2.882   3.245
  935HOH     H2 3011   2.914   2.978   3.272
  936HOH      O 3012   1.765   3.085   1.473
  936HOH     H1 3013   1.705   3.144   1.427
  936HOH     H2 3014   1.828   3.059   1.406
  937HOH      O 3015   1.820   0.908   0.426
  937HOH     H1 3016   1.770   0.864   0.494
  937HOH     H2 3017   1.871   0.839   0.385
  938HOH      O 3018   3.765   2.143   1.141
  938HOH     H1 3019   3.720   2.125   1.058
  938HOH     H2 3020   3.825   2.069   1.152
  939HOH      O 3021   2.562   0.014   2.916
  939HOH     H1 3022   2.588  -0.067   2.960
  939HOH     H2 3023   2.536   0.072   2.986
  940HOH      O 3024   2.165   0.599   1.136
  940HOH     H1 3025   2.116   0.567   1.212
  940HOH     H2 3026   2.241   0.643   1.174
  941HOH      O 3027   0.728   0.209   0.615
  941HOH     H1 3028   0.671   0.152   0.564
  941HOH     H2 3029   0.735   0.167   0.700
  942HOH      O 3030   2.289   3.874   3.615
  942HOH     H1 3031   2.313   3.879   3.522
  942HOH     H2 3032   2.371   3.860   3.661
  943HOH      O 3033   2.795   0.522   2.169
  943HOH     H1 3034   2.764   0.590   2.110
  943HOH     H2 3035   2.842   0.569   2.237
  944HOH      O 3036   1.464   1.924   3.165
  944HOH     H1 3037   1.539   1.874   3.135
  944HOH     H2 3038   1.389   1.886   3.119
  945HOH      O 3039   0.261   2.421   2.739
  945HOH     H1 3040   0.242   2.406   2.832
  945HOH     H2 3041   0.330   2.359   2.718
  946HOH      O 3042   0.453   0.779   2.952
  946HOH     H1 3043   0.473   0.839   3.024
  946HOH     H2 3044   0.538   0.741   2.929
  947HOH      O 3045   0.401   3.173   1.346
  947HOH     H1 3046   0.496   3.166   1.362
  947HOH     H2 3047   0.365   3.198   1.431
  948HOH      O 3048   0.856   2.358   2.704
  948HOH     H1 3049   0.779   2.369   2.649
  948HOH     H2 3050   0.854   2.433   2.764
  949HOH      O 3051   2.790   3.514   1.801
  949HOH     H1 3052   2.741   3.594   1.781
  949HOH     H2 3053   2.851   3.504   1.728
  950HOH      O 3054   1.905   1.649   3.757
  950HOH     H1 3055   1.823   1.610   3.728
  950HOH     H2 3056   1.906   1.736   3.716
  951HOH      O 3057   1.794   1.888   0.609
  951HOH     H1 3058   1.774   1.980   0.591
  951HOH     H2 3059   1.872   1.869   0.558
  952HOH      O 3060   2.248   1.112   2.297
  952HOH     H1 3061   2.250   1.016   2.292
  952HOH     H2 3062   2.294   1.133   2.378
  953HOH      O 3063   0.440   2.844   1.968
  953HOH     H1 3064   0.504   2.913   1.987
  953HOH     H2 3065   0.490   2.776   1.922
  954HOH      O 3066   2.389   2.808   2.734
  954HOH     H1 3067   2.386   2.748   2.659
  954HOH     H2 3068   2.297   2.832   2.749
  955HOH      O 3069   2.971   1.692   3.852
  955HOH     H1 3070   2.960   1.731   3.765
  955HOH     H2 3071   2.959   1.765   3.913
  956HOH      O 3072   0.984   2.871   2.461
  956HOH     H1 3073   0.930   2.835   2.531
  956HOH     H2 3074   1.043   2.933   2.504
  957HOH      O 3075   2.741   1.643   0.624
  957HOH     H1 3076   2.691   1.623   0.703
  957HOH     H2 3077   2.775   1.558   0.596
  958HOH      O 3078   2.252   2.020   2.815
  958HOH     H1 3079   2.251   2.031   2.720
  958HOH     H2 3080   2.163   2.043   2.843
  959HOH      O 3081   2.342   2.716   0.605
  959HOH     H1 3082   2.339   2.730   0.511
  959HOH     H2 3083   2.253   2.734   0.635
  960HOH      O 3084   2.305   2.913   1.067
  960HOH     H1 3085   2.217   2.881   1.050
  960HOH     H2 3086   2.296   2.969   1.144
  961HOH      O 3087   3.687   2.561   3.042
  961HOH     H1 3088   3.712   2.650   3.018
  961HOH     H2 3089   3.770   2.515   3.053
  962HOH      O 3090   4.016   1.032   0.906
  962HOH     H1 3091   4.013   1.043   1.001
  962HOH     H2 3092   3.925   1.013   0.882
  963HOH      O 3093   3.052   3.169   1.305
  963HOH     H1 3094   2.988   3.241   1.299
  963HOH     H2 3095   3.133   3.206   1.270
  964HOH      O 3096   0.669   3.674   3.138
  964HOH     H1 3097   0.696   3.713   3.055
  964HOH     H2 3098   0.585   3.715   3.158
  965HOH      O 3099   2.282   3.381   0.041
  965HOH     H1 3100   2.209   3.435   0.070
  965HOH     H2 3101   2.241   3.315  -0.016
  966HOH      O 3102   2.175   1.412   0.045
  966HOH     H1 3103   2.240   1.445  -0.017
  966HOH     H2 3104   2.211   1.434   0.131
  967HOH      O 3105   2.230   0.832   1.510
  967HOH     H1 3106   2.144   0.813   1.472
  967HOH     H2 3107   2.228   0.791   1.597
  968HOH      O 3108   3.163   3.766   0.619
  968HOH     H1 3109   3.142   3.710   0.544
  968HOH     H2 3110   3.142   3.854   0.590
  969HOH      O 3111   2.739   0.730   0.185
  969HOH     H1 3112   2.682   0.679   0.128
  969HOH     H2 3113   2.776   0.665   0.245
  970HOH      O 3114   2.149   3.582   3.370
  970HOH     H1 3115   2.059   3.602   3.397
  970HOH     H2 3116   2.140   3.507   3.311
  971HOH      O 3117   3.263   3.208   2.298
  971HOH     H1 3118   3.338   3.203   2.357
  971HOH     H2 3119   3.193   3.245   2.352
  972HOH      O 3120   2.472   2.653   1.334
  972HOH     H1 3121   2.428   2.716   1.391
  972HOH     H2 3122   2.565   2.672   1.346
  973HOH      O 3123   0.890   1.826   0.062
  973HOH     H1 3124   0.848   1.908   0.088
  973HOH     H2 3125   0.837   1.794  -0.011
  974HOH      O 3126   1.486   1.516   0.464
  974HOH     H1 3127   1.467   1.516   0.370
  974HOH     H2 3128   1.582   1.517   0.468
  975HOH      O 3129   3.715   2.559   2.650
  975HOH     H1 3130   3.793   2.557   2.705
  975HOH     H2 3131   3.738   2.616   2.577
  976HOH      O 3132   1.963   2.358   0.257
  976HOH     H1 3133   1.971   2.269   0.292
  976HOH     H2 3134   2.051   2.395   0.264
  977HOH      O 3135   2.988   3.584   1.609
  977HOH     H1 3136   3.036   3.574   1.527
  977HOH     H2 3137   3.002   3.676   1.633
  978HOH      O 3138   4.044   1.418   0.545
  978HOH     H1 3139   4.042   1.337   0.495
  978HOH     H2 3140   4.020   1.392   0.634
  979HOH      O 3141   2.400   0.949   4.024
  979HOH     H1 3142   2.428   0.925   3.936
  979HOH     H2 3143   2.304   0.940   4.022
  980HOH      O 3144   4.027   1.253   1.564
  980HOH     H1 3145   4.032   1.283   1.655
  980HOH     H2 3146   3.952   1.194   1.563
  981HOH      O 3147   2.696   1.039   1.180
  981HOH     H1 3148   2.640   0.962   1.169
  981HOH     H2 3149   2.709   1.072   1.091
  982HOH      O 3150   3.551   3.162   2.155
  982HOH     H1 3151   3.606   3.123   2.222
  982HOH     H2 3152   3.485   3.095   2.136
  983HOH      O 3153   0.284   2.112   2.743
  983HOH     H1 3154   0.206   2.090   2.794
  983HOH     H2 3155   0.346   2.042   2.762
  984HOH      O 3156   1.398   3.590   3.238
  984HOH     H1 3157   1.390   3.563   3.329
  984HOH     H2 3158   1.485   3.559   3.212
  985HOH      O 3159   2.456   2.380   0.108
  985HOH     H1 3160   2.492   2.304   0.062
  985HOH     H2 3161   2.525   2.406   0.168
  986HOH      O 3162   3.160   0.302   3.079
  986HOH     H1 3163   3.164   0.357   3.158
  986HOH     H2 3164   3.249   0.268   3.069
  987HOH      O 3165   0.531   2.014   2.390
  987HOH     H1 3166   0.463   2.073   2.423
  987HOH     H2 3167   0.483   1.947   2.341
  988HOH      O 3168   1.525   2.034   3.409
  988HOH     H1 3169   1.502   2.001   3.322
  988HOH     H2 3170   1.474   1.980   3.469
  989HOH      O 3171   2.186   1.918   1.598
  989HOH     H1 3172   2.093   1.895   1.589
  989HOH     H2 3173   2.191   1.965   1.681
  990HOH      O 3174   2.369   1.200   1.217
  990HOH     H1 3175   2.418   1.281   1.207
  990HOH     H2 3176   2.339   1.202   1.308
  991HOH      O 3177   3.337   2.184   2.203
  991HOH     H1 3178   3.353   2.277   2.217
  991HOH     H2 3179   3.378   2.165   2.119
  992HOH      O 3180   0.125   2.918   2.523
  992HOH     H1 3181   0.178   2.839   2.535
  992HOH     H2 3182   0.188   2.985   2.495
  993HOH      O 3183   1.900   2.492   2.802
  993HOH     H1 3184   1.825   2.439   2.779
  993HOH     H2 3185   1.867   2.554   2.868
  994HOH      O 3186   1.767   2.531   0.243
  994HOH     H1 3187   1.723   2.552   0.326
  994HOH     H2 3188   1.839   2.473   0.267
  995HOH      O 3189   4.063   1.316   1.825
  995HOH     H1 3190   4.000   1.383   1.851
  995HOH     H2 3191   4.034   1.237   1.872
  996HOH      O 3192   1.866   1.577   1.890
  996HOH     H1 3193   1.785   1.628   1.900
  996HOH     H2 3194   1.837   1.490   1.862
  997HOH      O 3195   2.544   0.833   0.694
  997HOH     H1 3196   2.461   0.876   0.711
  997HOH     H2 3197   2.569   0.862   0.606
  998HOH      O 3198   0.737   0.068   0.840
  998HOH     H1 3199   0.787   0.075   0.921
  998HOH     H2 3200   0.717  -0.025   0.832
  999HOH      O 3201   1.082   2.698   2.148
  999HOH     H1 3202   1.015   2.671   2.084
  999HOH     H2 3203   1.122   2.775   2.109
 1000HOH      O 3204   1.831   1.808   0.295
 1000HOH     H1 3205   1.857   1.835   0.207
 1000HOH     H2 3206   1.753   1.861   0.314
 1001HOH      O 3207   1.852   2.406   0.877
 1001HOH     H1 3208   1.896   2.466   0.817
 1001HOH     H2 3209   1.760   2.407   0.848
 1002HOH      O 3210   3.061   2.747   2.119
 1002HOH     H1 3211   2.996   2.788   2.062
 1002HOH     H2 3212   3.080   2.813   2.185
 1003HOH      O 3213   3.157   3.149   3.332
 1003HOH     H1 3214   3.169   3.191   3.247
 1003HOH     H2 3215   3.097   3.077   3.316
 1004HOH      O 3216   0.711   2.807   2.887
 1004HOH     H1 3217   0.790   2.838   2.931
 1004HOH     H2 3218   0.721   2.836   2.796
 1005HOH      O 3219   2.478   2.936  -0.009
 1005HOH     H1 3220   2.472   2.980   0.076
 1005HOH     H2 3221   2.388   2.912  -0.030
 1006HOH      O 3222   1.263   3.586   0.414
 1006HOH     H1 3223   1.282   3.670   0.371
 1006HOH     H2 3224   1.203   3.541   0.353
 1007HOH      O 3225   1.389   2.213   1.763
 1007HOH     H1 3226   1.318   2.201   1.700
 1007HOH     H2 3227   1.344   2.228   1.847
 1008HOH      O 3228   0.858   3.198   3.846
 1008HOH     H1 3229   0.784   3.164   3.795
 1008HOH     H2 3230   0.898   3.120   3.884
 1009HOH      O 3231   2.706   3.558   1.427
 1009HOH     H1 3232   2.728   3.646   1.456
 1009HOH     H2 3233   2.610   3.560   1.417
 1010HOH      O 3234   2.458   1.438   2.994
 1010HOH     H1 3235   2.396   1.502   3.031
 1010HOH     H2 3236   2.402   1.365   2.966
 1011HOH      O 3237   1.629   3.965   0.364
 1011HOH     H1 3238   1.711   3.937   0.325
 1011HOH     H2 3239   1.565   3.901   0.333
 1012HOH      O 3240   2.244   3.303   1.498
 1012HOH     H1 3241   2.166   3.297   1.553
 1012HOH     H2 3242   2.251   3.395   1.474
 1013HOH      O 3243   1.237   0.781   2.279
 1013HOH     H1 3244   1.184   0.818   2.208
 1013HOH     H2 3245   1.172   0.754   2.345
 1014HOH      O 3246   0.907   1.709   1.509
 1014HOH     H1 3247   0.814   1.705   1.532
 1014HOH     H2 3248   0.910   1.758   1.427
 1015HOH      O 3249   1.049   3.890   1.212
 1015HOH     H1 3250   1.031   3.884   1.306
 1015HOH     H2 3251   1.136   3.851   1.201
 1016HOH      O 3252   0.634   1.452   0.094
 1016HOH     H1 3253   0.707   1.433   0.034
 1016HOH     H2 3254   0.620   1.369   0.141
 1017HOH      O 3255   2.895   2.358   1.811
 1017HOH     H1 3256   2.845   2.313   1.743
 1017HOH     H2 3257   2.854   2.444   1.818
 1018HOH      O 3258   3.189   0.946   2.789
 1018HOH     H1 3259   3.160   1.034   2.768
 1018HOH     H2 3260   3.111   0.901   2.820
 1019HOH      O 3261   0.842   0.720   0.042
 1019HOH     H1 3262   0.926   0.755   0.012
 1019HOH     H2 3263   0.785   0.725  -0.035
 1020HOH      O 3264   2.001   2.693   1.646
 1020HOH     H1 3265   2.000   2.734   1.732
 1020HOH     H2 3266   1.970   2.604   1.661
 1021HOH      O 3267   0.179   2.391   1.458
 1021HOH     H1 3268   0.209   2.329   1.525
 1021HOH     H2 3269   0.122   2.452   1.505
 1022HOH      O 3270   3.110   0.418   1.503
 1022HOH     H1 3271   3.090   0.375   1.586
 1022HOH     H2 3272   3.121   0.347   1.440
 1023HOH      O 3273   2.051   3.860   2.027
 1023HOH     H1 3274   2.024   3.869   1.936
 1023HOH     H2 3275   2.147   3.864   2.025
 1024HOH      O 3276   1.737   3.874   1.904
 1024HOH     H1 3277   1.705   3.799   1.854
 1024HOH     H2 3278   1.804   3.914   1.848
 1025HOH      O 3279   3.523   3.426   0.318
 1025HOH     H1 3280   3.467   3.501   0.296
 1025HOH     H2 3281   3.489   3.395   0.402
 1026HOH      O 3282   0.523   3.425   3.098
 1026HOH     H1 3283   0.568   3.505   3.123
 1026HOH     H2 3284   0.511   3.433   3.003
 1027HOH      O 3285   2.563   3.049   2.150
 1027HOH     H1 3286   2.509   3.091   2.083
 1027HOH     H2 3287   2.646   3.097   2.148
 1028HOH      O 3288   2.663   3.533   3.989
 1028HOH     H1 3289   2.731   3.518   3.923
 1028HOH     H2 3290   2.619   3.449   3.998
 1029HOH      O 3291   0.101   3.614   3.563
 1029HOH     H1 3292   0.078   3.666   3.486
 1029HOH     H2 3293   0.052   3.654   3.634
 1030HOH      O 3294   0.651   3.834   1.129
 1030HOH     H1 3295   0.644   3.776   1.205
 1030HOH     H2 3296   0.566   3.878   1.124
 1031HOH      O 3297   2.012   3.731   2.465
 1031HOH     H1 3298   1.983   3.671   2.534
 1031HOH     H2 3299   1.943   3.798   2.461
 1032HOH      O 3300   2.457   3.047   1.861
 1032HOH     H1 3301   2.511   2.968   1.855
 1032HOH     H2 3302   2.506   3.114   1.813
 1033HOH      O 3303   3.192   2.839   3.464
 1033HOH     H1 3304   3.109   2.875   3.434
 1033HOH     H2 3305   3.182   2.830   3.559
 1034HOH      O 3306   1.491   3.142   3.825
 1034HOH     H1 3307   1.530   3.110   3.743
 1034HOH     H2 3308   1.566   3.166   3.879
 1035HOH      O 3309  -0.010   1.360   1.163
 1035HOH     H1 3310   0.039   1.286   1.200
 1035HOH     H2 3311  -0.005   1.428   1.230
 1036HOH      O 3312   3.002   0.760   1.503
 1036HOH     H1 3313   3.007   0.846   1.546
 1036HOH     H2 3314   3.060   0.704   1.555
 1037HOH      O 3315   2.865   0.519   2.611
 1037HOH     H1 3316   2.871   0.461   2.687
 1037HOH     H2 3317   2.777   0.555   2.615
 1038HOH      O 3318   1.907   3.979   2.414
 1038HOH     H1 3319   1.901   4.056   2.357
 1038HOH     H2 3320   1.816   3.948   2.423
 1039HOH      O 3321   0.437   2.810   4.016
 1039HOH     H1 3322   0.442   2.844   4.106
 1039HOH     H2 3323   0.438   2.888   3.961
 1040HOH      O 3324   2.619   0.661   1.513
 1040HOH     H1 3325   2.631   0.632   1.422
 1040HOH     H2 3326   2.540   0.616   1.543
 1041HOH      O 3327   3.324   1.508   3.143
 1041HOH     H1 3328   3.356   1.437   3.198
 1041HOH     H2 3329   3.354   1.484   3.055
 1042HOH      O 3330   2.805   0.150   1.506
 1042HOH     H1 3331   2.813   0.091   1.430
 1042HOH     H2 3332   2.752   0.223   1.473
 1043HOH      O 3333   0.983   1.165   3.880
 1043HOH     H1 3334   1.017   1.196   3.964
 1043HOH     H2 3335   0.993   1.240   3.821
 1044HOH      O 3336   0.395   2.573   0.795
 1044HOH     H1 3337   0.370   2.481   0.794
 1044HOH     H2 3338   0.491   2.572   0.795
 1045HOH      O 3339   2.861   3.478   2.806
 1045HOH     H1 3340   2.935   3.524   2.844
 1045HOH     H2 3341   2.845   3.522   2.722
 1046HOH      O 3342   2.858   1.608   3.487
 1046HOH     H1 3343   2.806   1.539   3.445
 1046HOH     H2 3344   2.909   1.646   3.416
 1047HOH      O 3345   2.031   1.206   2.435
 1047HOH     H1 3346   2.087   1.192   2.359
 1047HOH     H2 3347   1.954   1.150   2.419
 1048HOH      O 3348   2.847   0.801   2.047
 1048HOH     H1 3349   2.801   0.882   2.027
 1048HOH     H2 3350   2.846   0.751   1.965
 1049HOH      O 3351   2.527   3.802   2.294
 1049HOH     H1 3352   2.585   3.736   2.332
 1049HOH     H2 3353   2.492   3.761   2.215
 1050HOH      O 3354   2.908   0.101   2.738
 1050HOH     H1 3355   2.939   0.191   2.727
 1050HOH     H2 3356   2.923   0.082   2.831
 1051HOH      O 3357   1.007   1.121   0.353
 1051HOH     H1 3358   0.941   1.185   0.326
 1051HOH     H2 3359   0.966   1.036   0.336
 1052HOH      O 3360   2.803   3.430   0.337
 1052HOH     H1 3361   2.786   3.429   0.431
 1052HOH     H2 3362   2.849   3.348   0.320
 1053HOH      O 3363   2.406   1.901   3.419
 1053HOH     H1 3364   2.405   1.979   3.474
 1053HOH     H2 3365   2.428   1.933   3.332
 1054HOH      O 3366   0.795   1.466   0.910
 1054HOH     H1 3367   0.841   1.520   0.846
 1054HOH     H2 3368   0.834   1.379   0.901
 1055HOH      O 3369   1.012   3.416   3.402
 1055HOH     H1 3370   0.950   3.485   3.379
 1055HOH     H2 3371   1.029   3.370   3.320
 1056HOH      O 3372   1.743   1.373   1.732
 1056HOH     H1 3373   1.689   1.442   1.694
 1056HOH     H2 3374   1.734   1.299   1.672
 1057HOH      O 3375   2.283   1.193   3.400
 1057HOH     H1 3376   2.277   1.165   3.308
 1057HOH     H2 3377   2.308   1.113   3.447
 1058HOH      O 3378   0.915   3.389   0.457
 1058HOH     H1 3379   0.992   3.378   0.401
 1058HOH     H2 3380   0.946   3.442   0.530
 1059HOH      O 3381   0.488   3.938   1.512
 1059HOH     H1 3382   0.533   4.005   1.564
 1059HOH     H2 3383   0.552   3.868   1.503
 1060HOH      O 3384   0.209   2.600   0.550
 1060HOH     H1 3385   0.277   2.627   0.611
 1060HOH     H2 3386   0.226   2.507   0.535
 1061HOH      O 3387   0.357   1.710   0.105
 1061HOH     H1 3388   0.314   1.638   0.151
 1061HOH     H2 3389   0.424   1.741   0.166
 1062HOH      O 3390   0.934   3.758   3.712
 1062HOH     H1 3391   0.952   3.665   3.724
 1062HOH     H2 3392   0.993   3.785   3.641
 1063HOH      O 3393   3.973   0.802   3.358
 1063HOH     H1 3394   4.049   0.746   3.376
 1063HOH     H2 3395   4.004   0.861   3.290
 1064HOH      O 3396   0.232   2.021   1.951
 1064HOH     H1 3397   0.309   1.963   1.947
 1064HOH     H2 3398   0.257   2.088   2.014
 1065HOH      O 3399   2.550   1.408   0.412
 1065HOH     H1 3400   2.467   1.403   0.458
 1065HOH     H2 3401   2.594   1.325   0.432
 1066HOH      O 3402   3.422   2.900   2.150
 1066HOH     H1 3403   3.387   2.859   2.230
 1066HOH     H2 3404   3.514   2.875   2.149
 1067HOH      O 3405   2.004   1.628   1.614
 1067HOH     H1 3406   1.936   1.566   1.641
 1067HOH     H2 3407   2.046   1.586   1.539
 1068HOH      O 3408   1.114   2.671   2.716
 1068HOH     H1 3409   1.156   2.596   2.675
 1068HOH     H2 3410   1.029   2.678   2.672
 1069HOH      O 3411   2.703   0.888   2.329
 1069HOH     H1 3412   2.750   0.812   2.293
 1069HOH     H2 3413   2.740   0.900   2.416
 1070HOH      O 3414   1.103   0.067   0.250
 1070HOH     H1 3415   1.011   0.069   0.279
 1070HOH     H2 3416   1.133  -0.021   0.275
 1071HOH      O 3417   0.785   0.330   1.218
 1071HOH     H1 3418   0.799   0.239   1.191
 1071HOH     H2 3419   0.695   0.349   1.193
 1072HOH      O 3420   2.458   2.361   1.332
 1072HOH     H1 3421   2.469   2.452   1.306
 1072HOH     H2 3422   2.544   2.322   1.321
 1073HOH      O 3423   2.499   3.155   1.437
 1073HOH     H1 3424   2.439   3.211   1.487
 1073HOH     H2 3425   2.475   3.066   1.461
 1074HOH      O 3426   2.238   1.719   2.834
 1074HOH     H1 3427   2.246   1.814   2.845
 1074HOH     H2 3428   2.276   1.682   2.914
 1075HOH      O 3429   3.083   1.387   0.993
 1075HOH     H1 3430   3.118   1.473   1.017
 1075HOH     H2 3431   3.129   1.366   0.912
 1076HOH      O 3432   0.365   0.087   2.682
 1076HOH     H1 3433   0.398   0.149   2.747
 1076HOH     H2 3434   0.423   0.097   2.606
 1077HOH      O 3435   2.903   0.390   3.447
 1077HOH     H1 3436   2.816   0.424   3.428
 1077HOH     H2 3437   2.941   0.453   3.508
 1078HOH      O 3438   3.596   0.279   2.552
 1078HOH     H1 3439   3.577   0.252   2.462
 1078HOH     H2 3440   3.550   0.362   2.562
 1079HOH      O 3441   3.412   3.180   2.557
 1079HOH     H1 3442   3.415   3.091   2.593
 1079HOH     H2 3443   3.330   3.216   2.592
 1080HOH      O 3444   3.359   1.778   0.689
 1080HOH     H1 3445   3.305   1.841   0.737
 1080HOH     H2 3446   3.446   1.817   0.688
 1081HOH      O 3447   0.824   1.000   0.624
 1081HOH     H1 3448   0.745   1.041   0.659
 1081HOH     H2 3449   0.822   0.911   0.661
 1082HOH      O 3450   3.288   0.213   2.763
 1082HOH     H1 3451   3.247   0.292   2.797
 1082HOH     H2 3452   3.381   0.223   2.785
 1083HOH      O 3453   1.852   2.245   3.220
 1083HOH     H1 3454   1.882   2.258   3.310
 1083HOH     H2 3455   1.795   2.168   3.225
 1084HOH      O 3456   3.873   0.486   0.925
 1084HOH     H1 3457   3.870   0.400   0.883
 1084HOH     H2 3458   3.782   0.512   0.934
 1085HOH      O 3459   0.299   2.010   0.808
 1085HOH     H1 3460   0.327   1.971   0.891
 1085HOH     H2 3461   0.236   1.947   0.772
 1086HOH      O 3462   2.496   1.192   2.653
 1086HOH     H1 3463   2.404   1.189   2.679
 1086HOH     H2 3464   2.543   1.207   2.736
 1087HOH      O 3465   0.753   0.719   2.971
 1087HOH     H1 3466   0.728   0.637   3.014
 1087HOH     H2 3467   0.814   0.691   2.902
 1088HOH      O 3468   1.486   0.853   2.194
 1088HOH     H1 3469   1.397   0.851   2.228
 1088HOH     H2 3470   1.541   0.841   2.272
 1089HOH      O 3471   2.740   0.258   2.116
 1089HOH     H1 3472   2.756   0.352   2.117
 1089HOH     H2 3473   2.724   0.236   2.208
 1090HOH      O 3474   1.923   0.658   3.201
 1090HOH     H1 3475   1.979   0.638   3.277
 1090HOH     H2 3476   1.985   0.671   3.129
 1091HOH      O 3477   2.106   1.269   1.030
 1091HOH     H1 3478   2.023   1.271   0.983
 1091HOH     H2 3479   2.083   1.243   1.119
 1092HOH      O 3480   0.503   3.530   0.425
 1092HOH     H1 3481   0.438   3.600   0.415
 1092HOH     H2 3482   0.503   3.485   0.340
 1093HOH      O 3483   3.306   2.841   1.538
 1093HOH     H1 3484   3.241   2.859   1.469
 1093HOH     H2 3485   3.256   2.844   1.619
 1094HOH      O 3486   3.380   1.260   3.280
 1094HOH     H1 3487   3.471   1.287   3.286
 1094HOH     H2 3488   3.376   1.205   3.201
 1095HOH      O 3489   1.827   2.006   2.434
 1095HOH     H1 3490   1.735   1.989   2.453
 1095HOH     H2 3491   1.842   2.096   2.463
 1096HOH      O 3492   0.101   2.410   0.114
 1096HOH     H1 3493   0.109   2.470   0.040
 1096HOH     H2 3494   0.006   2.400   0.127
 1097HOH      O 3495   2.421   1.851   2.408
 1097HOH     H1 3496   2.434   1.940   2.439
 1097HOH     H2 3497   2.509   1.812   2.409
 1098HOH      O 3498   3.061   2.312   2.823
 1098HOH     H1 3499   2.992   2.378   2.824
 1098HOH     H2 3500   3.098   2.317   2.735
 1099HOH      O 3501   1.075   1.463   1.936
 1099HOH     H1 3502   1.007   1.430   1.877
 1099HOH     H2 3503   1.149   1.405   1.923
 1100HOH      O 3504   0.649   2.886   2.617
 1100HOH     H1 3505   0.557   2.867   2.635
 1100HOH     H2 3506   0.646   2.950   2.546
 1101HOH      O 3507   3.468   0.517   3.689
 1101HOH     H1 3508   3.415   0.499   3.766
 1101HOH     H2 3509   3.539   0.453   3.693
 1102HOH      O 3510   0.060   3.737   2.981
 1102HOH     H1 3511  -0.016   3.697   2.939
 1102HOH     H2 3512   0.117   3.663   3.002
 1103HOH      O 3513   2.651   1.007   1.717
 1103HOH     H1 3514   2.601   0.936   1.678
 1103HOH     H2 3515   2.585   1.072   1.742
 1104HOH      O 3516   3.253   3.595   2.059
 1104HOH     H1 3517   3.279   3.664   1.999
 1104HOH     H2 3518   3.200   3.639   2.126
 1105HOH      O 3519   1.576   3.657   0.495
 1105HOH     H1 3520   1.541   3.580   0.541
 1105HOH     H2 3521   1.534   3.653   0.409
 1106HOH      O 3522   0.036   0.513   0.069
 1106HOH     H1 3523  -0.059   0.500   0.075
 1106HOH     H2 3524   0.069   0.432   0.030
 1107HOH      O 3525   3.448   2.129   3.498
 1107HOH     H1 3526   3.380   2.070   3.529
 1107HOH     H2 3527   3.474   2.094   3.413
 1108HOH      O 3528   3.734   3.707   2.983
 1108HOH     H1 3529   3.788   3.661   2.919
 1108HOH     H2 3530   3.650   3.721   2.938
 1109HOH      O 3531   0.215   0.113   2.989
 1109HOH     H1 3532   0.173   0.108   3.075
 1109HOH     H2 3533   0.182   0.195   2.952
 1110HOH      O 3534   3.946   2.825   1.494
 1110HOH     H1 3535   3.944   2.889   1.423
 1110HOH     H2 3536   3.854   2.811   1.515
 1111HOH      O 3537   1.923   0.564   0.998
 1111HOH     H1 3538   2.004   0.583   1.045
 1111HOH     H2 3539   1.910   0.470   1.009
 1112HOH      O 3540   0.047   0.903   0.622
 1112HOH     H1 3541   0.058   0.911   0.716
 1112HOH     H2 3542   0.109   0.835   0.595
 1113HOH      O 3543   3.660   1.129   3.982
 1113HOH     H1 3544   3.685   1.197   3.920
 1113HOH     H2 3545   3.582   1.088   3.943
 1114HOH      O 3546   2.021   0.835   1.333
 1114HOH     H1 3547   1.949   0.852   1.273
 1114HOH     H2 3548   2.087   0.790   1.280
 1115HOH      O 3549   3.436   0.928   2.917
 1115HOH     H1 3550   3.342   0.941   2.907
 1115HOH     H2 3551   3.450   0.836   2.896
 1116HOH      O 3552   0.579   0.096   0.398
 1116HOH     H1 3553   0.544   0.051   0.476
 1116HOH     H2 3554   0.525   0.062   0.326
 1117HOH      O 3555   3.691   1.025   2.956
 1117HOH     H1 3556   3.669   1.114   2.932
 1117HOH     H2 3557   3.612   0.974   2.940
 1118HOH      O 3558   3.029   1.330   1.857
 1118HOH     H1 3559   2.949   1.296   1.898
 1118HOH     H2 3560   3.087   1.350   1.931
 1119HOH      O 3561   4.005   0.034   3.416
 1119HOH     H1 3562   4.002   0.014   3.509
 1119HOH     H2 3563   3.918   0.009   3.384
 1120HOH      O 3564   0.099   2.698   3.495
 1120HOH     H1 3565   0.032   2.662   3.437
 1120HOH     H2 3566   0.182   2.683   3.450
 1121HOH      O 3567   1.732   2.570   3.687
 1121HOH     H1 3568   1.658   2.613   3.644
 1121HOH     H2 3569   1.796   2.639   3.700
 1122HOH      O 3570   1.300   3.886   0.575
 1122HOH     H1 3571   1.351   3.806   0.563
 1122HOH     H2 3572   1.354   3.942   0.630
 1123HOH      O 3573   1.341   2.224   3.147
 1123HOH     H1 3574   1.424   2.178   3.151
 1123HOH     H2 3575   1.303   2.198   3.063
 1124HOH      O 3576   2.547   3.531   0.848
 1124HOH     H1 3577   2.553   3.627   0.850
 1124HOH     H2 3578   2.627   3.502   0.892
 1125HOH      O 3579   3.825   1.654   3.524
 1125HOH     H1 3580   3.740   1.671   3.562
 1125HOH     H2 3581   3.806   1.622   3.436
 1126HOH      O 3582   3.961   2.460   3.062
 1126HOH     H1 3583   3.994   2.382   3.108
 1126HOH     H2 3584   3.971   2.531   3.126
 1127HOH      O 3585   2.816   3.924   2.578
 1127HOH     H1 3586   2.861   3.988   2.633
 1127HOH     H2 3587   2.728   3.916   2.615
 1128HOH      O 3588   1.853   3.303   4.003
 1128HOH     H1 3589   1.798   3.254   4.064
 1128HOH     H2 3590   1.936   3.255   4.002
 1129HOH      O 3591   2.144   3.965   1.491
 1129HOH     H1 3592   2.176   3.964   1.401
 1129HOH     H2 3593   2.217   3.934   1.543
 1130HOH      O 3594   3.613   1.627   0.486
 1130HOH     H1 3595   3.695   1.588   0.458
 1130HOH     H2 3596   3.617   1.717   0.453
 1131HOH      O 3597   0.668   1.255   1.281
 1131HOH     H1 3598   0.604   1.198   1.322
 1131HOH     H2 3599   0.677   1.220   1.192
 1132HOH      O 3600   0.356   3.500   3.685
 1132HOH     H1 3601   0.282   3.561   3.683
 1132HOH     H2 3602   0.360   3.464   3.596
 1133HOH      O 3603   2.540   0.619   4.059
 1133HOH     H1 3604   2.488   0.665   3.993
 1133HOH     H2 3605   2.551   0.531   4.024
 1134HOH      O 3606   3.983   0.962   3.751
 1134HOH     H1 3607   3.958   0.952   3.659
 1134HOH     H2 3608   4.043   1.037   3.752
 1135HOH      O 3609   2.210   0.645   0.011
 1135HOH     H1 3610   2.138   0.590   0.041
 1135HOH     H2 3611   2.277   0.638   0.079
 1136HOH      O 3612   0.440   0.526   0.405
 1136HOH     H1 3613   0.500   0.546   0.333
 1136HOH     H2 3614   0.495   0.529   0.483
 1137HOH      O 3615   1.173   0.760   2.844
 1137HOH     H1 3616   1.246   0.700   2.825
 1137HOH     H2 3617   1.168   0.815   2.766
 1138HOH      O 3618   0.827   3.105   0.329
 1138HOH     H1 3619   0.915   3.094   0.292
 1138HOH     H2 3620   0.822   3.197   0.352
 1139HOH      O 3621   1.090   2.533   0.995
 1139HOH     H1 3622   1.170   2.487   0.968
 1139HOH     H2 3623   1.107   2.559   1.085
 1140HOH      O 3624   0.293   2.167   2.457
 1140HOH     H1 3625   0.297   2.175   2.553
 1140HOH     H2 3626   0.240   2.088   2.442
 1141HOH      O 3627   3.891   1.645   0.819
 1141HOH     H1 3628   3.878   1.671   0.911
 1141HOH     H2 3629   3.916   1.553   0.824
 1142HOH      O 3630   3.591   1.005   1.115
 1142HOH     H1 3631   3.586   0.927   1.171
 1142HOH     H2 3632   3.503   1.015   1.081
 1143HOH      O 3633   0.135   3.549   1.915
 1143HOH     H1 3634   0.067   3.586   1.972
 1143HOH     H2 3635   0.167   3.472   1.963
 1144HOH      O 3636   3.997   3.239   1.514
 1144HOH     H1 3637   3.964   3.319   1.472
 1144HOH     H2 3638   3.934   3.171   1.488
 1145HOH      O 3639   1.010   2.280   0.405
 1145HOH     H1 3640   0.936   2.273   0.465
 1145HOH     H2 3641   1.085   2.250   0.457
 1146HOH      O 3642   1.417   3.977   0.801
 1146HOH     H1 3643   1.474   4.054   0.797
 1146HOH     H2 3644   1.330   4.012   0.822
 1147HOH      O 3645   2.224   2.350   1.469
 1147HOH     H1 3646   2.168   2.329   1.395
 1147HOH     H2 3647   2.313   2.348   1.433
 1148HOH      O 3648   2.155   3.041   1.410
 1148HOH     H1 3649   2.102   3.080   1.341
 1148HOH     H2 3650   2.203   3.114   1.448
 1149HOH      O 3651   1.890   1.452   2.439
 1149HOH     H1 3652   1.932   1.378   2.483
 1149HOH     H2 3653   1.896   1.430   2.346
 1150HOH      O 3654   0.985   1.964   0.669
 1150HOH     H1 3655   1.063   2.007   0.702
 1150HOH     H2 3656   1.015   1.877   0.642
 1151HOH      O 3657   0.236   1.907   3.260
 1151HOH     H1 3658   0.278   1.846   3.200
 1151HOH     H2 3659   0.261   1.877   3.348
 1152HOH      O 3660   2.820   3.074   2.679
 1152HOH     H1 3661   2.764   3.001   2.705
 1152HOH     H2 3662   2.859   3.045   2.597
 1153HOH      O 3663   2.636   1.943   0.291
 1153HOH     H1 3664   2.548   1.975   0.310
 1153HOH     H2 3665   2.623   1.850   0.271
 1154HOH      O 3666   2.523   0.579   0.797
 1154HOH     H1 3667   2.561   0.506   0.747
 1154HOH     H2 3668   2.567   0.657   0.763
 1155HOH      O 3669   3.692   1.904   0.434
 1155HOH     H1 3670   3.721   1.995   0.430
 1155HOH     H2 3671   3.760   1.856   0.387
 1156HOH      O 3672   1.085   0.750   3.952
 1156HOH     H1 3673   1.151   0.683   3.942
 1156HOH     H2 3674   1.060   0.774   3.862
 1157HOH      O 3675   1.061   1.187   2.768
 1157HOH     H1 3676   0.967   1.180   2.751
 1157HOH     H2 3677   1.098   1.106   2.734
 1158HOH      O 3678   1.241   3.204   2.035
 1158HOH     H1 3679   1.205   3.268   1.974
 1158HOH     H2 3680   1.326   3.241   2.062
 1159HOH      O 3681   2.985   0.279   2.489
 1159HOH     H1 3682   2.903   0.230   2.488
 1159HOH     H2 3683   2.960   0.369   2.509
 1160HOH      O 3684   3.478   2.021   0.691
 1160HOH     H1 3685   3.418   2.085   0.727
 1160HOH     H2 3686   3.527   2.068   0.623
 1161HOH      O 3687   3.865   0.568   0.554
 1161HOH     H1 3688   3.812   0.517   0.491
 1161HOH     H2 3689   3.939   0.511   0.574
 1162HOH      O 3690   3.317   3.609   3.068
 1162HOH     H1 3691   3.309   3.702   3.087
 1162HOH     H2 3692   3.402   3.601   3.024
 1163HOH      O 3693   3.768   1.316   2.685
 1163HOH     H1 3694   3.858   1.346   2.681
 1163HOH     H2 3695   3.756   1.262   2.607
 1164HOH      O 3696   1.164   1.802   2.124
 1164HOH     H1 3697   1.107   1.853   2.066
 1164HOH     H2 3698   1.111   1.788   2.203
 1165HOH      O 3699   4.049   1.869   2.191
 1165HOH     H1 3700   4.032   1.795   2.133
 1165HOH     H2 3701   4.039   1.946   2.135
 1166HOH      O 3702   2.608   3.759   3.809
 1166HOH     H1 3703   2.611   3.713   3.725
 1166HOH     H2 3704   2.584   3.691   3.873
 1167HOH      O 3705   0.431   3.404   2.568
 1167HOH     H1 3706   0.456   3.448   2.487
 1167HOH     H2 3707   0.370   3.336   2.539
 1168HOH      O 3708   0.139   2.763   3.756
 1168HOH     H1 3709   0.133   2.855   3.781
 1168HOH     H2 3710   0.108   2.761   3.665
 1169HOH      O 3711   3.798   1.275   1.062
 1169HOH     H1 3712   3.771   1.193   1.104
 1169HOH     H2 3713   3.878   1.301   1.108
 1170HOH      O 3714   3.985   2.671   0.595
 1170HOH     H1 3715   3.950   2.587   0.626
 1170HOH     H2 3716   4.075   2.651   0.569
 1171HOH      O 3717   3.159   2.683   0.236
 1171HOH     H1 3718   3.185   2.647   0.321
 1171HOH     H2 3719   3.066   2.702   0.246
 1172HOH      O 3720   0.806   2.437   3.493
 1172HOH     H1 3721   0.801   2.363   3.433
 1172HOH     H2 3722   0.846   2.402   3.572
 1173HOH      O 3723   3.116   2.250   1.636
 1173HOH     H1 3724   3.147   2.333   1.673
 1173HOH     H2 3725   3.022   2.252   1.648
 1174HOH      O 3726   1.334   0.179   3.722
 1174HOH     H1 3727   1.348   0.106   3.662
 1174HOH     H2 3728   1.274   0.237   3.675
 1175HOH      O 3729   3.894   3.160   3.138
 1175HOH     H1 3730   3.825   3.140   3.075
 1175HOH     H2 3731   3.928   3.074   3.164
 1176HOH      O 3732   3.249   0.664   1.606
 1176HOH     H1 3733   3.195   0.594   1.570
 1176HOH     H2 3734   3.336   0.649   1.568
 1177HOH      O 3735   2.078   1.650   3.970
 1177HOH     H1 3736   2.126   1.568   3.971
 1177HOH     H2 3737   2.035   1.652   3.884
 1178HOH      O 3738   0.490   0.964   4.018
 1178HOH     H1 3739   0.451   1.040   4.060
 1178HOH     H2 3740   0.432   0.891   4.041
 1179HOH      O 3741   3.865   3.024   3.564
 1179HOH     H1 3742   3.911   3.105   3.587
 1179HOH     H2 3743   3.774   3.050   3.552
 1180HOH      O 3744   3.751   3.811   3.665
 1180HOH     H1 3745   3.738   3.827   3.572
 1180HOH     H2 3746   3.663   3.809   3.702
 1181HOH      O 3747   3.422   0.515   2.649
 1181HOH     H1 3748   3.497   0.530   2.592
 1181HOH     H2 3749   3.346   0.531   2.593
 1182HOH      O 3750   0.873   2.183   3.352
 1182HOH     H1 3751   0.968   2.185   3.364
 1182HOH     H2 3752   0.859   2.199   3.259
 1183HOH      O 3753   3.142   3.610   1.394
 1183HOH     H1 3754   3.176   3.540   1.339
 1183HOH     H2 3755   3.220   3.660   1.421
 1184HOH      O 3756   0.242   3.175   1.885
 1184HOH     H1 3757   0.234   3.104   1.948
 1184HOH     H2 3758   0.245   3.254   1.939
 1185HOH      O 3759   0.811   1.621   0.409
 1185HOH     H1 3760   0.847   1.593   0.493
 1185HOH     H2 3761   0.878   1.679   0.373
 1186HOH      O 3762   2.470   1.514   0.966
 1186HOH     H1 3763   2.380   1.518   0.999
 1186HOH     H2 3764   2.496   1.422   0.976
 1187HOH      O 3765   2.729   1.191   1.500
 1187HOH     H1 3766   2.732   1.119   1.563
 1187HOH     H2 3767   2.665   1.163   1.435
 1188HOH      O 3768   2.423   3.818   0.347
 1188HOH     H1 3769   2.474   3.755   0.297
 1188HOH     H2 3770   2.488   3.870   0.394
 1189HOH      O 3771   1.094   2.468   2.984
 1189HOH     H1 3772   1.132   2.448   2.899
 1189HOH     H2 3773   1.009   2.508   2.964
 1190HOH      O 3774   2.123   0.716   0.584
 1190HOH     H1 3775   2.191   0.696   0.649
 1190HOH     H2 3776   2.041   0.691   0.627
 1191HOH      O 3777   1.048   1.394   3.735
 1191HOH     H1 3778   1.055   1.488   3.719
 1191HOH     H2 3779   1.131   1.358   3.703
 1192HOH      O 3780   2.730   0.632   3.745
 1192HOH     H1 3781   2.784   0.706   3.772
 1192HOH     H2 3782   2.768   0.556   3.789
 1193HOH      O 3783   0.316   2.028   0.267
 1193HOH     H1 3784   0.309   2.119   0.238
 1193HOH     H2 3785   0.409   2.016   0.287
 1194HOH      O 3786   1.089   1.605   2.933
 1194HOH     H1 3787   1.009   1.640   2.895
 1194HOH     H2 3788   1.122   1.544   2.867
 1195HOH      O 3789   2.298   1.675   3.109
 1195HOH     H1 3790   2.344   1.674   3.193
 1195HOH     H2 3791   2.234   1.746   3.118
 1196HOH      O 3792   1.408   3.098   1.724
 1196HOH     H1 3793   1.440   3.188   1.739
 1196HOH     H2 3794   1.322   3.109   1.685
 1197HOH      O 3795   2.241   0.917   1.195
 1197HOH     H1 3796   2.190   0.936   1.274
 1197HOH     H2 3797   2.194   0.961   1.125
 1198HOH      O 3798   1.998   0.992   3.237
 1198HOH     H1 3799   1.936   0.937   3.187
 1198HOH     H2 3800   1.942   1.059   3.278
 1199HOH      O 3801   2.402   1.145   0.180
 1199HOH     H1 3802   2.382   1.074   0.119
 1199HOH     H2 3803   2.395   1.224   0.127
 1200HOH      O 3804   2.265   3.587   0.226
 1200HOH     H1 3805   2.180   3.557   0.194
 1200HOH     H2 3806   2.261   3.574   0.320
 1201HOH      O 3807   1.260   0.691   1.934
 1201HOH     H1 3808   1.200   0.747   1.984
 1201HOH     H2 3809   1.214   0.608   1.927
 1202HOH      O 3810   2.011   1.883   0.073
 1202HOH     H1 3811   2.082   1.871   0.136
 1202HOH     H2 3812   2.010   1.801   0.023
 1203HOH      O 3813   0.492   2.906   0.757
 1203HOH     H1 3814   0.408   2.906   0.803
 1203HOH     H2 3815   0.518   2.998   0.756
 1204HOH      O 3816   2.781   3.866   2.132
 1204HOH     H1 3817   2.841   3.868   2.057
 1204HOH     H2 3818   2.768   3.773   2.151
 1205HOH      O 3819   2.570   3.227   3.109
 1205HOH     H1 3820   2.553   3.296   3.174
 1205HOH     H2 3821   2.572   3.272   3.025
 1206HOH      O 3822   2.843   3.920   3.908
 1206HOH     H1 3823   2.772   3.859   3.891
 1206HOH     H2 3824   2.897   3.876   3.975
 1207HOH      O 3825   1.351   1.722   0.711
 1207HOH     H1 3826   1.283   1.731   0.644
 1207HOH     H2 3827   1.386   1.634   0.696
 1208HOH      O 3828   3.940   1.828   0.371
 1208HOH     H1 3829   3.923   1.843   0.278
 1208HOH     H2 3830   4.031   1.854   0.384
 1209HOH      O 3831   1.220   3.278   3.758
 1209HOH     H1 3832   1.206   3.359   3.808
 1209HOH     H2 3833   1.219   3.209   3.823
 1210HOH      O 3834   1.586   0.696   2.427
 1210HOH     H1 3835   1.585   0.637   2.352
 1210HOH     H2 3836   1.667   0.673   2.473
 1211HOH      O 3837   1.249   1.688   0.167
 1211HOH     H1 3838   1.192   1.730   0.103
 1211HOH     H2 3839   1.244   1.744   0.245
 1212HOH      O 3840   3.842   3.379   0.957
 1212HOH     H1 3841   3.914   3.405   0.900
 1212HOH     H2 3842   3.781   3.452   0.954
 1213HOH      O 3843   0.093   1.595   1.070
 1213HOH     H1 3844   0.052   1.509   1.073
 1213HOH     H2 3845   0.022   1.656   1.091
 1214HOH      O 3846   3.993   0.525   3.008
 1214HOH     H1 3847   3.913   0.512   3.060
 1214HOH     H2 3848   4.010   0.620   3.013
 1215HOH      O 3849   1.648   1.039   2.587
 1215HOH     H1 3850   1.589   0.975   2.548
 1215HOH     H2 3851   1.716   1.053   2.521
 1216HOH      O 3852   1.885   1.087   3.589
 1216HOH     H1 3853   1.822   1.158   3.578
 1216HOH     H2 3854   1.893   1.077   3.684
 1217HOH      O 3855   2.266   1.284   0.545
 1217HOH     H1 3856   2.204   1.243   0.484
 1217HOH     H2 3857   2.224   1.365   0.571
 1218HOH      O 3858   2.701   1.446   3.085
 1218HOH     H1 3859   2.751   1.526   3.067
 1218HOH     H2 3860   2.624   1.453   3.029
 1219HOH      O 3861   3.277   2.536   2.059
 1219HOH     H1 3862   3.209   2.602   2.070
 1219HOH     H2 3863   3.309   2.519   2.148
 1220HOH      O 3864   1.938   1.882   1.411
 1220HOH     H1 3865   1.919   1.806   1.356
 1220HOH     H2 3866   1.905   1.858   1.497
 1221HOH      O 3867   3.178   2.170   3.778
 1221HOH     H1 3868   3.217   2.250   3.742
 1221HOH     H2 3869   3.209   2.100   3.720
 1222HOH      O 3870   3.810   3.900   2.403
 1222HOH     H1 3871   3.857   3.983   2.390
 1222HOH     H2 3872   3.744   3.920   2.470
 1223HOH      O 3873   3.160   1.224   3.437
 1223HOH     H1 3874   3.208   1.224   3.520
 1223HOH     H2 3875   3.224   1.257   3.373
 1224HOH      O 3876   2.468   2.455   3.877
 1224HOH     H1 3877   2.382   2.497   3.872
 1224HOH     H2 3878   2.490   2.460   3.970
 1225HOH      O 3879   1.751   0.842   0.871
 1225HOH     H1 3880   1.680   0.896   0.838
 1225HOH     H2 3881   1.777   0.787   0.797
 1226HOH      O 3882   0.408   2.660   3.133
 1226HOH     H1 3883   0.497   2.680   3.161
 1226HOH     H2 3884   0.383   2.733   3.077
 1227HOH      O 3885   3.098   0.727   0.348
 1227HOH     H1 3886   3.095   0.756   0.257
 1227HOH     H2 3887   3.180   0.677   0.355
 1228HOH      O 3888   2.911   2.676   2.893
 1228HOH     H1 3889   2.876   2.587   2.882
 1228HOH     H2 3890   2.844   2.722   2.944
 1229HOH      O 3891   2.822   1.375   1.121
 1229HOH     H1 3892   2.872   1.371   1.203
 1229HOH     H2 3893   2.886   1.401   1.055
 1230HOH      O 3894   2.167   1.476   0.317
 1230HOH     H1 3895   2.090   1.424   0.293
 1230HOH     H2 3896   2.158   1.492   0.410
 1231HOH      O 3897   2.990   3.138   0.016
 1231HOH     H1 3898   2.895   3.134   0.012
 1231HOH     H2 3899   3.019   3.049  -0.003
 1232HOH      O 3900   1.575   2.744   0.284
 1232HOH     H1 3901   1.518   2.821   0.294
 1232HOH     H2 3902   1.662   2.781   0.267
 1233HOH      O 3903   0.054   0.418   3.500
 1233HOH     H1 3904   0.132   0.411   3.555
 1233HOH     H2 3905   0.075   0.487   3.437
 1234HOH      O 3906   3.157   2.268   2.546
 1234HOH     H1 3907   3.249   2.243   2.540
 1234HOH     H2 3908   3.155   2.358   2.512
 1235HOH      O 3909   1.460   0.238   1.405
 1235HOH     H1 3910   1.414   0.261   1.486
 1235HOH     H2 3911   1.391   0.233   1.338
 1236HOH      O 3912   0.001   2.018   1.139
 1236HOH     H1 3913   0.084   1.973   1.147
 1236HOH     H2 3914   0.018   2.106   1.174
 1237HOH      O 3915   1.882   0.990   1.659
 1237HOH     H1 3916   1.789   1.011   1.647
 1237HOH     H2 3917   1.924   1.074   1.677
 1238HOH      O 3918  -0.003  -0.002   1.218
 1238HOH     H1 3919   0.086   0.031   1.213
 1238HOH     H2 3920  -0.020  -0.013   1.312
 1239HOH      O 3921   0.808   3.492   2.466
 1239HOH     H1 3922   0.790   3.552   2.394
 1239HOH     H2 3923   0.775   3.537   2.544
 1240HOH      O 3924   2.353   2.695   2.258
 1240HOH     H1 3925   2.348   2.790   2.247
 1240HOH     H2 3926   2.406   2.666   2.183
 1241HOH      O 3927   0.918   1.135   2.003
 1241HOH     H1 3928   0.847   1.153   2.065
 1241HOH     H2 3929   0.876   1.136   1.917
 1242HOH      O 3930   1.279   3.718   2.924
 1242HOH     H1 3931   1.256   3.698   3.015
 1242HOH     H2 3932   1.215   3.783   2.897
 1243HOH      O 3933   1.686   0.210   1.269
 1243HOH     H1 3934   1.685   0.116   1.250
 1243HOH     H2 3935   1.600   0.229   1.306
 1244HOH      O 3936   0.628   3.637   1.846
 1244HOH     H1 3937   0.539   3.655   1.875
 1244HOH     H2 3938   0.618   3.613   1.754
 1245HOH      O 3939   0.520   0.278   1.122
 1245HOH     H1 3940   0.505   0.184   1.130
 1245HOH     H2 3941   0.441   0.318   1.159
 1246HOH      O 3942   3.635   2.200   0.531
 1246HOH     H1 3943   3.669   2.205   0.621
 1246HOH     H2 3944   3.712   2.210   0.476
 1247HOH      O 3945   2.970   1.769   0.237
 1247HOH     H1 3946   3.052   1.780   0.188
 1247HOH     H2 3947   2.996   1.781   0.329
 1248HOH      O 3948   3.217   3.878   3.174
 1248HOH     H1 3949   3.210   3.955   3.231
 1248HOH     H2 3950   3.128   3.843   3.171
 1249HOH      O 3951   0.650   3.562   0.786
 1249HOH     H1 3952   0.668   3.500   0.857
 1249HOH     H2 3953   0.703   3.639   0.808
 1250HOH      O 3954   1.813   1.570   0.036
 1250HOH     H1 3955   1.900   1.554  -0.001
 1250HOH     H2 3956   1.787   1.655   0.000
 1251HOH      O 3957   2.811   2.047   3.219
 1251HOH     H1 3958   2.850   2.042   3.306
 1251HOH     H2 3959   2.882   2.027   3.159
 1252HOH      O 3960   0.650   3.729   1.464
 1252HOH     H1 3961   0.726   3.781   1.488
 1252HOH     H2 3962   0.673   3.640   1.489
 1253HOH      O 3963   0.406   3.495   1.254
 1253HOH     H1 3964   0.394   3.568   1.315
 1253HOH     H2 3965   0.500   3.486   1.245
 1254HOH      O 3966   3.325   0.179   3.955
 1254HOH     H1 3967   3.263   0.106   3.952
 1254HOH     H2 3968   3.409   0.139   3.978
 1255HOH      O 3969   3.183   0.034   2.600
 1255HOH     H1 3970   3.249   0.073   2.656
 1255HOH     H2 3971   3.116   0.101   2.589
 1256HOH      O 3972   3.835   2.908   2.802
 1256HOH     H1 3973   3.908   2.969   2.796
 1256HOH     H2 3974   3.849   2.862   2.884
 1257HOH      O 3975   3.478   3.448   2.183
 1257HOH     H1 3976   3.390   3.470   2.153
 1257HOH     H2 3977   3.474   3.355   2.202
 1258HOH      O 3978   0.776   1.795   2.561
 1258HOH     H1 3979   0.763   1.740   2.483
 1258HOH     H2 3980   0.780   1.884   2.527
 1259HOH      O 3981   3.501   1.284   3.636
 1259HOH     H1 3982   3.520   1.207   3.582
 1259HOH     H2 3983   3.407   1.277   3.655
 1260HOH      O 3984   2.744   1.906   1.233
 1260HOH     H1 3985   2.728   1.849   1.158
 1260HOH     H2 3986   2.748   1.846   1.308
 1261HOH      O 3987   1.663   2.437   1.169
 1261HOH     H1 3988   1.643   2.428   1.263
 1261HOH     H2 3989   1.745   2.390   1.157
 1262HOH      O 3990   3.329   1.269   1.175
 1262HOH     H1 3991   3.322   1.190   1.229
 1262HOH     H2 3992   3.300   1.241   1.088
 1263HOH      O 3993   3.544   2.860   1.830
 1263HOH     H1 3994   3.518   2.770   1.848
 1263HOH     H2 3995   3.480   2.913   1.877
 1264HOH      O 3996   3.703   2.434   2.012
 1264HOH     H1 3997   3.718   2.351   2.058
 1264HOH     H2 3998   3.777   2.489   2.038
 1265HOH      O 3999   0.572   1.956   0.335
 1265HOH     H1 4000   0.584   1.952   0.430
 1265HOH     H2 4001   0.597   1.869   0.304
 1266HOH      O 4002   1.612   0.593   0.966
 1266HOH     H1 4003   1.601   0.588   0.871
 1266HOH     H2 4004   1.671   0.667   0.979
 1267HOH      O 4005   0.370   1.175   3.252
 1267HOH     H1 4006   0.291   1.176   3.199
 1267HOH     H2 4007   0.348   1.123   3.329
 1268HOH      O 4008   0.508   2.616   2.822
 1268HOH     H1 4009   0.500   2.594   2.914
 1268HOH     H2 4010   0.536   2.707   2.821
 1269HOH      O 4011   0.182   2.757   1.824
 1269HOH     H1 4012   0.177   2.853   1.832
 1269HOH     H2 4013   0.267   2.734   1.863
 1270HOH      O 4014   2.336   0.535   3.204
 1270HOH     H1 4015   2.431   0.529   3.192
 1270HOH     H2 4016   2.325   0.575   3.290
 1271HOH      O 4017   3.608   2.379   0.040
 1271HOH     H1 4018   3.616   2.340  -0.047
 1271HOH     H2 4019   3.532   2.437   0.033
 1272HOH      O 4020   0.140   3.137   0.513
 1272HOH     H1 4021   0.151   3.043   0.529
 1272HOH     H2 4022   0.129   3.174   0.601
 1273HOH      O 4023   3.076   3.603   2.884
 1273HOH     H1 4024   3.127   3.622   2.804
 1273HOH     H2 4025   3.142   3.598   2.953
 1274HOH      O 4026   2.120   0.114   2.134
 1274HOH     H1 4027   2.196   0.132   2.190
 1274HOH     H2 4028   2.124   0.020   2.118
 1275HOH      O 4029   3.520   2.660   0.258
 1275HOH     H1 4030   3.483   2.615   0.182
 1275HOH     H2 4031   3.493   2.607   0.333
 1276HOH      O 4032   3.633   0.608   1.036
 1276HOH     H1 4033   3.584   0.676   0.991
 1276HOH     H2 4034   3.568   0.562   1.089
 1277HOH      O 4035   1.013   1.491   2.199
 1277HOH     H1 4036   1.049   1.459   2.117
 1277HOH     H2 4037   0.919   1.501   2.181
 1278HOH      O 4038   2.370   3.036   3.154
 1278HOH     H1 4039   2.447   3.092   3.147
 1278HOH     H2 4040   2.306   3.090   3.200
 1279HOH      O 4041   1.305   3.247   0.107
 1279HOH     H1 4042   1.359   3.307   0.056
 1279HOH     H2 4043   1.271   3.185   0.043
 1280HOH      O 4044   1.146   3.455   2.175
 1280HOH     H1 4045   1.221   3.466   2.116
 1280HOH     H2 4046   1.075   3.504   2.132
 1281HOH      O 4047   1.100   2.433   1.606
 1281HOH     H1 4048   1.151   2.376   1.548
 1281HOH     H2 4049   1.156   2.444   1.683
 1282HOH      O 4050   1.541   3.670   2.606
 1282HOH     H1 4051   1.517   3.650   2.515
 1282HOH     H2 4052   1.523   3.763   2.616
 1283HOH      O 4053   3.150   1.226   2.089
 1283HOH     H1 4054   3.125   1.147   2.041
 1283HOH     H2 4055   3.231   1.202   2.135
 1284HOH      O 4056   3.680   3.187   2.948
 1284HOH     H1 4057   3.665   3.279   2.926
 1284HOH     H2 4058   3.659   3.140   2.867
 1285HOH      O 4059   2.321   1.749   0.534
 1285HOH     H1 4060   2.309   1.734   0.628
 1285HOH     H2 4061   2.414   1.731   0.518
 1286HOH      O 4062   1.577   2.016   2.117
 1286HOH     H1 4063   1.544   1.979   2.034
 1286HOH     H2 4064   1.512   1.990   2.182
 1287HOH      O 4065   2.082   1.594   2.629
 1287HOH     H1 4066   2.130   1.642   2.697
 1287HOH     H2 4067   2.140   1.598   2.553
 1288HOH      O 4068   2.196   2.691   0.158
 1288HOH     H1 4069   2.258   2.684   0.230
 1288HOH     H2 4070   2.123   2.634   0.184
 1289HOH      O 4071   0.060   3.042   2.758
 1289HOH     H1 4072   0.083   3.005   2.673
 1289HOH     H2 4073   0.062   3.137   2.744
 1290HOH      O 4074   3.571   3.775   0.400
 1290HOH     H1 4075   3.505   3.725   0.353
 1290HOH     H2 4076   3.594   3.721   0.476
 1291HOH      O 4077   1.272   2.836   3.522
 1291HOH     H1 4078   1.311   2.853   3.436
 1291HOH     H2 4079   1.243   2.922   3.552
 1292HOH      O 4080   2.721   2.357   3.256
 1292HOH     H1 4081   2.705   2.299   3.182
 1292HOH     H2 4082   2.763   2.434   3.218
 1293HOH      O 4083   3.366   3.316   3.957
 1293HOH     H1 4084   3.431   3.329   4.026
 1293HOH     H2 4085   3.387   3.230   3.920
 1294HOH      O 4086   3.765   3.925   1.798
 1294HOH     H1 4087   3.759   4.020   1.785
 1294HOH     H2 4088   3.760   3.914   1.893
 1295HOH      O 4089   3.750   2.579   3.597
 1295HOH     H1 4090   3.805   2.568   3.519
 1295HOH     H2 4091   3.790   2.650   3.646
 1296HOH      O 4092   3.548   1.634   2.227
 1296HOH     H1 4093   3.627   1.627   2.174
 1296HOH     H2 4094   3.516   1.724   2.212
 1297HOH      O 4095   2.098   0.976   3.479
 1297HOH     H1 4096   2.073   0.989   3.387
 1297HOH     H2 4097   2.025   1.014   3.529
 1298HOH      O 4098   1.953   2.758   1.924
 1298HOH     H1 4099   2.042   2.731   1.947
 1298HOH     H2 4100   1.903   2.676   1.920
 1299HOH      O 4101   2.554   3.979   2.010
 1299HOH     H1 4102   2.601   4.035   1.948
 1299HOH     H2 4103   2.622   3.943   2.066
 1300HOH      O 4104   2.178   3.981   2.414
 1300HOH     H1 4105   2.220   3.905   2.454
 1300HOH     H2 4106   2.085   3.957   2.410
 1301HOH      O 4107   1.921   2.910   2.261
 1301HOH     H1 4108   1.922   2.823   2.221
 1301HOH     H2 4109   1.841   2.912   2.313
 1302HOH      O 4110   1.193   2.602   0.606
 1302HOH     H1 4111   1.245   2.641   0.676
 1302HOH     H2 4112   1.103   2.606   0.637
 1303HOH      O 4113   2.053   2.881   4.015
 1303HOH     H1 4114   2.121   2.817   4.039
 1303HOH     H2 4115   1.972   2.829   4.011
 1304HOH      O 4116   2.215   1.523   1.028
 1304HOH     H1 4117   2.173   1.440   1.050
 1304HOH     H2 4118   2.147   1.589   1.044
 1305HOH      O 4119   3.242   2.213   3.278
 1305HOH     H1 4120   3.163   2.236   3.326
 1305HOH     H2 4121   3.212   2.189   3.191
 1306HOH      O 4122   2.066   3.162   3.949
 1306HOH     H1 4123   2.052   3.082   3.998
 1306HOH     H2 4124   2.086   3.133   3.860
 1307HOH      O 4125   1.541   2.956   1.546
 1307HOH     H1 4126   1.625   3.000   1.534
 1307HOH     H2 4127   1.501   3.000   1.621
 1308HOH      O 4128   0.500   2.411   3.484
 1308HOH     H1 4129   0.561   2.482   3.462
 1308HOH     H2 4130   0.529   2.338   3.429
 1309HOH      O 4131   1.430   0.622   3.075
 1309HOH     H1 4132   1.449   0.714   3.092
 1309HOH     H2 4133   1.499   0.574   3.121
 1310HOH      O 4134   2.157   3.125   0.306
 1310HOH     H1 4135   2.228   3.129   0.242
 1310HOH     H2 4136   2.182   3.189   0.373
 1311HOH      O 4137   2.522   1.251   2.206
 1311HOH     H1 4138   2.557   1.261   2.295
 1311HOH     H2 4139   2.462   1.325   2.197
 1312HOH      O 4140   3.217   2.577   1.163
 1312HOH     H1 4141   3.136   2.605   1.122
 1312HOH     H2 4142   3.199   2.487   1.193
 1313HOH      O 4143   3.076   1.084   2.412
 1313HOH     H1 4144   2.985   1.091   2.383
 1313HOH     H2 4145   3.077   1.128   2.498
 1314HOH      O 4146   1.160   0.550   0.918
 1314HOH     H1 4147   1.142   0.643   0.929
 1314HOH     H2 4148   1.132   0.510   1.001
 1315HOH      O 4149   0.153   2.661   2.642
 1315HOH     H1 4150   0.066   2.644   2.678
 1315HOH     H2 4151   0.208   2.591   2.679
 1316HOH      O 4152   2.468   3.505   1.185
 1316HOH     H1 4153   2.529   3.549   1.125
 1316HOH     H2 4154   2.448   3.571   1.251
 1317HOH      O 4155   1.009   0.487   0.073
 1317HOH     H1 4156   0.954   0.563   0.054
 1317HOH     H2 4157   1.083   0.523   0.122
 1318HOH      O 4158   3.523   3.774   2.844
 1318HOH     H1 4159   3.555   3.844   2.787
 1318HOH     H2 4160   3.436   3.802   2.870
 1319HOH      O 4161   3.606   0.701   3.570
 1319HOH     H1 4162   3.545   0.643   3.615
 1319HOH     H2 4163   3.681   0.646   3.548
 1320HOH      O 4164   2.128   0.360   3.168
 1320HOH     H1 4165   2.190   0.430   3.185
 1320HOH     H2 4166   2.128   0.307   3.248
 1321HOH      O 4167   1.605   2.670   3.321
 1321HOH     H1 4168   1.550   2.748   3.326
 1321HOH     H2 4169   1.543   2.598   3.308
 1322HOH      O 4170   1.717   0.326   1.583
 1322HOH     H1 4171   1.652   0.396   1.589
 1322HOH     H2 4172   1.676   0.252   1.628
 1323HOH      O 4173   1.758   2.910   0.482
 1323HOH     H1 4174   1.670   2.943   0.467
 1323HOH     H2 4175   1.808   2.940   0.406
 1324HOH      O 4176   1.949   2.448  -0.011
 1324HOH     H1 4177   1.959   2.406   0.075
 1324HOH     H2 4178   1.905   2.382  -0.064
 1325HOH      O 4179   3.945   0.891   0.232
 1325HOH     H1 4180   3.898   0.873   0.150
 1325HOH     H2 4181   3.992   0.973   0.215
 1326HOH      O 4182   3.981   3.238   3.682
 1326HOH     H1 4183   3.950   3.298   3.614
 1326HOH     H2 4184   3.997   3.293   3.758
 1327HOH      O 4185   1.739   0.035   1.518
 1327HOH     H1 4186   1.803   0.102   1.541
 1327HOH     H2 4187   1.675   0.038   1.589
 1328HOH      O 4188   1.935   3.235   0.680
 1328HOH     H1 4189   1.847   3.271   0.674
 1328HOH     H2 4190   1.930   3.150   0.637
 1329HOH      O 4191   0.661   0.451   3.117
 1329HOH     H1 4192   0.707   0.376   3.154
 1329HOH     H2 4193   0.569   0.437   3.139
 1330HOH      O 4194   2.930   3.210   2.904
 1330HOH     H1 4195   2.910   3.162   2.823
 1330HOH     H2 4196   2.896   3.298   2.889
 1331HOH      O 4197   3.466   3.819   3.674
 1331HOH     H1 4198   3.455   3.898   3.621
 1331HOH     H2 4199   3.392   3.764   3.650
 1332HOH      O 4200   1.378   1.624   1.396
 1332HOH     H1 4201   1.387   1.529   1.391
 1332HOH     H2 4202   1.296   1.643   1.351
 1333HOH      O 4203   1.643   1.771   1.041
 1333HOH     H1 4204   1.680   1.775   0.953
 1333HOH     H2 4205   1.598   1.687   1.045
 1334HOH      O 4206   2.283   3.976   1.258
 1334HOH     H1 4207   2.298   4.071   1.254
 1334HOH     H2 4208   2.352   3.939   1.203
 1335HOH      O 4209   3.954   0.280   0.786
 1335HOH     H1 4210   4.006   0.276   0.866
 1335HOH     H2 4211   4.002   0.340   0.729
 1336HOH      O 4212   2.808   2.134   0.346
 1336HOH     H1 4213   2.759   2.058   0.314
 1336HOH     H2 4214   2.760   2.209   0.314
 1337HOH      O 4215   2.448   2.586   3.134
 1337HOH     H1 4216   2.397   2.639   3.072
 1337HOH     H2 4217   2.460   2.503   3.089
 1338HOH      O 4218   2.126   0.329   0.764
 1338HOH     H1 4219   2.144   0.419   0.789
 1338HOH     H2 4220   2.036   0.313   0.794
 1339HOH      O 4221   4.019   2.969   1.701
 1339HOH     H1 4222   3.935   2.980   1.746
 1339HOH     H2 4223   4.000   2.912   1.627
 1340HOH      O 4224   0.221   1.933   2.366
 1340HOH     H1 4225   0.297   1.905   2.314
 1340HOH     H2 4226   0.158   1.861   2.355
 1341HOH      O 4227   0.428   3.885   2.789
 1341HOH     H1 4228   0.398   3.971   2.760
 1341HOH     H2 4229   0.400   3.879   2.880
 1342HOH      O 4230   3.937   0.829   2.205
 1342HOH     H1 4231   3.842   0.822   2.212
 1342HOH     H2 4232   3.954   0.839   2.112
 1343HOH      O 4233   3.053   0.501   3.670
 1343HOH     H1 4234   3.130   0.479   3.723
 1343HOH     H2 4235   2.982   0.452   3.711
 1344HOH      O 4236   1.334   1.845   1.564
 1344HOH     H1 4237   1.343   1.771   1.504
 1344HOH     H2 4238   1.424   1.869   1.586
 1345HOH      O 4239   3.966   1.340   3.820
 1345HOH     H1 4240   4.023   1.272   3.784
 1345HOH     H2 4241   3.878   1.316   3.791
 1346HOH      O 4242   1.562   2.495   1.870
 1346HOH     H1 4243   1.582   2.421   1.927
 1346HOH     H2 4244   1.466   2.504   1.874
 1347HOH      O 4245   2.149   2.478   3.413
 1347HOH     H1 4246   2.143   2.509   3.504
 1347HOH     H2 4247   2.058   2.469   3.384
 1348HOH      O 4248   1.840   3.359   2.569
 1348HOH     H1 4249   1.913   3.297   2.567
 1348HOH     H2 4250   1.768   3.310   2.608
 1349HOH      O 4251   3.186   2.388   1.334
 1349HOH     H1 4252   3.143   2.303   1.340
 1349HOH     H2 4253   3.274   2.373   1.366
 1350HOH      O 4254   3.796   0.452   0.063
 1350HOH     H1 4255   3.769   0.521   0.002
 1350HOH     H2 4256   3.777   0.371   0.016
 1351HOH      O 4257   0.109   2.466   1.822
 1351HOH     H1 4258   0.114   2.461   1.918
 1351HOH     H2 4259   0.100   2.560   1.803
 1352HOH      O 4260   3.889   2.541   1.291
 1352HOH     H1 4261   3.899   2.525   1.385
 1352HOH     H2 4262   3.977   2.564   1.262
 1353HOH      O 4263   3.570   0.427   2.986
 1353HOH     H1 4264   3.656   0.415   3.026
 1353HOH     H2 4265   3.508   0.408   3.056
 1354HOH      O 4266   0.471   3.055   2.424
 1354HOH     H1 4267   0.432   3.123   2.370
 1354HOH     H2 4268   0.560   3.046   2.391
 1355HOH      O 4269   0.964   2.498   2.377
 1355HOH     H1 4270   1.049   2.462   2.403
 1355HOH     H2 4271   0.985   2.569   2.316
 1356HOH      O 4272   0.270   1.271   1.210
 1356HOH     H1 4273   0.267   1.321   1.128
 1356HOH     H2 4274   0.278   1.338   1.278
 1357HOH      O 4275   3.852   0.026   2.776
 1357HOH     H1 4276   3.930  -0.020   2.744
 1357HOH     H2 4277   3.883   0.077   2.850
 1358HOH      O 4278   2.043   2.811   2.799
 1358HOH     H1 4279   2.098   2.856   2.863
 1358HOH     H2 4280   1.962   2.793   2.845
 1359HOH      O 4281   2.766   2.676   1.429
 1359HOH     H1 4282   2.849   2.667   1.477
 1359HOH     H2 4283   2.753   2.771   1.422
 1360HOH      O 4284   0.268   1.509   1.350
 1360HOH     H1 4285   0.281   1.560   1.269
 1360HOH     H2 4286   0.176   1.525   1.373
 1361HOH      O 4287   0.339   2.297   0.883
 1361HOH     H1 4288   0.321   2.305   0.977
 1361HOH     H2 4289   0.293   2.217   0.856
 1362HOH      O 4290   2.306   2.168   0.856
 1362HOH     H1 4291   2.333   2.088   0.812
 1362HOH     H2 4292   2.324   2.152   0.949
 1363HOH      O 4293   2.208   2.466   0.526
 1363HOH     H1 4294   2.238   2.526   0.594
 1363HOH     H2 4295   2.240   2.380   0.555
 1364HOH      O 4296   2.385   2.044   0.250
 1364HOH     H1 4297   2.367   2.010   0.163
 1364HOH     H2 4298   2.368   2.138   0.243
 1365HOH      O 4299   0.067   0.955   2.400
 1365HOH     H1 4300   0.016   0.915   2.329
 1365HOH     H2 4301   0.056   0.895   2.474
 1366HOH      O 4302   2.022   3.839   0.805
 1366HOH     H1 4303   2.058   3.757   0.772
 1366HOH     H2 4304   1.947   3.813   0.858
 1367HOH      O 4305   3.930   2.374   3.840
 1367HOH     H1 4306   3.986   2.447   3.867
 1367HOH     H2 4307   3.930   2.377   3.745
 1368HOH      O 4308   0.123   0.781   3.784
 1368HOH     H1 4309   0.200   0.804   3.731
 1368HOH     H2 4310   0.064   0.855   3.774
 1369HOH      O 4311   0.235   0.733   0.539
 1369HOH     H1 4312   0.197   0.736   0.451
 1369HOH     H2 4313   0.267   0.643   0.548
 1370HOH      O 4314   2.829   1.135   2.345
 1370HOH     H1 4315   2.778   1.063   2.307
 1370HOH     H2 4316   2.762   1.197   2.374
 1371HOH      O 4317   0.675   1.989   4.034
 1371HOH     H1 4318   0.600   2.019   4.085
 1371HOH     H2 4319   0.637   1.956   3.952
 1372HOH      O 4320   3.176   0.427   3.321
 1372HOH     H1 4321   3.207   0.478   3.396
 1372HOH     H2 4322   3.082   0.416   3.336
 1373HOH      O 4323   0.209   3.535   3.161
 1373HOH     H1 4324   0.142   3.505   3.223
 1373HOH     H2 4325   0.219   3.461   3.101
 1374HOH      O 4326   2.869   3.439   3.823
 1374HOH     H1 4327   2.819   3.399   3.752
 1374HOH     H2 4328   2.944   3.381   3.835
 1375HOH      O 4329   2.483   3.455   3.211
 1375HOH     H1 4330   2.473   3.474   3.305
 1375HOH     H2 4331   2.394   3.463   3.176
 1376HOH      O 4332   2.248   1.250   2.898
 1376HOH     H1 4333   2.261   1.281   2.809
 1376HOH     H2 4334   2.164   1.203   2.896
 1377HOH      O 4335   3.310   3.110   1.958
 1377HOH     H1 4336   3.321   3.055   2.035
 1377HOH     H2 4337   3.391   3.160   1.952
 1378HOH      O 4338   2.031   3.941   3.401
 1378HOH     H1 4339   1.973   3.961   3.475
 1378HOH     H2 4340   2.112   3.910   3.442
 1379HOH      O 4341   2.329   1.827   3.723
 1379HOH     H1 4342   2.400   1.764   3.711
 1379HOH     H2 4343   2.373   1.912   3.722
 1380HOH      O 4344   0.100   0.683   0.300
 1380HOH     H1 4345   0.071   0.609   0.247
 1380HOH     H2 4346   0.028   0.745   0.297
 1381HOH      O 4347   3.394   3.008   0.720
 1381HOH     H1 4348   3.305   2.981   0.744
 1381HOH     H2 4349   3.448   2.977   0.793
 1382HOH      O 4350   0.436   1.076   1.079
 1382HOH     H1 4351   0.468   1.158   1.041
 1382HOH     H2 4352   0.509   1.015   1.069
 1383HOH      O 4353   1.222   0.875   3.316
 1383HOH     H1 4354   1.168   0.822   3.257
 1383HOH     H2 4355   1.285   0.918   3.258
 1384HOH      O 4356   0.637   0.484   1.444
 1384HOH     H1 4357   0.557   0.509   1.397
 1384HOH     H2 4358   0.696   0.454   1.375
 1385HOH      O 4359   2.673   3.397   2.044
 1385HOH     H1 4360   2.725   3.429   1.970
 1385HOH     H2 4361   2.605   3.343   2.004
 1386HOH      O 4362   1.460   0.795   3.672
 1386HOH     H1 4363   1.487   0.727   3.734
 1386HOH     H2 4364   1.451   0.874   3.725
 1387HOH      O 4365   1.617   2.370   1.405
 1387HOH     H1 4366   1.626   2.284   1.445
 1387HOH     H2 4367   1.645   2.431   1.473
 1388HOH      O 4368   3.743   0.004   3.370
 1388HOH     H1 4369   3.721   0.096   3.356
 1388HOH     H2 4370   3.659  -0.041   3.372
 1389HOH      O 4371  -0.008   1.664   2.004
 1389HOH     H1 4372  -0.013   1.694   1.913
 1389HOH     H2 4373   0.085   1.647   2.018
 1390HOH      O 4374   3.978   1.978   3.121
 1390HOH     H1 4375   4.056   1.923   3.115
 1390HOH     H2 4376   3.914   1.924   3.169
 1391HOH      O 4377   0.914   0.712   1.255
 1391HOH     H1 4378   0.974   0.758   1.196
 1391HOH     H2 4379   0.967   0.692   1.332
 1392HOH      O 4380   1.584   0.511   2.215
 1392HOH     H1 4381   1.496   0.510   2.178
 1392HOH     H2 4382   1.593   0.427   2.260
 1393HOH      O 4383   0.755   0.172   4.012
 1393HOH     H1 4384   0.770   0.233   3.939
 1393HOH     H2 4385   0.768   0.085   3.973
 1394HOH      O 4386   3.420   0.512   1.856
 1394HOH     H1 4387   3.483   0.469   1.913
 1394HOH     H2 4388   3.340   0.519   1.909
 1395HOH      O 4389   0.919   2.955   2.201
 1395HOH     H1 4390   0.867   3.034   2.216
 1395HOH     H2 4391   0.952   2.931   2.287
 1396HOH      O 4392   0.836   2.154   0.580
 1396HOH     H1 4393   0.772   2.164   0.651
 1396HOH     H2 4394   0.890   2.081   0.608
 1397HOH      O 4395   2.171   0.264   0.314
 1397HOH     H1 4396   2.227   0.268   0.391
 1397HOH     H2 4397   2.221   0.211   0.251
 1398HOH      O 4398   2.893   0.735   0.549
 1398HOH     H1 4399   2.961   0.749   0.482
 1398HOH     H2 4400   2.816   0.781   0.515
 1399HOH      O 4401   3.148   1.885   1.872
 1399HOH     H1 4402   3.163   1.956   1.809
 1399HOH     H2 4403   3.235   1.845   1.883
 1400HOH      O 4404   2.414   2.631   0.320
 1400HOH     H1 4405   2.473   2.698   0.285
 1400HOH     H2 4406   2.470   2.554   0.332
 1401HOH      O 4407   3.006   0.087   3.014
 1401HOH     H1 4408   3.072   0.156   3.018
 1401HOH     H2 4409   2.954   0.099   3.094
 1402HOH      O 4410   0.973   3.195   2.934
 1402HOH     H1 4411   1.017   3.180   2.850
 1402HOH     H2 4412   0.926   3.278   2.922
 1403HOH      O 4413   1.071   3.253   1.406
 1403HOH     H1 4414   0.997   3.313   1.417
 1403HOH     H2 4415   1.102   3.270   1.317
 1404HOH      O 4416   1.844   2.706  -0.013
 1404HOH     H1 4417   1.751   2.716   0.008
 1404HOH     H2 4418   1.864   2.615   0.008
 1405HOH      O 4419   2.777   1.180   0.699
 1405HOH     H1 4420   2.689   1.170   0.662
 1405HOH     H2 4421   2.834   1.133   0.638
 1406HOH      O 4422   3.196   3.492   1.081
 1406HOH     H1 4423   3.260   3.562   1.068
 1406HOH     H2 4424   3.115   3.537   1.103
 1407HOH      O 4425   2.016   2.347   1.671
 1407HOH     H1 4426   1.942   2.315   1.619
 1407HOH     H2 4427   2.090   2.349   1.611
 1408HOH      O 4428   3.985   2.713   2.049
 1408HOH     H1 4429   3.975   2.808   2.050
 1408HOH     H2 4430   3.990   2.690   1.956
 1409HOH      O 4431   3.805   3.254   3.954
 1409HOH     H1 4432   3.717   3.287   3.939
 1409HOH     H2 4433   3.807   3.169   3.911
 1410HOH      O 4434   1.461   0.402   3.848
 1410HOH     H1 4435   1.534   0.445   3.804
 1410HOH     H2 4436   1.436   0.330   3.790
 1411HOH      O 4437   3.424   2.659   3.087
 1411HOH     H1 4438   3.368   2.668   3.010
 1411HOH     H2 4439   3.511   2.643   3.052
 1412HOH      O 4440   3.390   1.448   2.879
 1412HOH     H1 4441   3.344   1.389   2.819
 1412HOH     H2 4442   3.421   1.520   2.824
 1413HOH      O 4443   3.598   0.713   3.284
 1413HOH     H1 4444   3.533   0.756   3.228
 1413HOH     H2 4445   3.580   0.746   3.371
 1414HOH      O 4446   3.628   1.251   1.750
 1414HOH     H1 4447   3.653   1.340   1.727
 1414HOH     H2 4448   3.683   1.196   1.695
 1415HOH      O 4449   3.833   2.725   0.049
 1415HOH     H1 4450   3.897   2.795   0.058
 1415HOH     H2 4451   3.816   2.696   0.138
 1416HOH      O 4452   1.307   1.229   1.617
 1416HOH     H1 4453   1.375   1.169   1.647
 1416HOH     H2 4454   1.324   1.310   1.664
 1417HOH      O 4455   1.125   2.332   2.676
 1417HOH     H1 4456   1.032   2.352   2.669
 1417HOH     H2 4457   1.163   2.364   2.594
 1418HOH      O 4458   2.889   3.766   3.479
 1418HOH     H1 4459   2.842   3.848   3.492
 1418HOH     H2 4460   2.937   3.753   3.561
 1419HOH      O 4461   3.658   2.094   2.381
 1419HOH     H1 4462   3.687   2.157   2.446
 1419HOH     H2 4463   3.711   2.016   2.396
 1420HOH      O 4464   0.298   1.144   3.772
 1420HOH     H1 4465   0.325   1.219   3.825
 1420HOH     H2 4466   0.317   1.068   3.827
 1421HOH      O 4467   0.021   1.598   3.373
 1421HOH     H1 4468   0.095   1.655   3.355
 1421HOH     H2 4469  -0.028   1.642   3.442
 1422HOH      O 4470   1.072   3.306   1.816
 1422HOH     H1 4471   0.980   3.301   1.841
 1422HOH     H2 4472   1.092   3.400   1.821
 1423HOH      O 4473   1.844   3.402   2.016
 1423HOH     H1 4474   1.876   3.313   2.000
 1423HOH     H2 4475   1.839   3.409   2.111
 1424HOH      O 4476   3.468   2.372   1.428
 1424HOH     H1 4477   3.487   2.461   1.459
 1424HOH     H2 4478   3.524   2.361   1.351
 1425HOH      O 4479   0.979   1.817   0.316
 1425HOH     H1 4480   0.993   1.911   0.319
 1425HOH     H2 4481   0.943   1.801   0.228
 1426HOH      O 4482   3.396   1.756   2.546
 1426HOH     H1 4483   3.379   1.818   2.475
 1426HOH     H2 4484   3.391   1.670   2.504
 1427HOH      O 4485   3.476   0.889   2.015
 1427HOH     H1 4486   3.402   0.950   2.013
 1427HOH     H2 4487   3.480   0.854   1.925
 1428HOH      O 4488   1.561   1.473   2.185
 1428HOH     H1 4489   1.512   1.476   2.103
 1428HOH     H2 4490   1.623   1.401   2.174
 1429HOH      O 4491   1.854   0.524   3.587
 1429HOH     H1 4492   1.867   0.613   3.554
 1429HOH     H2 4493   1.804   0.535   3.667
 1430HOH      O 4494   0.228   1.810   1.311
 1430HOH     H1 4495   0.157   1.752   1.337
 1430HOH     H2 4496   0.234   1.874   1.382
 1431HOH      O 4497   3.842   3.720   0.688
 1431HOH     H1 4498   3.842   3.738   0.782
 1431HOH     H2 4499   3.890   3.793   0.649
 1432HOH      O 4500   3.644   2.329   3.799
 1432HOH     H1 4501   3.737   2.331   3.776
 1432HOH     H2 4502   3.599   2.326   3.715
 1433HOH      O 4503   2.700   1.912   2.101
 1433HOH     H1 4504   2.685   1.843   2.036
 1433HOH     H2 4505   2.779   1.957   2.070
 1434HOH      O 4506   3.142   0.076   2.194
 1434HOH     H1 4507   3.148   0.167   2.223
 1434HOH     H2 4508   3.059   0.045   2.231
 1435HOH      O 4509   1.396   2.756   2.504
 1435HOH     H1 4510   1.483   2.725   2.529
 1435HOH     H2 4511   1.388   2.733   2.412
 1436HOH      O 4512   1.231   3.981   3.060
 1436HOH     H1 4513   1.323   3.970   3.082
 1436HOH     H2 4514   1.186   3.913   3.111
 1437HOH      O 4515   3.663   1.745   1.100
 1437HOH     H1 4516   3.592   1.756   1.164
 1437HOH     H2 4517   3.653   1.655   1.068
 1438HOH      O 4518   3.088   2.936   1.736
 1438HOH     H1 4519   3.120   3.001   1.673
 1438HOH     H2 4520   3.058   2.987   1.811
 1439HOH      O 4521   3.338   2.956   3.200
 1439HOH     H1 4522   3.328   2.879   3.256
 1439HOH     H2 4523   3.311   3.030   3.255
 1440HOH      O 4524   3.053   0.307   0.433
 1440HOH     H1 4525   3.111   0.297   0.508
 1440HOH     H2 4526   3.111   0.321   0.359
 1441HOH      O 4527   2.851   1.847  -0.014
 1441HOH     H1 4528   2.842   1.942  -0.012
 1441HOH     H2 4529   2.870   1.822   0.076
 1442HOH      O 4530   2.999   2.975   0.319
 1442HOH     H1 4531   3.015   2.914   0.391
 1442HOH     H2 4532   2.979   2.919   0.244
 1443HOH      O 4533   2.602   1.916   3.860
 1443HOH     H1 4534   2.605   1.932   3.766
 1443HOH     H2 4535   2.667   1.848   3.875
 1444HOH      O 4536   2.894   2.147   1.076
 1444HOH     H1 4537   2.848   2.105   1.003
 1444HOH     H2 4538   2.980   2.105   1.076
 1445HOH      O 4539   3.486   3.004   0.139
 1445HOH     H1 4540   3.552   2.955   0.188
 1445HOH     H2 4541   3.528   3.089   0.121
 1446HOH      O 4542   1.407   2.845   4.015
 1446HOH     H1 4543   1.468   2.774   4.036
 1446HOH     H2 4544   1.334   2.801   3.972
 1447HOH      O 4545   3.568   4.019   2.188
 1447HOH     H1 4546   3.571   4.109   2.219
 1447HOH     H2 4547   3.541   3.968   2.264
 1448HOH      O 4548   1.631   0.125   3.512
 1448HOH     H1 4549   1.589   0.045   3.542
 1448HOH     H2 4550   1.651   0.109   3.420
 1449HOH      O 4551   1.510   3.750   0.882
 1449HOH     H1 4552   1.472   3.827   0.841
 1449HOH     H2 4553   1.578   3.722   0.821
 1450HOH      O 4554   2.890   0.673   2.373
 1450HOH     H1 4555   2.886   0.608   2.444
 1450HOH     H2 4556   2.957   0.735   2.401
 1451HOH      O 4557   3.679   3.292   1.410
 1451HOH     H1 4558   3.730   3.237   1.351
 1451HOH     H2 4559   3.637   3.230   1.470
 1452HOH      O 4560   1.140   1.773   0.555
 1452HOH     H1 4561   1.084   1.706   0.516
 1452HOH     H2 4562   1.180   1.817   0.480
 1453HOH      O 4563   0.226   0.867   3.284
 1453HOH     H1 4564   0.322   0.863   3.276
 1453HOH     H2 4565   0.201   0.945   3.235
 1454HOH      O 4566   3.277   3.865   2.906
 1454HOH     H1 4567   3.250   3.875   2.998
 1454HOH     H2 4568   3.207   3.908   2.856
 1455HOH      O 4569   2.504   0.885   2.670
 1455HOH     H1 4570   2.410   0.899   2.659
 1455HOH     H2 4571   2.541   0.973   2.680
 1456HOH      O 4572   2.224   0.041   3.774
 1456HOH     H1 4573   2.256   0.003   3.856
 1456HOH     H2 4574   2.234  -0.029   3.709
 1457HOH      O 4575   0.041   3.255   2.550
 1457HOH     H1 4576  -0.010   3.282   2.627
 1457HOH     H2 4577   0.060   3.337   2.504
 1458HOH      O 4578   3.402   1.523   1.114
 1458HOH     H1 4579   3.382   1.431   1.132
 1458HOH     H2 4580   3.485   1.520   1.067
 1459HOH      O 4581   1.385   0.186   3.165
 1459HOH     H1 4582   1.435   0.115   3.124
 1459HOH     H2 4583   1.326   0.142   3.226
 1460HOH      O 4584   0.638   2.945   3.792
 1460HOH     H1 4585   0.662   2.861   3.830
 1460HOH     H2 4586   0.587   2.989   3.860
 1461HOH      O 4587   3.707   0.465   2.747
 1461HOH     H1 4588   3.694   0.405   2.673
 1461HOH     H2 4589   3.654   0.427   2.817
 1462HOH      O 4590   2.771   2.956   1.399
 1462HOH     H1 4591   2.861   2.968   1.370
 1462HOH     H2 4592   2.720   3.019   1.347
 1463HOH      O 4593   0.134   0.875   1.110
 1463HOH     H1 4594   0.133   0.817   1.034
 1463HOH     H2 4595   0.172   0.821   1.180
 1464HOH      O 4596   2.895   0.938   0.087
 1464HOH     H1 4597   2.836   0.977   0.023
 1464HOH     H2 4598   2.844   0.870   0.131
 1465HOH      O 4599   2.655   2.382   0.330
 1465HOH     H1 4600   2.611   2.350   0.408
 1465HOH     H2 4601   2.706   2.457   0.359
 1466HOH      O 4602   1.316   2.766   0.860
 1466HOH     H1 4603   1.400   2.812   0.867
 1466HOH     H2 4604   1.310   2.714   0.940
 1467HOH      O 4605   3.087   1.931   3.351
 1467HOH     H1 4606   3.027   1.859   3.332
 1467HOH     H2 4607   3.138   1.941   3.271
 1468HOH      O 4608   0.637   2.607   1.087
 1468HOH     H1 4609   0.639   2.695   1.050
 1468HOH     H2 4610   0.652   2.549   1.013
 1469HOH      O 4611   3.048   2.487   3.969
 1469HOH     H1 4612   3.005   2.467   4.053
 1469HOH     H2 4613   2.977   2.488   3.905
 1470HOH      O 4614   0.490   3.115   2.103
 1470HOH     H1 4615   0.484   3.187   2.040
 1470HOH     H2 4616   0.403   3.112   2.143
 1471HOH      O 4617   2.456   2.034   2.166
 1471HOH     H1 4618   2.378   1.978   2.167
 1471HOH     H2 4619   2.529   1.973   2.152
 1472HOH      O 4620   2.309   3.920   2.120
 1472HOH     H1 4621   2.386   3.955   2.076
 1472HOH     H2 4622   2.338   3.903   2.210
 1473HOH      O 4623   0.323   1.031   0.353
 1473HOH     H1 4624   0.371   0.951   0.377
 1473HOH     H2 4625   0.325   1.032   0.257
 1474HOH      O 4626   3.930   2.523   2.794
 1474HOH     H1 4627   3.974   2.524   2.879
 1474HOH     H2 4628   3.934   2.432   2.766
 1475HOH      O 4629   2.811   1.285   2.780
 1475HOH     H1 4630   2.739   1.254   2.835
 1475HOH     H2 4631   2.779   1.366   2.741
 1476HOH      O 4632   2.193   2.589   0.966
 1476HOH     H1 4633   2.166   2.679   0.949
 1476HOH     H2 4634   2.158   2.570   1.053
 1477HOH      O 4635   0.408   3.623   1.650
 1477HOH     H1 4636   0.373   3.667   1.573
 1477HOH     H2 4637   0.381   3.679   1.723
 1478HOH      O 4638   3.289   0.587  -0.004
 1478HOH     H1 4639   3.377   0.597   0.032
 1478HOH     H2 4640   3.252   0.675   0.002
 1479HOH      O 4641   0.444   1.920   1.674
 1479HOH     H1 4642   0.532   1.943   1.644
 1479HOH     H2 4643   0.447   1.934   1.769
 1480HOH      O 4644   3.792   0.173   0.417
 1480HOH     H1 4645   3.734   0.249   0.416
 1480HOH     H2 4646   3.791   0.144   0.508
 1481HOH      O 4647   3.401   1.793   1.960
 1481HOH     H1 4648   3.344   1.727   2.000
 1481HOH     H2 4649   3.430   1.847   2.033
 1482HOH      O 4650   2.631   0.772   3.520
 1482HOH     H1 4651   2.648   0.731   3.605
 1482HOH     H2 4652   2.693   0.845   3.515
 1483HOH      O 4653   3.780   1.984   1.411
 1483HOH     H1 4654   3.723   1.937   1.472
 1483HOH     H2 4655   3.730   1.987   1.329
 1484HOH      O 4656   2.704   0.059   1.829
 1484HOH     H1 4657   2.772   0.099   1.884
 1484HOH     H2 4658   2.715   0.102   1.744
 1485HOH      O 4659   0.892   0.858   3.300
 1485HOH     H1 4660   0.912   0.951   3.291
 1485HOH     H2 4661   0.957   0.814   3.247
 1486HOH      O 4662   3.534   2.409   0.391
 1486HOH     H1 4663   3.596   2.399   0.319
 1486HOH     H2 4664   3.530   2.323   0.432
 1487HOH      O 4665   1.408   1.576   3.527
 1487HOH     H1 4666   1.396   1.653   3.583
 1487HOH     H2 4667   1.385   1.502   3.583
 1488HOH      O 4668   2.300   0.912   0.399
 1488HOH     H1 4669   2.278   0.876   0.485
 1488HOH     H2 4670   2.349   0.842   0.356
 1489HOH      O 4671   3.044   3.417   0.823
 1489HOH     H1 4672   3.076   3.406   0.734
 1489HOH     H2 4673   3.091   3.351   0.874
 1490HOH      O 4674   1.988   3.413   3.666
 1490HOH     H1 4675   1.956   3.433   3.754
 1490HOH     H2 4676   1.948   3.479   3.610
 1491HOH      O 4677   3.261   0.999   0.397
 1491HOH     H1 4678   3.209   1.054   0.455
 1491HOH     H2 4679   3.330   1.057   0.364
 1492HOH      O 4680   1.735   2.296   3.622
 1492HOH     H1 4681   1.707   2.387   3.608
 1492HOH     H2 4682   1.748   2.289   3.716
 1493HOH      O 4683   3.289   2.822   0.036
 1493HOH     H1 4684   3.281   2.759   0.107
 1493HOH     H2 4685   3.355   2.885   0.066
 1494HOH      O 4686   1.683   2.942   4.005
 1494HOH     H1 4687   1.733   2.982   3.934
 1494HOH     H2 4688   1.596   2.927   3.968
 1495HOH      O 4689   1.158   0.333   3.601
 1495HOH     H1 4690   1.175   0.387   3.524
 1495HOH     H2 4691   1.091   0.381   3.649
 1496HOH      O 4692   1.428   3.421   0.579
 1496HOH     H1 4693   1.376   3.342   0.595
 1496HOH     H2 4694   1.376   3.472   0.517
 1497HOH      O 4695   0.743   2.485   1.596
 1497HOH     H1 4696   0.803   2.472   1.522
 1497HOH     H2 4697   0.738   2.400   1.639
 1498HOH      O 4698   0.780   0.698   3.774
 1498HOH     H1 4699   0.814   0.788   3.775
 1498HOH     H2 4700   0.843   0.649   3.722
 1499HOH      O 4701   0.753   3.332   1.947
 1499HOH     H1 4702   0.665   3.363   1.970
 1499HOH     H2 4703   0.812   3.392   1.993
 1500HOH      O 4704   2.929   0.205   1.919
 1500HOH     H1 4705   2.865   0.230   1.986
 1500HOH     H2 4706   3.009   0.251   1.944
 1501HOH      O 4707   3.070   1.669   1.285
 1501HOH     H1 4708   3.062   1.575   1.301
 1501HOH     H2 4709   3.113   1.703   1.364
 1502HOH      O 4710   3.425   1.149   2.160
 1502HOH     H1 4711   3.466   1.116   2.240
 1502HOH     H2 4712   3.424   1.244   2.171
 1503HOH      O 4713   3.575   1.976   1.843
 1503HOH     H1 4714   3.533   1.926   1.913
 1503HOH     H2 4715   3.553   2.067   1.861
 1504HOH      O 4716   0.593   0.590   0.158
 1504HOH     H1 4717   0.657   0.615   0.091
 1504HOH     H2 4718   0.543   0.519   0.118
 1505HOH      O 4719   3.606   1.153   1.352
 1505HOH     H1 4720   3.591   1.115   1.265
 1505HOH     H2 4721   3.579   1.245   1.343
 1506HOH      O 4722   2.888   0.824   3.330
 1506HOH     H1 4723   2.900   0.909   3.372
 1506HOH     H2 4724   2.926   0.761   3.391
 1507HOH      O 4725   2.631   2.783   0.280
 1507HOH     H1 4726   2.600   2.865   0.318
 1507HOH     H2 4727   2.719   2.803   0.247
 1508HOH      O 4728   3.724   1.113   1.990
 1508HOH     H1 4729   3.640   1.069   2.004
 1508HOH     H2 4730   3.701   1.192   1.942
 1509HOH      O 4731   2.365   1.558   3.856
 1509HOH     H1 4732   2.414   1.598   3.784
 1509HOH     H2 4733   2.302   1.625   3.883
 1510HOH      O 4734   1.563   3.173   0.900
 1510HOH     H1 4735   1.585   3.099   0.956
 1510HOH     H2 4736   1.470   3.159   0.878
 1511HOH      O 4737   2.556   1.181   2.926
 1511HOH     H1 4738   2.577   1.124   3.001
 1511HOH     H2 4739   2.531   1.264   2.966
 1512HOH      O 4740   1.505   2.836   2.175
 1512HOH     H1 4741   1.520   2.900   2.105
 1512HOH     H2 4742   1.591   2.800   2.194
 1513HOH      O 4743   3.366   0.683   0.341
 1513HOH     H1 4744   3.413   0.663   0.260
 1513HOH     H2 4745   3.356   0.778   0.340
 1514HOH      O 4746   3.380   2.214   1.918
 1514HOH     H1 4747   3.295   2.257   1.930
 1514HOH     H2 4748   3.403   2.231   1.827
 1515HOH      O 4749   2.411   1.881   0.031
 1515HOH     H1 4750   2.439   1.794   0.057
 1515HOH     H2 4751   2.470   1.905  -0.041
 1516HOH      O 4752   3.027   1.401   1.345
 1516HOH     H1 4753   3.115   1.373   1.320
 1516HOH     H2 4754   3.024   1.391   1.440
 1517HOH      O 4755   0.233   1.571   2.109
 1517HOH     H1 4756   0.288   1.516   2.054
 1517HOH     H2 4757   0.265   1.555   2.198
 1518HOH      O 4758   3.178   2.327   0.927
 1518HOH     H1 4759   3.108   2.300   0.868
 1518HOH     H2 4760   3.215   2.405   0.886
 1519HOH      O 4761   0.157   1.613   2.723
 1519HOH     H1 4762   0.173   1.705   2.700
 1519HOH     H2 4763   0.244   1.573   2.720
 1520HOH      O 4764   3.733   1.218   3.739
 1520HOH     H1 4765   3.665   1.260   3.686
 1520HOH     H2 4766   3.718   1.124   3.727
 1521HOH      O 4767   3.838   2.465   1.564
 1521HOH     H1 4768   3.760   2.493   1.613
 1521HOH     H2 4769   3.840   2.370   1.577
 1522HOH      O 4770   3.132   3.386   1.698
 1522HOH     H1 4771   3.061   3.444   1.673
 1522HOH     H2 4772   3.211   3.441   1.693
 1523HOH      O 4773   2.129   2.304   1.209
 1523HOH     H1 4774   2.133   2.209   1.223
 1523HOH     H2 4775   2.057   2.315   1.146
 1524HOH      O 4776   2.645   3.652   0.231
 1524HOH     H1 4777   2.664   3.661   0.138
 1524HOH     H2 4778   2.701   3.581   0.261
 1525HOH      O 4779   0.648   3.691   2.833
 1525HOH     H1 4780   0.736   3.695   2.794
 1525HOH     H2 4781   0.608   3.775   2.812
 1526HOH      O 4782   2.824   4.018   1.293
 1526HOH     H1 4783   2.814   4.075   1.217
 1526HOH     H2 4784   2.889   3.953   1.266
 1527HOH      O 4785   0.133   3.337   0.221
 1527HOH     H1 4786   0.147   3.408   0.283
 1527HOH     H2 4787   0.194   3.269   0.248
 1528HOH      O 4788   2.590   0.357   0.621
 1528HOH     H1 4789   2.599   0.353   0.525
 1528HOH     H2 4790   2.670   0.317   0.654
 1529HOH      O 4791   3.938   2.630   1.767
 1529HOH     H1 4792   3.956   2.562   1.703
 1529HOH     H2 4793   3.876   2.689   1.724
 1530HOH      O 4794   1.886   0.542   2.031
 1530HOH     H1 4795   1.839   0.511   2.109
 1530HOH     H2 4796   1.921   0.463   1.991
 1531HOH      O 4797   0.016   3.597   1.415
 1531HOH     H1 4798   0.056   3.585   1.501
 1531HOH     H2 4799   0.052   3.526   1.361
 1532HOH      O 4800   0.852   0.322   0.202
 1532HOH     H1 4801   0.924   0.382   0.184
 1532HOH     H2 4802   0.821   0.295   0.116
 1533HOH      O 4803   2.901   2.088   2.742
 1533HOH     H1 4804   2.902   2.017   2.807
 1533HOH     H2 4805   2.958   2.155   2.779
 1534HOH      O 4806   3.652   1.334   3.209
 1534HOH     H1 4807   3.657   1.326   3.114
 1534HOH     H2 4808   3.709   1.265   3.242
 1535HOH      O 4809   3.865   3.014   0.164
 1535HOH     H1 4810   3.904   3.084   0.216
 1535HOH     H2 4811   3.794   2.980   0.218
 1536HOH      O 4812   0.804   0.045   1.125
 1536HOH     H1 4813   0.712   0.018   1.118
 1536HOH     H2 4814   0.845  -0.023   1.178
 1537HOH      O 4815   1.542   2.036   2.546
 1537HOH     H1 4816   1.548   2.035   2.642
 1537HOH     H2 4817   1.501   1.953   2.524
 1538HOH      O 4818   2.165   1.933   3.115
 1538HOH     H1 4819   2.082   1.935   3.162
 1538HOH     H2 4820   2.207   2.016   3.137
 1539HOH      O 4821   1.782   1.176   0.399
 1539HOH     H1 4822   1.797   1.082   0.410
 1539HOH     H2 4823   1.711   1.182   0.336
 1540HOH      O 4824   2.876   3.058   0.813
 1540HOH     H1 4825   2.925   3.061   0.895
 1540HOH     H2 4826   2.811   2.990   0.826
 1541HOH      O 4827   0.137   3.125   0.990
 1541HOH     H1 4828   0.138   3.193   0.922
 1541HOH     H2 4829   0.189   3.054   0.952
 1542HOH      O 4830   1.761   2.900   3.447
 1542HOH     H1 4831   1.727   2.810   3.444
 1542HOH     H2 4832   1.849   2.893   3.410
 1543HOH      O 4833   1.017   0.475   1.129
 1543HOH     H1 4834   0.930   0.436   1.141
 1543HOH     H2 4835   1.020   0.546   1.194
 1544HOH      O 4836   1.574   1.730   2.734
 1544HOH     H1 4837   1.640   1.675   2.691
 1544HOH     H2 4838   1.517   1.668   2.779
 1545HOH      O 4839   1.270   1.397   3.298
 1545HOH     H1 4840   1.326   1.445   3.358
 1545HOH     H2 4841   1.286   1.438   3.213
 1546HOH      O 4842   3.296   0.217   1.085
 1546HOH     H1 4843   3.253   0.234   1.001
 1546HOH     H2 4844   3.334   0.130   1.076
 1547HOH      O 4845   2.642   2.289   3.749
 1547HOH     H1 4846   2.624   2.291   3.655
 1547HOH     H2 4847   2.569   2.336   3.789
 1548HOH      O 4848   0.287   2.342   3.854
 1548HOH     H1 4849   0.243   2.426   3.854
 1548HOH     H2 4850   0.305   2.324   3.761
 1549HOH      O 4851   3.801   0.079   0.673
 1549HOH     H1 4852   3.839   0.007   0.722
 1549HOH     H2 4853   3.853   0.155   0.699
 1550HOH      O 4854   2.736   1.545   0.009
 1550HOH     H1 4855   2.707   1.574   0.095
 1550HOH     H2 4856   2.803   1.609  -0.017
 1551HOH      O 4857   0.922   2.644   1.922
 1551HOH     H1 4858   0.879   2.729   1.929
 1551HOH     H2 4859   0.850   2.581   1.923
 1552HOH      O 4860   3.557   0.177   0.622
 1552HOH     H1 4861   3.634   0.128   0.652
 1552HOH     H2 4862   3.544   0.243   0.690
 1553HOH      O 4863   0.925   3.601   2.049
 1553HOH     H1 4864   0.945   3.666   1.982
 1553HOH     H2 4865   0.830   3.607   2.061
 1554HOH      O 4866   1.808   2.246   1.870
 1554HOH     H1 4867   1.735   2.260   1.930
 1554HOH     H2 4868   1.886   2.255   1.925
 1555HOH      O 4869   1.999   3.095   3.022
 1555HOH     H1 4870   2.067   3.051   2.971
 1555HOH     H2 4871   2.036   3.101   3.110
 1556HOH      O 4872   0.776   1.403   1.977
 1556HOH     H1 4873   0.738   1.320   2.006
 1556HOH     H2 4874   0.814   1.383   1.892
 1557HOH      O 4875   2.342   1.457   2.192
 1557HOH     H1 4876   2.318   1.514   2.118
 1557HOH     H2 4877   2.294   1.493   2.267
 1558HOH      O 4878   3.499   0.109   3.595
 1558HOH     H1 4879   3.413   0.074   3.573
 1558HOH     H2 4880   3.518   0.171   3.524
 1559HOH      O 4881   0.916   1.540   0.641
 1559HOH     H1 4882   0.917   1.452   0.603
 1559HOH     H2 4883   0.994   1.542   0.697
 1560HOH      O 4884   1.980   3.139   2.038
 1560HOH     H1 4885   2.033   3.083   1.982
 1560HOH     H2 4886   1.958   3.085   2.114
 1561HOH      O 4887   3.053   0.182   0.794
 1561HOH     H1 4888   3.056   0.273   0.822
 1561HOH     H2 4889   3.129   0.141   0.837
 1562HOH      O 4890  -0.010   2.281   3.527
 1562HOH     H1 4891   0.028   2.198   3.497
 1562HOH     H2 4892   0.063   2.327   3.568
 1563HOH      O 4893   3.690   0.326   1.281
 1563HOH     H1 4894   3.691   0.388   1.354
 1563HOH     H2 4895   3.783   0.317   1.257
 1564HOH      O 4896   1.829   0.560   1.347
 1564HOH     H1 4897   1.867   0.646   1.364
 1564HOH     H2 4898   1.734   0.576   1.345
 1565HOH      O 4899   1.458   2.451   3.618
 1565HOH     H1 4900   1.379   2.503   3.633
 1565HOH     H2 4901   1.495   2.437   3.705
 1566HOH      O 4902   1.507   3.873   2.859
 1566HOH     H1 4903   1.435   3.810   2.863
 1566HOH     H2 4904   1.512   3.899   2.767
 1567HOH      O 4905   3.673   2.373   1.249
 1567HOH     H1 4906   3.749   2.430   1.260
 1567HOH     H2 4907   3.710   2.289   1.221
 1568HOH      O 4908   3.956   1.299   2.284
 1568HOH     H1 4909   3.899   1.250   2.344
 1568HOH     H2 4910   3.987   1.233   2.222
 1569HOH      O 4911   0.509   2.759   0.514
 1569HOH     H1 4912   0.501   2.786   0.605
 1569HOH     H2 4913   0.603   2.744   0.501
 1570HOH      O 4914   3.352   0.560   0.600
 1570HOH     H1 4915   3.305   0.641   0.614
 1570HOH     H2 4916   3.392   0.570   0.514
 1571HOH      O 4917   1.852   1.171   1.250
 1571HOH     H1 4918   1.797   1.112   1.302
 1571HOH     H2 4919   1.826   1.153   1.159
 1572HOH      O 4920   2.053   3.712   3.044
 1572HOH     H1 4921   2.061   3.804   3.067
 1572HOH     H2 4922   2.087   3.706   2.955
 1573HOH      O 4923   0.207   3.957   1.449
 1573HOH     H1 4924   0.284   3.933   1.500
 1573HOH     H2 4925   0.237   4.023   1.387
 1574HOH      O 4926   1.677   1.795   3.866
 1574HOH     H1 4927   1.615   1.866   3.854
 1574HOH     H2 4928   1.762   1.838   3.873
 1575HOH      O 4929   3.013   1.024   1.591
 1575HOH     H1 4930   2.940   1.021   1.652
 1575HOH     H2 4931   3.079   1.078   1.635
 1576HOH      O 4932   2.971   0.082   3.503
 1576HOH     H1 4933   2.900   0.068   3.567
 1576HOH     H2 4934   2.983   0.177   3.502
 1577HOH      O 4935   1.438   2.496   1.032
 1577HOH     H1 4936   1.520   2.469   1.072
 1577HOH     H2 4937   1.406   2.567   1.087
 1578HOH      O 4938   0.984   1.894   3.663
 1578HOH     H1 4939   1.063   1.946   3.644
 1578HOH     H2 4940   0.913   1.941   3.620
 1579HOH      O 4941   1.213   0.547   0.255
 1579HOH     H1 4942   1.191   0.463   0.295
 1579HOH     H2 4943   1.300   0.533   0.216
 1580HOH      O 4944   2.946   3.795   0.103
 1580HOH     H1 4945   2.975   3.705   0.118
 1580HOH     H2 4946   2.903   3.820   0.184
 1581HOH      O 4947   2.148   1.765   3.454
 1581HOH     H1 4948   2.232   1.808   3.439
 1581HOH     H2 4949   2.133   1.773   3.548
 1582HOH      O 4950   2.769   3.705   2.999
 1582HOH     H1 4951   2.851   3.659   3.015
 1582HOH     H2 4952   2.795   3.787   2.957
 1583HOH      O 4953   1.663   1.597   3.652
 1583HOH     H1 4954   1.593   1.605   3.587
 1583HOH     H2 4955   1.638   1.657   3.722
 1584HOH      O 4956   0.262   3.383   1.627
 1584HOH     H1 4957   0.240   3.474   1.603
 1584HOH     H2 4958   0.338   3.392   1.685
 1585HOH      O 4959   2.355   3.733   2.679
 1585HOH     H1 4960   2.411   3.656   2.691
 1585HOH     H2 4961   2.267   3.702   2.697
 1586HOH      O 4962   2.631   0.048   0.852
 1586HOH     H1 4963   2.581   0.090   0.922
 1586HOH     H2 4964   2.572   0.048   0.777
 1587HOH      O 4965   2.624   0.543   3.356
 1587HOH     H1 4966   2.640   0.590   3.274
 1587HOH     H2 4967   2.622   0.612   3.422
 1588HOH      O 4968   0.323   0.274   3.437
 1588HOH     H1 4969   0.297   0.317   3.518
 1588HOH     H2 4970   0.399   0.322   3.406
 1589HOH      O 4971   1.990   1.705   1.061
 1589HOH     H1 4972   1.969   1.798   1.060
 1589HOH     H2 4973   1.912   1.663   1.097
 1590HOH      O 4974   2.617   3.122   0.715
 1590HOH     H1 4975   2.695   3.137   0.662
 1590HOH     H2 4976   2.642   3.148   0.804
 1591HOH      O 4977   1.845   3.561   3.483
 1591HOH     H1 4978   1.787   3.634   3.507
 1591HOH     H2 4979   1.850   3.566   3.387
 1592HOH      O 4980   3.162   1.580   3.480
 1592HOH     H1 4981   3.119   1.508   3.526
 1592HOH     H2 4982   3.234   1.605   3.537
 1593HOH      O 4983   1.346   1.548   3.022
 1593HOH     H1 4984   1.327   1.640   3.005
 1593HOH     H2 4985   1.389   1.518   2.942
 1594HOH      O 4986   2.652   3.176   2.460
 1594HOH     H1 4987   2.606   3.183   2.544
 1594HOH     H2 4988   2.682   3.085   2.456
 1595HOH      O 4989   0.950   2.962   3.981
 1595HOH     H1 4990   0.897   2.885   3.999
 1595HOH     H2 4991   1.037   2.928   3.963
 1596HOH      O 4992   2.174   2.986   1.943
 1596HOH     H1 4993   2.238   3.036   1.892
 1596HOH     H2 4994   2.203   2.895   1.937
 1597HOH      O 4995   0.560   1.331   3.611
 1597HOH     H1 4996   0.534   1.242   3.590
 1597HOH     H2 4997   0.588   1.369   3.527
 1598HOH      O 4998   3.486   1.145   0.200
 1598HOH     H1 4999   3.400   1.178   0.172
 1598HOH     H2 5000   3.545   1.169   0.127
 1599HOH      O 5001   1.151   1.460   2.730
 1599HOH     H1 5002   1.106   1.376   2.734
 1599HOH     H2 5003   1.114   1.503   2.653
 1600HOH      O 5004   2.000   3.977   3.127
 1600HOH     H1 5005   1.916   4.020   3.109
 1600HOH     H2 5006   2.000   3.963   3.221
 1601HOH      O 5007   3.266   3.311   1.264
 1601HOH     H1 5008   3.281   3.376   1.195
 1601HOH     H2 5009   3.332   3.331   1.330
 1602HOH      O 5010   0.293   1.392   1.919
 1602HOH     H1 5011   0.345   1.312   1.909
 1602HOH     H2 5012   0.206   1.368   1.886
 1603HOH      O 5013   0.821   2.541   2.900
 1603HOH     H1 5014   0.763   2.498   2.963
 1603HOH     H2 5015   0.771   2.617   2.870
 1604HOH      O 5016   2.194   2.937   2.220
 1604HOH     H1 5017   2.177   2.964   2.130
 1604HOH     H2 5018   2.108   2.939   2.262
 1605HOH      O 5019   1.144   3.162   0.304
 1605HOH     H1 5020   1.162   3.068   0.311
 1605HOH     H2 5021   1.206   3.194   0.239
 1606HOH      O 5022   3.849   0.719   1.227
 1606HOH     H1 5023   3.895   0.697   1.308
 1606HOH     H2 5024   3.859   0.640   1.173
 1607HOH      O 5025   3.489   2.525   3.301
 1607HOH     H1 5026   3.474   2.575   3.221
 1607HOH     H2 5027   3.518   2.591   3.364
 1608HOH      O 5028   1.548   0.674   1.362
 1608HOH     H1 5029   1.487   0.703   1.430
 1608HOH     H2 5030   1.491   0.645   1.290
 1609HOH      O 5031   1.059   0.730   3.113
 1609HOH     H1 5032   1.060   0.746   3.019
 1609HOH     H2 5033   1.039   0.637   3.121
 1610HOH      O 5034   0.138   2.671   1.559
 1610HOH     H1 5035   0.068   2.733   1.539
 1610HOH     H2 5036   0.159   2.687   1.651
 1611HOH      O 5037   3.740   2.756   0.691
 1611HOH     H1 5038   3.834   2.768   0.676
 1611HOH     H2 5039   3.727   2.662   0.694
 1612HOH      O 5040   2.719   3.110   3.996
 1612HOH     H1 5041   2.684   3.179   3.938
 1612HOH     H2 5042   2.674   3.030   3.968
 1613HOH      O 5043   2.948   0.814   2.875
 1613HOH     H1 5044   2.875   0.753   2.886
 1613HOH     H2 5045   2.931   0.884   2.938
 1614HOH      O 5046   2.498   1.947   2.925
 1614HOH     H1 5047   2.418   1.992   2.899
 1614HOH     H2 5048   2.477   1.908   3.010
 1615HOH      O 5049   2.843   2.512   3.814
 1615HOH     H1 5050   2.797   2.429   3.804
 1615HOH     H2 5051   2.781   2.568   3.862
 1616HOH      O 5052   2.874   2.137   0.068
 1616HOH     H1 5053   2.963   2.142   0.031
 1616HOH     H2 5054   2.886   2.156   0.161
 1617HOH      O 5055   3.628   2.029   2.717
 1617HOH     H1 5056   3.644   2.113   2.674
 1617HOH     H2 5057   3.663   2.040   2.805
 1618HOH      O 5058   0.036   0.775   2.936
 1618HOH     H1 5059   0.099   0.833   2.893
 1618HOH     H2 5060  -0.018   0.741   2.865
 1619HOH      O 5061   1.929   1.979   1.009
 1619HOH     H1 5062   1.859   1.946   0.953
 1619HOH     H2 5063   1.979   2.038   0.952
 1620HOH      O 5064   0.586   0.566   0.645
 1620HOH     H1 5065   0.581   0.495   0.709
 1620HOH     H2 5066   0.671   0.555   0.603
 1621HOH      O 5067   1.267   2.117   0.823
 1621HOH     H1 5068   1.270   2.180   0.895
 1621HOH     H2 5069   1.269   2.031   0.865
 1622HOH      O 5070   0.032   3.753   3.329
 1622HOH     H1 5071  -0.051   3.794   3.308
 1622HOH     H2 5072   0.090   3.776   3.257
 1623HOH      O 5073   3.424   0.378   0.769
 1623HOH     H1 5074   3.377   0.428   0.703
 1623HOH     H2 5075   3.413   0.428   0.850
 1624HOH      O 5076   1.485   0.548   0.449
 1624HOH     H1 5077   1.394   0.566   0.472
 1624HOH     H2 5078   1.487   0.454   0.432
 1625HOH      O 5079   0.862   1.939   3.166
 1625HOH     H1 5080   0.798   1.938   3.237
 1625HOH     H2 5081   0.850   2.024   3.124
 1626HOH      O 5082   2.439   3.352   3.854
 1626HOH     H1 5083   2.395   3.372   3.937
 1626HOH     H2 5084   2.371   3.310   3.801
 1627HOH      O 5085   2.985   3.807   1.958
 1627HOH     H1 5086   2.977   3.723   1.913
 1627HOH     H2 5087   3.058   3.851   1.915
 1628HOH      O 5088   0.624   2.197   0.800
 1628HOH     H1 5089   0.535   2.218   0.774
 1628HOH     H2 5090   0.658   2.279   0.837
 1629HOH      O 5091   1.850   2.789   3.014
 1629HOH     H1 5092   1.767   2.743   3.026
 1629HOH     H2 5093   1.899   2.770   3.094
 1630HOH      O 5094   0.839   2.466   1.245
 1630HOH     H1 5095   0.840   2.452   1.150
 1630HOH     H2 5096   0.927   2.499   1.265
 1631HOH      O 5097   0.412   3.415   0.801
 1631HOH     H1 5098   0.376   3.495   0.839
 1631HOH     H2 5099   0.506   3.432   0.795
 1632HOH      O 5100   3.139   0.575   2.774
 1632HOH     H1 5101   3.075   0.527   2.827
 1632HOH     H2 5102   3.125   0.667   2.797
 1633HOH      O 5103   3.556   2.218   3.224
 1633HOH     H1 5104   3.550   2.244   3.132
 1633HOH     H2 5105   3.536   2.124   3.224
 1634HOH      O 5106   0.055   2.293   1.234
 1634HOH     H1 5107   0.027   2.362   1.174
 1634HOH     H2 5108   0.105   2.338   1.302
 1635HOH      O 5109   0.826   0.044   0.276
 1635HOH     H1 5110   0.742   0.035   0.321
 1635HOH     H2 5111   0.825   0.132   0.240
 1636HOH      O 5112   2.062   2.830   0.994
 1636HOH     H1 5113   1.995   2.892   0.966
 1636HOH     H2 5114   2.013   2.761   1.039
 1637HOH      O 5115   0.929   1.313   2.477
 1637HOH     H1 5116   0.909   1.398   2.439
 1637HOH     H2 5117   0.848   1.262   2.465
 1638HOH      O 5118   3.071   2.793   0.542
 1638HOH     H1 5119   3.030   2.719   0.586
 1638HOH     H2 5120   3.086   2.857   0.613
 1639HOH      O 5121   1.063   0.179   3.195
 1639HOH     H1 5122   1.119   0.160   3.270
 1639HOH     H2 5123   1.119   0.166   3.119
 1640HOH      O 5124   0.053   2.067   2.894
 1640HOH     H1 5125  -0.002   2.064   2.973
 1640HOH     H2 5126   0.036   1.985   2.849
 1641HOH      O 5127   3.658   2.868   0.273
 1641HOH     H1 5128   3.640   2.904   0.359
 1641HOH     H2 5129   3.607   2.787   0.269
 1642HOH      O 5130   3.866   2.106   3.922
 1642HOH     H1 5131   3.896   2.197   3.929
 1642HOH     H2 5132   3.790   2.111   3.865
 1643HOH      O 5133   0.369   2.658   1.159
 1643HOH     H1 5134   0.457   2.630   1.133
 1643HOH     H2 5135   0.365   2.750   1.134
 1644HOH      O 5136   1.670   0.965   1.343
 1644HOH     H1 5137   1.606   0.907   1.384
 1644HOH     H2 5138   1.725   0.907   1.290
 1645HOH      O 5139   2.476   2.645   0.982
 1645HOH     H1 5140   2.469   2.623   1.075
 1645HOH     H2 5141   2.387   2.664   0.955
 1646HOH      O 5142   2.160   2.199   0.024
 1646HOH     H1 5143   2.177   2.237   0.110
 1646HOH     H2 5144   2.095   2.130   0.040
 1647HOH      O 5145   2.631   3.419   2.318
 1647HOH     H1 5146   2.640   3.331   2.353
 1647HOH     H2 5147   2.622   3.407   2.223
 1648HOH      O 5148   1.909   1.885   1.701
 1648HOH     H1 5149   1.954   1.800   1.699
 1648HOH     H2 5150   1.882   1.896   1.792
 1649HOH      O 5151   3.504   3.885   3.369
 1649HOH     H1 5152   3.551   3.811   3.407
 1649HOH     H2 5153   3.416   3.852   3.353
 1650HOH      O 5154   3.366   1.816   1.527
 1650HOH     H1 5155   3.282   1.780   1.555
 1650HOH     H2 5156   3.358   1.910   1.545
 1651HOH      O 5157   3.579   3.485   3.855
 1651HOH     H1 5158   3.606   3.459   3.767
 1651HOH     H2 5159   3.490   3.450   3.865
 1652HOH      O 5160   0.891   1.395   1.724
 1652HOH     H1 5161   0.911   1.335   1.652
 1652HOH     H2 5162   0.909   1.482   1.688
 1653HOH      O 5163   1.910   2.924   0.245
 1653HOH     H1 5164   1.881   2.886   0.162
 1653HOH     H2 5165   1.979   2.986   0.219
 1654HOH      O 5166   0.702   1.207   2.146
 1654HOH     H1 5167   0.607   1.206   2.135
 1654HOH     H2 5168   0.715   1.214   2.241
 1655HOH      O 5169   1.614   1.432   3.998
 1655HOH     H1 5170   1.640   1.385   3.919
 1655HOH     H2 5171   1.693   1.476   4.027
 1656HOH      O 5172   1.927   1.551   2.831
 1656HOH     H1 5173   1.971   1.562   2.747
 1656HOH     H2 5174   1.934   1.636   2.873
 1657HOH      O 5175   0.105   2.460   2.118
 1657HOH     H1 5176   0.069   2.549   2.125
 1657HOH     H2 5177   0.161   2.451   2.195
 1658HOH      O 5178   1.694   0.083   3.254
 1658HOH     H1 5179   1.771   0.112   3.205
 1658HOH     H2 5180   1.636   0.045   3.187
 1659HOH      O 5181   0.474   1.444   3.134
 1659HOH     H1 5182   0.514   1.451   3.047
 1659HOH     H2 5183   0.497   1.356   3.164
 1660HOH      O 5184   1.090   1.831   1.724
 1660HOH     H1 5185   1.039   1.817   1.644
 1660HOH     H2 5186   1.181   1.841   1.693
 1661HOH      O 5187   2.245   1.377   1.879
 1661HOH     H1 5188   2.203   1.458   1.907
 1661HOH     H2 5189   2.315   1.404   1.821
 1662HOH      O 5190   2.079   2.949   3.455
 1662HOH     H1 5191   2.044   3.035   3.429
 1662HOH     H2 5192   2.126   2.919   3.377
 1663HOH      O 5193   3.248   2.578   0.762
 1663HOH     H1 5194   3.269   2.624   0.844
 1663HOH     H2 5195   3.301   2.622   0.696
 1664HOH      O 5196   3.068   3.357   0.497
 1664HOH     H1 5197   3.050   3.334   0.406
 1664HOH     H2 5198   3.156   3.322   0.513
 1665HOH      O 5199   3.638   1.492   0.968
 1665HOH     H1 5200   3.621   1.484   0.874
 1665HOH     H2 5201   3.690   1.414   0.989
 1666HOH      O 5202   4.003   1.580   3.714
 1666HOH     H1 5203   3.974   1.506   3.767
 1666HOH     H2 5204   3.945   1.581   3.638
 1667HOH      O 5205   1.095   0.987   3.534
 1667HOH     H1 5206   1.096   1.077   3.501
 1667HOH     H2 5207   1.123   0.934   3.459
 1668HOH      O 5208   2.550   2.799   1.785
 1668HOH     H1 5209   2.597   2.716   1.793
 1668HOH     H2 5210   2.488   2.785   1.713
 1669HOH      O 5211   0.852   0.896   0.964
 1669HOH     H1 5212   0.807   0.837   0.903
 1669HOH     H2 5213   0.939   0.857   0.976
 1670HOH      O 5214   0.637   0.128   2.568
 1670HOH     H1 5215   0.728   0.124   2.598
 1670HOH     H2 5216   0.643   0.138   2.473
 1671HOH      O 5217   3.949   3.642   3.772
 1671HOH     H1 5218   3.943   3.630   3.866
 1671HOH     H2 5219   3.883   3.708   3.751
 1672HOH      O 5220   3.432   1.008   0.857
 1672HOH     H1 5221   3.411   1.084   0.804
 1672HOH     H2 5222   3.354   0.952   0.851
 1673HOH      O 5223   3.221   0.882   3.485
 1673HOH     H1 5224   3.235   0.977   3.482
 1673HOH     H2 5225   3.130   0.873   3.514
 1674HOH      O 5226   1.334   0.522   2.164
 1674HOH     H1 5227   1.325   0.616   2.174
 1674HOH     H2 5228   1.347   0.509   2.070
 1675HOH      O 5229   1.646   1.521   3.250
 1675HOH     H1 5230   1.580   1.531   3.319
 1675HOH     H2 5231   1.664   1.611   3.221
 1676HOH      O 5232   3.373   0.208   1.999
 1676HOH     H1 5233   3.440   0.273   2.023
 1676HOH     H2 5234   3.361   0.155   2.077
 1677HOH      O 5235   2.964   0.387   2.876
 1677HOH     H1 5236   3.003   0.344   2.952
 1677HOH     H2 5237   2.872   0.359   2.877
 1678HOH      O 5238   2.655   2.875   2.748
 1678HOH     H1 5239   2.677   2.882   2.841
 1678HOH     H2 5240   2.565   2.842   2.746
 1679HOH      O 5241   2.101   1.269   2.093
 1679HOH     H1 5242   2.171   1.302   2.036
 1679HOH     H2 5243   2.143   1.202   2.147
 1680HOH      O 5244   0.170   0.124   3.259
 1680HOH     H1 5245   0.096   0.083   3.304
 1680HOH     H2 5246   0.221   0.164   3.329
 1681HOH      O 5247   2.751   3.403   3.577
 1681HOH     H1 5248   2.832   3.408   3.527
 1681HOH     H2 5249   2.715   3.492   3.572
 1682HOH      O 5250   2.480   0.422   1.035
 1682HOH     H1 5251   2.488   0.474   0.955
 1682HOH     H2 5252   2.521   0.476   1.102
 1683HOH      O 5253   0.979   1.001   2.386
 1683HOH     H1 5254   0.895   1.041   2.368
 1683HOH     H2 5255   1.044   1.067   2.359
 1684HOH      O 5256   3.172   1.667   2.037
 1684HOH     H1 5257   3.097   1.608   2.046
 1684HOH     H2 5258   3.134   1.750   2.011
 1685HOH      O 5259   3.569   1.200   0.458
 1685HOH     H1 5260   3.661   1.210   0.435
 1685HOH     H2 5261   3.523   1.201   0.374
 1686HOH      O 5262   2.295   0.838   2.306
 1686HOH     H1 5263   2.249   0.755   2.294
 1686HOH     H2 5264   2.379   0.825   2.263
 1687HOH      O 5265   0.906   0.148   3.728
 1687HOH     H1 5266   0.885   0.057   3.748
 1687HOH     H2 5267   0.964   0.176   3.799
 1688HOH      O 5268   0.670   3.466   1.208
 1688HOH     H1 5269   0.719   3.425   1.279
 1688HOH     H2 5270   0.727   3.457   1.132
 1689HOH      O 5271   2.680   1.723   3.117
 1689HOH     H1 5272   2.629   1.804   3.114
 1689HOH     H2 5273   2.633   1.668   3.179
 1690HOH      O 5274   0.767   1.463   3.734
 1690HOH     H1 5275   0.844   1.406   3.725
 1690HOH     H2 5276   0.692   1.405   3.718
 1691HOH      O 5277   0.998   3.971   0.626
 1691HOH     H1 5278   0.976   4.061   0.602
 1691HOH     H2 5279   1.093   3.968   0.621
 1692HOH      O 5280   3.067   2.325   0.437
 1692HOH     H1 5281   3.058   2.383   0.513
 1692HOH     H2 5282   3.021   2.245   0.463
 1693HOH      O 5283   3.845   3.078   1.306
 1693HOH     H1 5284   3.857   3.114   1.218
 1693HOH     H2 5285   3.815   2.988   1.291
 1694HOH      O 5286   0.793   1.016   3.532
 1694HOH     H1 5287   0.888   1.016   3.542
 1694HOH     H2 5288   0.761   0.973   3.612
 1695HOH      O 5289   0.793   1.103   1.755
 1695HOH     H1 5290   0.724   1.167   1.737
 1695HOH     H2 5291   0.835   1.089   1.670
 1696HOH      O 5292   2.999   2.233   0.766
 1696HOH     H1 5293   2.994   2.156   0.708
 1696HOH     H2 5294   2.911   2.271   0.763
 1697HOH      O 5295   2.137   2.203   3.669
 1697HOH     H1 5296   2.099   2.291   3.677
 1697HOH     H2 5297   2.190   2.192   3.747
 1698HOH      O 5298   2.750   2.941   3.721
 1698HOH     H1 5299   2.689   2.927   3.649
 1698HOH     H2 5300   2.735   3.032   3.747
 1699HOH      O 5301   1.205   2.117   1.579
 1699HOH     H1 5302   1.264   2.043   1.564
 1699HOH     H2 5303   1.118   2.079   1.579
 1700HOH      O 5304   1.519   3.034   1.992
 1700HOH     H1 5305   1.601   3.019   1.945
 1700HOH     H2 5306   1.455   3.053   1.923
 1701HOH      O 5307   1.530   3.321   1.816
 1701HOH     H1 5308   1.621   3.292   1.824
 1701HOH     H2 5309   1.531   3.383   1.742
 1702HOH      O 5310   0.687   2.769   1.612
 1702HOH     H1 5311   0.703   2.676   1.628
 1702HOH     H2 5312   0.683   2.808   1.699
 1703HOH      O 5313   2.884   3.532   1.169
 1703HOH     H1 5314   2.826   3.519   1.245
 1703HOH     H2 5315   2.840   3.486   1.098
 1704HOH      O 5316   2.481   0.924   3.732
 1704HOH     H1 5317   2.473   0.831   3.756
 1704HOH     H2 5318   2.425   0.932   3.654
 1705HOH      O 5319   2.460   3.894   1.079
 1705HOH     H1 5320   2.539   3.856   1.117
 1705HOH     H2 5321   2.490   3.977   1.040
 1706HOH      O 5322   1.963   0.608   2.747
 1706HOH     H1 5323   1.960   0.524   2.701
 1706HOH     H2 5324   1.903   0.597   2.821
 1707HOH      O 5325   2.429   0.722   0.272
 1707HOH     H1 5326   2.474   0.717   0.188
 1707HOH     H2 5327   2.460   0.646   0.322
 1708HOH      O 5328   3.956   2.645   0.942
 1708HOH     H1 5329   3.874   2.617   0.903
 1708HOH     H2 5330   4.007   2.564   0.953
 1709HOH      O 5331   1.339   3.080   1.376
 1709HOH     H1 5332   1.381   3.023   1.441
 1709HOH     H2 5333   1.267   3.027   1.341
 1710HOH      O 5334   2.484   3.627   2.075
 1710HOH     H1 5335   2.392   3.617   2.052
 1710HOH     H2 5336   2.518   3.537   2.079
 1711HOH      O 5337   2.375   0.605   1.317
 1711HOH     H1 5338   2.299   0.549   1.332
 1711HOH     H2 5339   2.394   0.642   1.403
 1712HOH      O 5340   1.943   1.575   3.424
 1712HOH     H1 5341   2.009   1.624   3.473
 1712HOH     H2 5342   1.968   1.483   3.435
 1713HOH      O 5343   3.243   1.288   3.686
 1713HOH     H1 5344   3.252   1.341   3.765
 1713HOH     H2 5345   3.152   1.258   3.687
 1714HOH      O 5346   0.691   3.136   3.618
 1714HOH     H1 5347   0.616   3.119   3.562
 1714HOH     H2 5348   0.685   3.071   3.688
 1715HOH      O 5349   0.346   3.696   0.125
 1715HOH     H1 5350   0.254   3.693   0.098
 1715HOH     H2 5351   0.391   3.638   0.065
 1716HOH      O 5352   0.267   3.901   2.981
 1716HOH     H1 5353   0.253   3.995   2.992
 1716HOH     H2 5354   0.186   3.868   2.943
 1717HOH      O 5355   2.395   3.578   1.644
 1717HOH     H1 5356   2.387   3.622   1.560
 1717HOH     H2 5357   2.440   3.642   1.700
 1718HOH      O 5358   0.708   3.432   3.492
 1718HOH     H1 5359   0.764   3.450   3.568
 1718HOH     H2 5360   0.656   3.357   3.519
 1719HOH      O 5361   3.994   0.650   1.477
 1719HOH     H1 5362   4.026   0.569   1.515
 1719HOH     H2 5363   4.072   0.693   1.443
 1720HOH      O 5364   1.192   2.848   0.345
 1720HOH     H1 5365   1.106   2.826   0.308
 1720HOH     H2 5366   1.192   2.805   0.430
 1721HOH      O 5367   2.704   1.669   0.281
 1721HOH     H1 5368   2.789   1.713   0.288
 1721HOH     H2 5369   2.712   1.593   0.339
 1722HOH      O 5370   1.866   1.518   1.201
 1722HOH     H1 5371   1.797   1.537   1.264
 1722HOH     H2 5372   1.830   1.449   1.145
 1723HOH      O 5373   1.842   0.248   3.124
 1723HOH     H1 5374   1.924   0.283   3.158
 1723HOH     H2 5375   1.779   0.319   3.137
 1724HOH      O 5376   1.690   2.041   1.361
 1724HOH     H1 5377   1.647   1.994   1.433
 1724HOH     H2 5378   1.778   2.060   1.394
 1725HOH      O 5379   0.252   2.413   3.560
 1725HOH     H1 5380   0.342   2.395   3.533
 1725HOH     H2 5381   0.240   2.507   3.543
 1726HOH      O 5382   2.715   3.143   0.216
 1726HOH     H1 5383   2.715   3.133   0.121
 1726HOH     H2 5384   2.682   3.232   0.230
 1727HOH      O 5385   1.686   0.452   0.728
 1727HOH     H1 5386   1.608   0.423   0.682
 1727HOH     H2 5387   1.695   0.390   0.800
 1728HOH      O 5388   1.018   0.215   0.617
 1728HOH     H1 5389   1.045   0.306   0.623
 1728HOH     H2 5390   0.923   0.217   0.632
 1729HOH      O 5391   3.984   0.568   3.743
 1729HOH     H1 5392   4.053   0.627   3.774
 1729HOH     H2 5393   4.016   0.537   3.658
 1730HOH      O 5394   0.292   2.194   2.142
 1730HOH     H1 5395   0.337   2.277   2.158
 1730HOH     H2 5396   0.277   2.157   2.229
 1731HOH      O 5397   2.873   2.904   2.015
 1731HOH     H1 5398   2.792   2.854   2.025
 1731HOH     H2 5399   2.845   2.996   2.016
 1732HOH      O 5400   1.231   0.739   1.221
 1732HOH     H1 5401   1.280   0.665   1.183
 1732HOH     H2 5402   1.202   0.707   1.306
 1733HOH      O 5403   3.061   2.557   1.495
 1733HOH     H1 5404   3.096   2.535   1.582
 1733HOH     H2 5405   3.095   2.489   1.437
 1734HOH      O 5406   3.843   0.575   3.232
 1734HOH     H1 5407   3.757   0.616   3.239
 1734HOH     H2 5408   3.903   0.640   3.269
 1735HOH      O 5409   3.456   1.897   2.190
 1735HOH     H1 5410   3.510   1.967   2.225
 1735HOH     H2 5411   3.377   1.898   2.244
 1736HOH      O 5412   0.929   3.704   2.811
 1736HOH     H1 5413   0.971   3.785   2.781
 1736HOH     H2 5414   0.980   3.634   2.772
 1737HOH      O 5415   1.090   1.575   2.455
 1737HOH     H1 5416   1.158   1.509   2.465
 1737HOH     H2 5417   1.077   1.583   2.361
 1738HOH      O 5418   0.565   1.307   0.994
 1738HOH     H1 5419   0.644   1.360   0.983
 1738HOH     H2 5420   0.493   1.369   0.987
 1739HOH      O 5421   0.056   2.191   0.619
 1739HOH     H1 5422   0.016   2.159   0.699
 1739HOH     H2 5423   0.094   2.114   0.577
 1740HOH      O 5424   0.799   1.713   3.855
 1740HOH     H1 5425   0.793   1.633   3.803
 1740HOH     H2 5426   0.744   1.776   3.808
 1741HOH      O 5427   0.609   0.931   3.769
 1741HOH     H1 5428   0.568   0.951   3.853
 1741HOH     H2 5429   0.641   0.841   3.779
 1742HOH      O 5430   1.741   0.053   3.873
 1742HOH     H1 5431   1.722  -0.040   3.872
 1742HOH     H2 5432   1.686   0.088   3.943
 1743HOH      O 5433   0.421   0.596   1.277
 1743HOH     H1 5434   0.367   0.523   1.246
 1743HOH     H2 5435   0.359   0.666   1.294
 1744HOH      O 5436   0.483   2.262   0.005
 1744HOH     H1 5437   0.433   2.276   0.085
 1744HOH     H2 5438   0.418   2.270  -0.065
 1745HOH      O 5439   0.115   2.606   1.271
 1745HOH     H1 5440   0.170   2.611   1.193
 1745HOH     H2 5441   0.162   2.657   1.337
 1746HOH      O 5442   3.816   1.172   0.365
 1746HOH     H1 5443   3.819   1.237   0.295
 1746HOH     H2 5444   3.906   1.170   0.399
 1747HOH      O 5445   2.114   3.032   3.725
 1747HOH     H1 5446   2.101   2.988   3.641
 1747HOH     H2 5447   2.176   2.976   3.771
 1748HOH      O 5448   1.668   2.744   1.698
 1748HOH     H1 5449   1.595   2.683   1.710
 1748HOH     H2 5450   1.632   2.815   1.645
 1749HOH      O 5451   1.679   1.226   1.970
 1749HOH     H1 5452   1.693   1.278   1.890
 1749HOH     H2 5453   1.758   1.172   1.978
 1750HOH      O 5454   3.130   0.781   2.136
 1750HOH     H1 5455   3.129   0.851   2.072
 1750HOH     H2 5456   3.039   0.751   2.140
 1751HOH      O 5457   3.248   3.872   2.149
 1751HOH     H1 5458   3.173   3.817   2.173
 1751HOH     H2 5459   3.218   3.962   2.165
 1752HOH      O 5460   1.673   3.543   0.217
 1752HOH     H1 5461   1.726   3.623   0.213
 1752HOH     H2 5462   1.706   3.497   0.294
 1753HOH      O 5463   3.560   1.081   3.462
 1753HOH     H1 5464   3.512   1.088   3.379
 1753HOH     H2 5465   3.650   1.061   3.436
 1754HOH      O 5466   2.818   0.217   0.681
 1754HOH     H1 5467   2.773   0.146   0.728
 1754HOH     H2 5468   2.906   0.218   0.719
 1755HOH      O 5469  -0.017   3.780   2.686
 1755HOH     H1 5470   0.061   3.726   2.693
 1755HOH     H2 5471   0.012   3.868   2.713
 1756HOH      O 5472   0.615   1.618   2.029
 1756HOH     H1 5473   0.673   1.694   2.021
 1756HOH     H2 5474   0.669   1.544   1.999
 1757HOH      O 5475   3.428   1.741   1.265
 1757HOH     H1 5476   3.419   1.733   1.360
 1757HOH     H2 5477   3.385   1.663   1.231
 1758HOH      O 5478   2.586   0.298   1.347
 1758HOH     H1 5479   2.555   0.387   1.330
 1758HOH     H2 5480   2.651   0.281   1.279
 1759HOH      O 5481   3.145   3.279   3.086
 1759HOH     H1 5482   3.080   3.256   3.019
 1759HOH     H2 5483   3.197   3.349   3.047
 1760HOH      O 5484   3.606   3.100   3.510
 1760HOH     H1 5485   3.607   3.151   3.429
 1760HOH     H2 5486   3.513   3.078   3.522
 1761HOH      O 5487   0.321   2.937   1.204
 1761HOH     H1 5488   0.341   3.026   1.232
 1761HOH     H2 5489   0.228   2.926   1.225
 1762HOH      O 5490   1.904   2.979   1.244
 1762HOH     H1 5491   1.978   3.023   1.202
 1762HOH     H2 5492   1.852   2.945   1.171
 1763HOH      O 5493   1.118   1.889   3.284
 1763HOH     H1 5494   1.025   1.894   3.262
 1763HOH     H2 5495   1.157   1.836   3.214
 1764HOH      O 5496   1.746   3.861   3.005
 1764HOH     H1 5497   1.817   3.850   2.941
 1764HOH     H2 5498   1.667   3.869   2.951
 1765HOH      O 5499   3.473   2.447   2.737
 1765HOH     H1 5500   3.560   2.486   2.726
 1765HOH     H2 5501   3.473   2.370   2.680
 1766HOH      O 5502   1.952   0.119   0.450
 1766HOH     H1 5503   2.010   0.063   0.501
 1766HOH     H2 5504   2.011   0.176   0.402
 1767HOH      O 5505   1.837   3.721   0.050
 1767HOH     H1 5506   1.824   3.763   0.135
 1767HOH     H2 5507   1.928   3.738   0.028
 1768HOH      O 5508   3.581   0.865   0.233
 1768HOH     H1 5509   3.640   0.888   0.305
 1768HOH     H2 5510   3.544   0.949   0.204
 1769HOH      O 5511   3.898   2.401   0.572
 1769HOH     H1 5512   3.978   2.354   0.594
 1769HOH     H2 5513   3.882   2.381   0.480
 1770HOH      O 5514   3.322   3.645   3.341
 1770HOH     H1 5515   3.238   3.617   3.380
 1770HOH     H2 5516   3.317   3.615   3.250
 1771HOH      O 5517   0.350   3.717   1.389
 1771HOH     H1 5518   0.266   3.761   1.383
 1771HOH     H2 5519   0.415   3.786   1.375
 1772HOH      O 5520   1.402   2.519   0.225
 1772HOH     H1 5521   1.377   2.537   0.315
 1772HOH     H2 5522   1.470   2.584   0.206
 1773HOH      O 5523   3.396   1.698   3.349
 1773HOH     H1 5524   3.357   1.636   3.288
 1773HOH     H2 5525   3.326   1.719   3.411
 1774HOH      O 5526   0.606   1.921   0.615
 1774HOH     H1 5527   0.617   1.971   0.696
 1774HOH     H2 5528   0.597   1.830   0.644
 1775HOH      O 5529   3.605   0.284   3.409
 1775HOH     H1 5530   3.557   0.346   3.354
 1775HOH     H2 5531   3.692   0.322   3.418
 1776HOH      O 5532   0.740   0.418   0.429
 1776HOH     H1 5533   0.724   0.347   0.491
 1776HOH     H2 5534   0.764   0.374   0.347
 1777HOH      O 5535   0.252   3.724   2.646
 1777HOH     H1 5536   0.312   3.772   2.702
 1777HOH     H2 5537   0.233   3.784   2.574
 1778HOH      O 5538   0.370   1.400   1.629
 1778HOH     H1 5539   0.353   1.429   1.540
 1778HOH     H2 5540   0.322   1.462   1.684
 1779HOH      O 5541   0.571   1.433   2.340
 1779HOH     H1 5542   0.518   1.420   2.261
 1779HOH     H2 5543   0.567   1.348   2.385
 1780HOH      O 5544   1.208   2.840   2.911
 1780HOH     H1 5545   1.126   2.878   2.945
 1780HOH     H2 5546   1.183   2.799   2.828
 1781HOH      O 5547   3.438   3.668   2.438
 1781HOH     H1 5548   3.446   3.761   2.416
 1781HOH     H2 5549   3.446   3.624   2.353
 1782HOH      O 5550   0.810   1.325   0.518
 1782HOH     H1 5551   0.720   1.294   0.512
 1782HOH     H2 5552   0.838   1.336   0.427
 1783HOH      O 5553   2.341   3.513   2.883
 1783HOH     H1 5554   2.414   3.452   2.892
 1783HOH     H2 5555   2.373   3.594   2.922
 1784HOH      O 5556   1.242   3.776   1.578
 1784HOH     H1 5557   1.165   3.808   1.531
 1784HOH     H2 5558   1.316   3.816   1.532
 1785HOH      O 5559   0.286   1.285   2.314
 1785HOH     H1 5560   0.350   1.258   2.380
 1785HOH     H2 5561   0.319   1.247   2.232
 1786HOH      O 5562   2.412   1.960   1.300
 1786HOH     H1 5563   2.395   1.885   1.244
 1786HOH     H2 5564   2.420   2.034   1.239
 1787HOH      O 5565   2.041   0.260   1.730
 1787HOH     H1 5566   2.065   0.348   1.701
 1787HOH     H2 5567   1.998   0.272   1.814
 1788HOH      O 5568   3.466   1.855   0.237
 1788HOH     H1 5569   3.390   1.886   0.285
 1788HOH     H2 5570   3.534   1.920   0.256
 1789HOH      O 5571   1.465   0.610   3.457
 1789HOH     H1 5572   1.516   0.529   3.452
 1789HOH     H2 5573   1.506   0.659   3.527
 1790HOH      O 5574   1.355   1.368   3.707
 1790HOH     H1 5575   1.387   1.427   3.775
 1790HOH     H2 5576   1.370   1.280   3.742
 1791HOH      O 5577   0.000   2.951   3.216
 1791HOH     H1 5578   0.074   2.958   3.156
 1791HOH     H2 5579   0.038   2.970   3.302
 1792HOH      O 5580   2.341   2.308   2.844
 1792HOH     H1 5581   2.285   2.362   2.789
 1792HOH     H2 5582   2.307   2.219   2.834
 1793HOH      O 5583   3.427   2.444   2.284
 1793HOH     H1 5584   3.520   2.447   2.260
 1793HOH     H2 5585   3.423   2.490   2.368
 1794HOH      O 5586   1.075   2.565   1.349
 1794HOH     H1 5587   1.063   2.517   1.431
 1794HOH     H2 5588   1.074   2.657   1.375
 1795HOH      O 5589   3.848   0.952   2.661
 1795HOH     H1 5590   3.810   0.972   2.747
 1795HOH     H2 5591   3.869   0.859   2.666
 1796HOH      O 5592   3.948   4.004   1.498
 1796HOH     H1 5593   4.033   3.988   1.540
 1796HOH     H2 5594   3.909   4.075   1.551
 1797HOH      O 5595   0.787   2.047   3.582
 1797HOH     H1 5596   0.694   2.071   3.589
 1797HOH     H2 5597   0.817   2.090   3.502
 1798HOH      O 5598   2.571   1.125   0.411
 1798HOH     H1 5599   2.512   1.144   0.338
 1798HOH     H2 5600   2.520   1.144   0.489
 1799HOH      O 5601   3.740   3.971   0.915
 1799HOH     H1 5602   3.763   4.062   0.933
 1799HOH     H2 5603   3.653   3.976   0.875
 1800HOH      O 5604   2.731   1.478   1.491
 1800HOH     H1 5605   2.806   1.498   1.547
 1800HOH     H2 5606   2.740   1.384   1.472
 1801HOH      O 5607   2.797   0.275   1.179
 1801HOH     H1 5608   2.736   0.284   1.106
 1801HOH     H2 5609   2.847   0.356   1.179
 1802HOH      O 5610   2.636   0.282   3.346
 1802HOH     H1 5611   2.623   0.268   3.440
 1802HOH     H2 5612   2.627   0.377   3.335
 1803HOH      O 5613   4.041   3.910   0.813
 1803HOH     H1 5614   4.063   4.003   0.818
 1803HOH     H2 5615   3.998   3.890   0.897
 1804HOH      O 5616   2.545   0.816   2.120
 1804HOH     H1 5617   2.508   0.898   2.086
 1804HOH     H2 5618   2.590   0.841   2.200
 1805HOH      O 5619   3.522   0.621   0.106
 1805HOH     H1 5620   3.532   0.715   0.119
 1805HOH     H2 5621   3.590   0.599   0.042
 1806HOH      O 5622   1.781   3.029   3.750
 1806HOH     H1 5623   1.862   3.052   3.704
 1806HOH     H2 5624   1.719   3.008   3.681
 1807HOH      O 5625   1.286   2.176   1.299
 1807HOH     H1 5626   1.303   2.082   1.309
 1807HOH     H2 5627   1.323   2.216   1.378
 1808HOH      O 5628   2.225   3.960   0.935
 1808HOH     H1 5629   2.141   3.927   0.903
 1808HOH     H2 5630   2.288   3.891   0.913
 1809HOH      O 5631   2.695   1.189   0.967
 1809HOH     H1 5632   2.710   1.194   0.873
 1809HOH     H2 5633   2.755   1.253   1.005
 1810HOH      O 5634   3.187   0.345   0.143
 1810HOH     H1 5635   3.232   0.270   0.103
 1810HOH     H2 5636   3.244   0.420   0.125
 1811HOH      O 5637   1.428   0.386   0.162
 1811HOH     H1 5638   1.501   0.350   0.213
 1811HOH     H2 5639   1.365   0.314   0.156
 1812HOH      O 5640   3.933   3.780   0.110
 1812HOH     H1 5641   3.854   3.777   0.056
 1812HOH     H2 5642   3.901   3.795   0.199
 1813HOH      O 5643   1.490   1.976   0.695
 1813HOH     H1 5644   1.440   2.039   0.747
 1813HOH     H2 5645   1.456   1.891   0.721
 1814HOH      O 5646   3.798   2.812   1.231
 1814HOH     H1 5647   3.712   2.803   1.189
 1814HOH     H2 5648   3.827   2.722   1.244
 1815HOH      O 5649   2.643   1.302   2.446
 1815HOH     H1 5650   2.574   1.260   2.497
 1815HOH     H2 5651   2.683   1.365   2.507
 1816HOH      O 5652   2.313   0.303   0.540
 1816HOH     H1 5653   2.396   0.340   0.570
 1816HOH     H2 5654   2.250   0.327   0.609
 1817HOH      O 5655   0.139   3.215   3.192
 1817HOH     H1 5656   0.043   3.214   3.194
 1817HOH     H2 5657   0.163   3.268   3.268
 1818HOH      O 5658   0.500   2.378   2.171
 1818HOH     H1 5659   0.566   2.393   2.238
 1818HOH     H2 5660   0.533   2.425   2.094
 1819HOH      O 5661   2.632   2.038   2.682
 1819HOH     H1 5662   2.610   2.005   2.769
 1819HOH     H2 5663   2.726   2.055   2.687
 1820HOH      O 5664   0.099   3.030   3.772
 1820HOH     H1 5665   0.038   3.091   3.731
 1820HOH     H2 5666   0.162   3.085   3.818
 1821HOH      O 5667   2.108   0.232   3.646
 1821HOH     H1 5668   2.025   0.189   3.623
 1821HOH     H2 5669   2.159   0.164   3.688
 1822HOH      O 5670   2.848   0.382   3.850
 1822HOH     H1 5671   2.878   0.294   3.826
 1822HOH     H2 5672   2.910   0.411   3.917
 1823HOH      O 5673   3.054   1.405   2.477
 1823HOH     H1 5674   3.142   1.380   2.449
 1823HOH     H2 5675   2.996   1.345   2.429
 1824HOH      O 5676   1.288   2.643   3.076
 1824HOH     H1 5677   1.222   2.574   3.069
 1824HOH     H2 5678   1.263   2.708   3.011
 1825HOH      O 5679   2.139   3.586   0.785
 1825HOH     H1 5680   2.166   3.597   0.876
 1825HOH     H2 5681   2.217   3.551   0.741
 1826HOH      O 5682   0.527   1.081   1.455
 1826HOH     H1 5683   0.589   1.011   1.431
 1826HOH     H2 5684   0.443   1.037   1.461
 1827HOH      O 5685   0.735   2.033   0.999
 1827HOH     H1 5686   0.792   2.086   1.055
 1827HOH     H2 5687   0.701   2.096   0.934
 1828HOH      O 5688   0.835   3.393   1.434
 1828HOH     H1 5689   0.884   3.476   1.432
 1828HOH     H2 5690   0.759   3.412   1.490
 1829HOH      O 5691   1.037   0.270   3.925
 1829HOH     H1 5692   1.043   0.339   3.991
 1829HOH     H2 5693   1.122   0.225   3.931
 1830HOH      O 5694   0.503   1.582   3.920
 1830HOH     H1 5695   0.555   1.555   3.996
 1830HOH     H2 5696   0.483   1.674   3.937
 1831HOH      O 5697   1.963   1.913   3.310
 1831HOH     H1 5698   2.014   1.860   3.371
 1831HOH     H2 5699   1.899   1.959   3.364
 1832HOH      O 5700   3.351   2.029   4.024
 1832HOH     H1 5701   3.435   2.020   4.069
 1832HOH     H2 5702   3.374   2.043   3.932
 1833HOH      O 5703   2.749   1.002   3.018
 1833HOH     H1 5704   2.725   0.989   3.110
 1833HOH     H2 5705   2.810   1.076   3.019
 1834HOH      O 5706   1.696   2.969   2.393
 1834HOH     H1 5707   1.643   2.997   2.468
 1834HOH     H2 5708   1.671   3.028   2.323
 1835HOH      O 5709   1.219   2.527   0.021
 1835HOH     H1 5710   1.151   2.469   0.057
 1835HOH     H2 5711   1.289   2.524   0.086
 1836HOH      O 5712   2.421   1.966   0.735
 1836HOH     H1 5713   2.506   1.963   0.691
 1836HOH     H2 5714   2.409   1.877   0.769
 1837HOH      O 5715   3.381   3.030   1.024
 1837HOH     H1 5716   3.378   3.018   1.119
 1837HOH     H2 5717   3.462   3.079   1.008
 1838HOH      O 5718   0.732   1.885   1.715
 1838HOH     H1 5719   0.725   1.797   1.679
 1838HOH     H2 5720   0.702   1.876   1.806
 1839HOH      O 5721   1.978   3.768   0.494
 1839HOH     H1 5722   1.946   3.680   0.516
 1839HOH     H2 5723   1.985   3.812   0.579
 1840HOH      O 5724   2.543   4.020   3.763
 1840HOH     H1 5725   2.486   4.058   3.830
 1840HOH     H2 5726   2.567   3.934   3.798
 1841HOH      O 5727   2.527   3.376   0.166
 1841HOH     H1 5728   2.441   3.402   0.133
 1841HOH     H2 5729   2.534   3.418   0.252
 1842HOH      O 5730   1.273   3.440   3.503
 1842HOH     H1 5731   1.248   3.407   3.589
 1842HOH     H2 5732   1.190   3.444   3.454
 1843HOH      O 5733   2.259   1.648   2.378
 1843HOH     H1 5734   2.315   1.725   2.368
 1843HOH     H2 5735   2.180   1.669   2.327
 1844HOH      O 5736   1.284   3.357   1.550
 1844HOH     H1 5737   1.245   3.284   1.501
 1844HOH     H2 5738   1.231   3.362   1.630
 1845HOH      O 5739   1.090   0.807   1.010
 1845HOH     H1 5740   1.143   0.786   1.088
 1845HOH     H2 5741   1.143   0.872   0.964
 1846HOH      O 5742   2.272   0.589   1.880
 1846HOH     H1 5743   2.367   0.601   1.879
 1846HOH     H2 5744   2.252   0.559   1.968
 1847HOH      O 5745   2.683   1.690   1.044
 1847HOH     H1 5746   2.611   1.644   1.000
 1847HOH     H2 5747   2.741   1.619   1.073
 1848HOH      O 5748   2.849   2.454   0.118
 1848HOH     H1 5749   2.868   2.371   0.161
 1848HOH     H2 5750   2.755   2.467   0.131
 1849HOH      O 5751   2.243   0.930   2.591
 1849HOH     H1 5752   2.242   0.890   2.504
 1849HOH     H2 5753   2.151   0.932   2.617
 1850HOH      O 5754   1.272   2.282   1.038
 1850HOH     H1 5755   1.265   2.233   1.120
 1850HOH     H2 5756   1.351   2.334   1.047
 1851HOH      O 5757   0.244   3.320   2.793
 1851HOH     H1 5758   0.317   3.369   2.831
 1851HOH     H2 5759   0.285   3.265   2.726
 1852HOH      O 5760   0.985   3.293   2.402
 1852HOH     H1 5761   1.037   3.331   2.332
 1852HOH     H2 5762   0.923   3.362   2.427
 1853HOH      O 5763   0.899   2.054   1.604
 1853HOH     H1 5764   0.842   1.993   1.651
 1853HOH     H2 5765   0.860   2.061   1.517
 1854HOH      O 5766   2.998   3.320   3.496
 1854HOH     H1 5767   3.050   3.275   3.428
 1854HOH     H2 5768   3.020   3.273   3.577
 1855HOH      O 5769   2.033   2.118   0.401
 1855HOH     H1 5770   2.032   2.023   0.391
 1855HOH     H2 5771   2.104   2.135   0.463
 1856HOH      O 5772   3.513   3.132   1.569
 1856HOH     H1 5773   3.492   3.061   1.630
 1856HOH     H2 5774   3.457   3.204   1.598
 1857HOH      O 5775   3.135   1.083   3.979
 1857HOH     H1 5776   3.091   1.120   3.903
 1857HOH     H2 5777   3.146   1.157   4.039
 1858HOH      O 5778   3.792   1.707   2.978
 1858HOH     H1 5779   3.846   1.695   2.899
 1858HOH     H2 5780   3.702   1.707   2.945
 1859HOH      O 5781   2.989   3.895   1.649
 1859HOH     H1 5782   2.989   3.968   1.587
 1859HOH     H2 5783   3.074   3.901   1.693
 1860HOH      O 5784   1.158   3.575   1.742
 1860HOH     H1 5785   1.074   3.617   1.759
 1860HOH     H2 5786   1.204   3.637   1.685
 1861HOH      O 5787   1.798   3.819   3.585
 1861HOH     H1 5788   1.748   3.766   3.647
 1861HOH     H2 5789   1.889   3.811   3.614
 1862HOH      O 5790   1.671   3.329   0.706
 1862HOH     H1 5791   1.641   3.270   0.775
 1862HOH     H2 5792   1.592   3.355   0.660
 1863HOH      O 5793   1.429   1.238   0.527
 1863HOH     H1 5794   1.499   1.221   0.464
 1863HOH     H2 5795   1.413   1.332   0.521
 1864HOH      O 5796   2.414   2.995   2.373
 1864HOH     H1 5797   2.337   2.979   2.318
 1864HOH     H2 5798   2.483   3.020   2.311
 1865HOH      O 5799   1.849   0.129   0.184
 1865HOH     H1 5800   1.845   0.137   0.279
 1865HOH     H2 5801   1.784   0.061   0.163
 1866HOH      O 5802   2.525   0.213   3.589
 1866HOH     H1 5803   2.551   0.145   3.651
 1866HOH     H2 5804   2.471   0.273   3.640
 1867HOH      O 5805   0.819   3.372   0.977
 1867HOH     H1 5806   0.874   3.364   0.899
 1867HOH     H2 5807   0.796   3.282   0.999
 1868HOH      O 5808   3.419   1.634   0.091
 1868HOH     H1 5809   3.456   1.567   0.148
 1868HOH     H2 5810   3.442   1.717   0.134
 1869HOH      O 5811   1.526   1.444   1.108
 1869HOH     H1 5812   1.572   1.414   1.187
 1869HOH     H2 5813   1.436   1.414   1.120
 1870HOH      O 5814   3.331   0.123   0.812
 1870HOH     H1 5815   3.401   0.059   0.819
 1870HOH     H2 5816   3.368   0.193   0.758
 1871HOH      O 5817   1.588   1.332   2.576
 1871HOH     H1 5818   1.564   1.241   2.562
 1871HOH     H2 5819   1.666   1.345   2.522
 1872HOH      O 5820   3.819   3.786   1.402
 1872HOH     H1 5821   3.898   3.735   1.385
 1872HOH     H2 5822   3.851   3.871   1.434
 1873HOH      O 5823   3.084   1.144   1.076
 1873HOH     H1 5824   3.041   1.110   1.155
 1873HOH     H2 5825   3.078   1.239   1.084
 1874HOH      O 5826   3.020   3.672   3.692
 1874HOH     H1 5827   2.959   3.607   3.728
 1874HOH     H2 5828   3.107   3.636   3.710
 1875HOH      O 5829   2.207   1.331   2.634
 1875HOH     H1 5830   2.149   1.407   2.646
 1875HOH     H2 5831   2.169   1.284   2.560
 1876HOH      O 5832   2.698   1.049   3.936
 1876HOH     H1 5833   2.642   0.997   3.879
 1876HOH     H2 5834   2.639   1.116   3.973
 1877HOH      O 5835   2.869   3.692   0.635
 1877HOH     H1 5836   2.801   3.739   0.683
 1877HOH     H2 5837   2.951   3.716   0.679
 1878HOH      O 5838   2.899   2.058   1.949
 1878HOH     H1 5839   2.970   2.121   1.935
 1878HOH     H2 5840   2.820   2.107   1.927
 1879HOH      O 5841   2.923   1.543   1.693
 1879HOH     H1 5842   2.954   1.481   1.759
 1879HOH     H2 5843   2.917   1.626   1.740
 1880HOH      O 5844   2.601   1.121   3.258
 1880HOH     H1 5845   2.640   1.095   3.341
 1880HOH     H2 5846   2.508   1.136   3.279
 1881HOH      O 5847   0.375   1.109   2.125
 1881HOH     H1 5848   0.411   1.089   2.039
 1881HOH     H2 5849   0.330   1.029   2.151
 1882HOH      O 5850   4.039   1.497   1.442
 1882HOH     H1 5851   3.974   1.562   1.468
 1882HOH     H2 5852   4.020   1.421   1.496
 1883HOH      O 5853   1.119   3.479   0.216
 1883HOH     H1 5854   1.166   3.401   0.189
 1883HOH     H2 5855   1.030   3.468   0.180
 1884HOH      O 5856   2.271   0.006   3.103
 1884HOH     H1 5857   2.179  -0.013   3.123
 1884HOH     H2 5858   2.305   0.045   3.184
 1885HOH      O 5859   2.978   3.718   3.224
 1885HOH     H1 5860   2.939   3.768   3.295
 1885HOH     H2 5861   3.010   3.638   3.266
 1886HOH      O 5862   1.886   0.199   0.872
 1886HOH     H1 5863   1.829   0.261   0.918
 1886HOH     H2 5864   1.873   0.116   0.917
 1887HOH      O 5865   3.891   0.925   3.135
 1887HOH     H1 5866   3.804   0.955   3.105
 1887HOH     H2 5867   3.927   0.879   3.059
 1888HOH      O 5868   1.993   0.492   2.352
 1888HOH     H1 5869   2.018   0.477   2.443
 1888HOH     H2 5870   1.949   0.412   2.325
 1889HOH      O 5871   3.078   3.712   2.261
 1889HOH     H1 5872   3.066   3.758   2.345
 1889HOH     H2 5873   2.991   3.678   2.240
 1890HOH      O 5874   0.313   3.276   2.313
 1890HOH     H1 5875   0.296   3.285   2.219
 1890HOH     H2 5876   0.283   3.359   2.351
 1891HOH      O 5877   0.388   2.380   1.271
 1891HOH     H1 5878   0.332   2.404   1.345
 1891HOH     H2 5879   0.388   2.457   1.215
 1892HOH      O 5880   2.778   3.816   1.465
 1892HOH     H1 5881   2.759   3.898   1.419
 1892HOH     H2 5882   2.859   3.834   1.514
 1893HOH      O 5883   2.524   0.174   1.058
 1893HOH     H1 5884   2.479   0.154   1.140
 1893HOH     H2 5885   2.485   0.256   1.028
 1894HOH      O 5886   1.363   0.377   2.954
 1894HOH     H1 5887   1.373   0.466   2.986
 1894HOH     H2 5888   1.374   0.322   3.031
 1895HOH      O 5889   1.784   0.956   2.978
 1895HOH     H1 5890   1.711   0.985   3.033
 1895HOH     H2 5891   1.750   0.880   2.931
 1896HOH      O 5892   1.468   2.968   2.858
 1896HOH     H1 5893   1.388   2.915   2.862
 1896HOH     H2 5894   1.440   3.051   2.819
 1897HOH      O 5895   1.820   0.585   2.965
 1897HOH     H1 5896   1.865   0.587   3.050
 1897HOH     H2 5897   1.745   0.643   2.977
 1898HOH      O 5898   2.018   1.762   0.773
 1898HOH     H1 5899   2.000   1.841   0.723
 1898HOH     H2 5900   1.933   1.719   0.782
 1899HOH      O 5901   1.938   1.480   2.162
 1899HOH     H1 5902   1.896   1.498   2.078
 1899HOH     H2 5903   2.001   1.411   2.144
 1900HOH      O 5904   1.593   3.179   1.284
 1900HOH     H1 5905   1.504   3.194   1.314
 1900HOH     H2 5906   1.583   3.137   1.199
 1901HOH      O 5907   2.671   2.515   1.742
 1901HOH     H1 5908   2.586   2.474   1.727
 1901HOH     H2 5909   2.702   2.539   1.655
 1902HOH      O 5910   2.627   2.518   2.387
 1902HOH     H1 5911   2.680   2.545   2.312
 1902HOH     H2 5912   2.606   2.599   2.433
 1903HOH      O 5913   2.963   3.384   2.416
 1903HOH     H1 5914   2.906   3.439   2.470
 1903HOH     H2 5915   2.917   3.378   2.332
 1904HOH      O 5916   3.981   2.067   2.381
 1904HOH     H1 5917   4.020   1.999   2.326
 1904HOH     H2 5918   3.936   2.019   2.450
 1905HOH      O 5919   0.325   1.727   0.516
 1905HOH     H1 5920   0.419   1.714   0.529
 1905HOH     H2 5921   0.293   1.642   0.486
 1906HOH      O 5922   2.848   3.333   1.430
 1906HOH     H1 5923   2.846   3.286   1.514
 1906HOH     H2 5924   2.793   3.410   1.445
 1907HOH      O 5925   2.998   2.530   2.292
 1907HOH     H1 5926   3.000   2.601   2.227
 1907HOH     H2 5927   2.953   2.458   2.248
 1908HOH      O 5928   1.152   2.951   1.169
 1908HOH     H1 5929   1.068   2.904   1.172
 1908HOH     H2 5930   1.135   3.028   1.115
 1909HOH      O 5931   2.606   0.605   2.621
 1909HOH     H1 5932   2.566   0.574   2.540
 1909HOH     H2 5933   2.548   0.676   2.650
 1910HOH      O 5934   3.424   3.389   1.634
 1910HOH     H1 5935   3.492   3.413   1.697
 1910HOH     H2 5936   3.448   3.437   1.554
 1911HOH      O 5937   3.541   3.401   2.872
 1911HOH     H1 5938   3.449   3.380   2.857
 1911HOH     H2 5939   3.566   3.453   2.796
 1912HOH      O 5940   2.595   3.267   1.763
 1912HOH     H1 5941   2.571   3.356   1.736
 1912HOH     H2 5942   2.667   3.242   1.704
 1913HOH      O 5943   1.631   3.660   2.065
 1913HOH     H1 5944   1.666   3.747   2.044
 1913HOH     H2 5945   1.706   3.613   2.101
 1914HOH      O 5946   1.504   0.739  -0.019
 1914HOH     H1 5947   1.471   0.798   0.050
 1914HOH     H2 5948   1.439   0.670  -0.025
 1915HOH      O 5949   0.295   2.411   3.083
 1915HOH     H1 5950   0.229   2.442   3.145
 1915HOH     H2 5951   0.367   2.474   3.092
 1916HOH      O 5952   1.611   1.361   3.023
 1916HOH     H1 5953   1.596   1.416   3.101
 1916HOH     H2 5954   1.523   1.340   2.992
 1917HOH      O 5955   3.096   2.646   3.108
 1917HOH     H1 5956   3.041   2.628   3.031
 1917HOH     H2 5957   3.183   2.664   3.072
 1918HOH      O 5958   0.623   2.419   3.856
 1918HOH     H1 5959   0.601   2.358   3.926
 1918HOH     H2 5960   0.547   2.475   3.848
 1919HOH      O 5961   4.016   3.658   2.089
 1919HOH     H1 5962   3.999   3.659   2.183
 1919HOH     H2 5963   3.930   3.666   2.049
 1920HOH      O 5964   0.690   3.146   1.044
 1920HOH     H1 5965   0.710   3.141   1.138
 1920HOH     H2 5966   0.613   3.203   1.039
 1921HOH      O 5967   1.225   0.996   0.869
 1921HOH     H1 5968   1.253   1.085   0.849
 1921HOH     H2 5969   1.192   0.962   0.786
 1922HOH      O 5970   0.410   2.604   3.829
 1922HOH     H1 5971   0.338   2.659   3.796
 1922HOH     H2 5972   0.451   2.658   3.897
 1923HOH      O 5973   2.447   1.906   1.564
 1923HOH     H1 5974   2.425   1.927   1.473
 1923HOH     H2 5975   2.364   1.916   1.611
 1924HOH      O 5976   0.972   2.631   0.775
 1924HOH     H1 5977   0.909   2.693   0.811
 1924HOH     H2 5978   1.016   2.595   0.852
 1925HOH      O 5979   3.259   2.209   2.998
 1925HOH     H1 5980   3.323   2.280   3.002
 1925HOH     H2 5981   3.182   2.249   2.959
 1926HOH      O 5982   2.075   1.474   1.389
 1926HOH     H1 5983   2.075   1.381   1.414
 1926HOH     H2 5984   2.019   1.478   1.311
 1927HOH      O 5985   1.789   3.185   1.732
 1927HOH     H1 5986   1.764   3.149   1.647
 1927HOH     H2 5987   1.791   3.110   1.791
 1928HOH      O 5988   0.042   3.327   4.002
 1928HOH     H1 5989  -0.043   3.282   4.005
 1928HOH     H2 5990   0.082   3.309   4.087
 1929HOH      O 5991   0.915   3.671   0.011
 1929HOH     H1 5992   0.895   3.762  -0.012
 1929HOH     H2 5993   0.829   3.630   0.025
 1930HOH      O 5994   1.617   3.608   3.681
 1930HOH     H1 5995   1.700   3.597   3.727
 1930HOH     H2 5996   1.550   3.587   3.745
 1931HOH      O 5997   3.299   2.083   1.532
 1931HOH     H1 5998   3.220   2.130   1.558
 1931HOH     H2 5999   3.371   2.132   1.571
 1932HOH      O 6000   3.259   3.632   4.032
 1932HOH     H1 6001   3.170   3.654   4.004
 1932HOH     H2 6002   3.281   3.554   3.981
 1933HOH      O 6003   3.436   2.721   3.706
 1933HOH     H1 6004   3.349   2.721   3.746
 1933HOH     H2 6005   3.497   2.719   3.780
 1934HOH      O 6006   3.530   1.958   3.824
 1934HOH     H1 6007   3.610   1.907   3.808
 1934HOH     H2 6008   3.516   2.007   3.743
 1935HOH      O 6009   0.662   2.671   2.113
 1935HOH     H1 6010   0.699   2.755   2.088
 1935HOH     H2 6011   0.641   2.628   2.030
 1936HOH      O 6012   2.543   0.215   3.110
 1936HOH     H1 6013   2.466   0.273   3.106
 1936HOH     H2 6014   2.587   0.240   3.191
 1937HOH      O 6015   3.121   4.025   1.357
 1937HOH     H1 6016   3.108   3.935   1.328
 1937HOH     H2 6017   3.196   4.020   1.416
 1938HOH      O 6018   2.924   0.841   3.858
 1938HOH     H1 6019   2.947   0.840   3.950
 1938HOH     H2 6020   2.890   0.930   3.843
 1939HOH      O 6021   0.095   3.650   1.081
 1939HOH     H1 6022   0.073   3.578   1.139
 1939HOH     H2 6023   0.011   3.693   1.064
 1940HOH      O 6024   0.373   3.752   3.205
 1940HOH     H1 6025   0.341   3.793   3.124
 1940HOH     H2 6026   0.337   3.663   3.201
 1941HOH      O 6027   3.780   2.270   2.571
 1941HOH     H1 6028   3.872   2.290   2.590
 1941HOH     H2 6029   3.744   2.353   2.538
 1942HOH      O 6030   3.992   0.751   0.831
 1942HOH     H1 6031   4.082   0.762   0.864
 1942HOH     H2 6032   3.966   0.664   0.863
 1943HOH      O 6033   3.552   2.323   2.968
 1943HOH     H1 6034   3.599   2.404   2.988
 1943HOH     H2 6035   3.526   2.332   2.877
 1944HOH      O 6036   2.204   3.480   1.807
 1944HOH     H1 6037   2.288   3.506   1.770
 1944HOH     H2 6038   2.215   3.492   1.901
 1945HOH      O 6039   1.922   3.574   1.826
 1945HOH     H1 6040   2.017   3.570   1.817
 1945HOH     H2 6041   1.900   3.503   1.886
 1946HOH      O 6042   3.271   3.364   2.775
 1946HOH     H1 6043   3.199   3.322   2.729
 1946HOH     H2 6044   3.262   3.457   2.755
 1947HOH      O 6045   3.570   1.584   1.844
 1947HOH     H1 6046   3.479   1.554   1.845
 1947HOH     H2 6047   3.563   1.677   1.820
 1948HOH      O 6048   3.630   3.672   1.214
 1948HOH     H1 6049   3.567   3.731   1.255
 1948HOH     H2 6050   3.715   3.703   1.246
 1949HOH      O 6051   0.591   3.398   1.561
 1949HOH     H1 6052   0.572   3.342   1.637
 1949HOH     H2 6053   0.531   3.472   1.570
 1950HOH      O 6054   2.112   0.649   2.977
 1950HOH     H1 6055   2.165   0.570   2.966
 1950HOH     H2 6056   2.072   0.663   2.892
 1951HOH      O 6057   3.189   0.665   3.092
 1951HOH     H1 6058   3.094   0.653   3.091
 1951HOH     H2 6059   3.224   0.582   3.059
 1952HOH      O 6060   1.150   1.439   0.127
 1952HOH     H1 6061   1.228   1.493   0.112
 1952HOH     H2 6062   1.176   1.351   0.101
 1953HOH      O 6063   3.882   1.865   0.661
 1953HOH     H1 6064   3.867   1.779   0.700
 1953HOH     H2 6065   3.864   1.853   0.568
 1954HOH      O 6066   1.361   1.385   1.990
 1954HOH     H1 6067   1.315   1.308   2.025
 1954HOH     H2 6068   1.427   1.349   1.931
 1955HOH      O 6069   2.660   3.220   3.750
 1955HOH     H1 6070   2.592   3.264   3.800
 1955HOH     H2 6071   2.683   3.281   3.681
 1956HOH      O 6072   3.158   1.328   1.600
 1956HOH     H1 6073   3.141   1.289   1.685
 1956HOH     H2 6074   3.251   1.311   1.584
 1957HOH      O 6075   2.531   0.613   1.929
 1957HOH     H1 6076   2.558   0.664   2.006
 1957HOH     H2 6077   2.593   0.640   1.861
 1958HOH      O 6078   1.948   1.947   2.185
 1958HOH     H1 6079   1.895   1.998   2.246
 1958HOH     H2 6080   1.952   1.859   2.224
 1959HOH      O 6081   3.085   3.234   2.592
 1959HOH     H1 6082   3.026   3.260   2.521
 1959HOH     H2 6083   3.030   3.237   2.671
 1960HOH      O 6084   2.360   3.410   0.715
 1960HOH     H1 6085   2.410   3.468   0.772
 1960HOH     H2 6086   2.336   3.336   0.771
 1961HOH      O 6087   2.809   3.614   2.531
 1961HOH     H1 6088   2.759   3.693   2.549
 1961HOH     H2 6089   2.900   3.644   2.523
 1962HOH      O 6090   0.864   2.091   3.876
 1962HOH     H1 6091   0.801   2.050   3.936
 1962HOH     H2 6092   0.884   2.022   3.812
 1963HOH      O 6093   0.492   3.243   1.783
 1963HOH     H1 6094   0.494   3.308   1.853
 1963HOH     H2 6095   0.409   3.197   1.795
 1964HOH      O 6096   2.205   0.766   3.641
 1964HOH     H1 6097   2.147   0.794   3.711
 1964HOH     H2 6098   2.198   0.835   3.574
 1965HOH      O 6099   2.881   0.092   0.121
 1965HOH     H1 6100   2.862   0.014   0.068
 1965HOH     H2 6101   2.864   0.165   0.062
 1966HOH      O 6102   1.761   2.227   3.894
 1966HOH     H1 6103   1.686   2.254   3.947
 1966HOH     H2 6104   1.760   2.131   3.898
 1967HOH      O 6105   0.984   3.628   1.460
 1967HOH     H1 6106   0.985   3.671   1.545
 1967HOH     H2 6107   1.043   3.680   1.406
 1968HOH      O 6108   2.344   2.882   1.497
 1968HOH     H1 6109   2.299   2.809   1.542
 1968HOH     H2 6110   2.273   2.932   1.456
 1969HOH      O 6111   2.599   1.686   2.785
 1969HOH     H1 6112   2.573   1.778   2.793
 1969HOH     H2 6113   2.522   1.636   2.812
 1970HOH      O 6114   2.470   3.348   0.471
 1970HOH     H1 6115   2.549   3.398   0.492
 1970HOH     H2 6116   2.423   3.343   0.554
 1971HOH      O 6117   2.314   2.171   3.124
 1971HOH     H1 6118   2.273   2.247   3.083
 1971HOH     H2 6119   2.287   2.176   3.215
 1972HOH      O 6120   1.903   2.240   2.537
 1972HOH     H1 6121   1.980   2.283   2.500
 1972HOH     H2 6122   1.830   2.297   2.513
 1973HOH      O 6123   0.101   3.420   1.239
 1973HOH     H1 6124   0.194   3.414   1.262
 1973HOH     H2 6125   0.079   3.332   1.208
 1974HOH      O 6126   3.287   2.441   3.768
 1974HOH     H1 6127   3.223   2.513   3.768
 1974HOH     H2 6128   3.327   2.445   3.855
 1975HOH      O 6129   1.347   1.337   1.370
 1975HOH     H1 6130   1.330   1.293   1.453
 1975HOH     H2 6131   1.262   1.341   1.327
 1976HOH      O 6132   2.419   2.090   3.634
 1976HOH     H1 6133   2.466   2.165   3.597
 1976HOH     H2 6134   2.391   2.119   3.720
 1977HOH      O 6135   0.146   1.791   0.863
 1977HOH     H1 6136   0.173   1.754   0.947
 1977HOH     H2 6137   0.099   1.720   0.819
 1978HOH      O 6138   3.762   3.494   0.225
 1978HOH     H1 6139   3.830   3.508   0.291
 1978HOH     H2 6140   3.687   3.461   0.275
 1979HOH      O 6141   1.158   1.234   2.343
 1979HOH     H1 6142   1.085   1.284   2.381
 1979HOH     H2 6143   1.236   1.284   2.365
 1980HOH      O 6144   1.287   1.208   2.973
 1980HOH     H1 6145   1.230   1.268   2.924
 1980HOH     H2 6146   1.227   1.146   3.013
 1981HOH      O 6147   0.367   2.845   2.693
 1981HOH     H1 6148   0.357   2.861   2.787
 1981HOH     H2 6149   0.297   2.783   2.672
 1982HOH      O 6150   3.293   2.647   2.849
 1982HOH     H1 6151   3.234   2.663   2.776
 1982HOH     H2 6152   3.366   2.599   2.812
 1983HOH      O 6153   3.380   0.505   1.413
 1983HOH     H1 6154   3.298   0.457   1.424
 1983HOH     H2 6155   3.391   0.511   1.318
 1984HOH      O 6156   3.716   2.797   1.648
 1984HOH     H1 6157   3.662   2.723   1.620
 1984HOH     H2 6158   3.669   2.834   1.723
 1985HOH      O 6159   0.417   2.615   1.637
 1985HOH     H1 6160   0.331   2.622   1.596
 1985HOH     H2 6161   0.479   2.636   1.566
 1986HOH      O 6162   1.955   0.714   3.814
 1986HOH     H1 6163   1.939   0.710   3.908
 1986HOH     H2 6164   1.994   0.630   3.792
 1987HOH      O 6165   2.666   0.599   1.248
 1987HOH     H1 6166   2.660   0.684   1.205
 1987HOH     H2 6167   2.757   0.572   1.235
 1988HOH      O 6168   1.953   0.284   1.986
 1988HOH     H1 6169   2.011   0.233   2.043
 1988HOH     H2 6170   1.865   0.264   2.018
 1989HOH      O 6171   3.946   0.145   3.048
 1989HOH     H1 6172   3.995   0.207   2.994
 1989HOH     H2 6173   3.950   0.182   3.136
 1990HOH      O 6174   1.420   3.439   2.017
 1990HOH     H1 6175   1.438   3.400   1.931
 1990HOH     H2 6176   1.483   3.510   2.023
 1991HOH      O 6177   0.346   2.771   2.363
 1991HOH     H1 6178   0.392   2.735   2.287
 1991HOH     H2 6179   0.415   2.786   2.427
 1992HOH      O 6180   2.337   2.626   2.538
 1992HOH     H1 6181   2.328   2.619   2.442
 1992HOH     H2 6182   2.249   2.606   2.571
 1993HOH      O 6183   0.856   2.704   2.634
 1993HOH     H1 6184   0.822   2.617   2.616
 1993HOH     H2 6185   0.780   2.762   2.624
 1994HOH      O 6186   1.900   2.774   3.712
 1994HOH     H1 6187   1.992   2.801   3.707
 1994HOH     H2 6188   1.857   2.846   3.759
 1995HOH      O 6189   1.446   0.174   2.739
 1995HOH     H1 6190   1.498   0.221   2.674
 1995HOH     H2 6191   1.428   0.238   2.807
 1996HOH      O 6192   0.914   2.793   1.173
 1996HOH     H1 6193   0.842   2.749   1.127
 1996HOH     H2 6194   0.883   2.802   1.263
 1997HOH      O 6195   1.582   1.573   1.879
 1997HOH     H1 6196   1.497   1.605   1.907
 1997HOH     H2 6197   1.594   1.612   1.792
 1998HOH      O 6198   3.261  -0.002   3.546
 1998HOH     H1 6199   3.217  -0.043   3.620
 1998HOH     H2 6200   3.195   0.054   3.506
 1999HOH      O 6201   0.793   2.049   2.438
 1999HOH     H1 6202   0.826   2.104   2.367
 1999HOH     H2 6203   0.708   2.017   2.407
 2000HOH      O 6204   0.615   1.476   3.359
 2000HOH     H1 6205   0.573   1.486   3.274
 2000HOH     H2 6206   0.709   1.470   3.339
 2001HOH      O 6207   3.093   3.370   4.000
 2001HOH     H1 6208   3.186   3.355   3.982
 2001HOH     H2 6209   3.059   3.284   4.025
 2002HOH      O 6210   0.095   1.505   0.212
 2002HOH     H1 6211   0.078   1.594   0.179
 2002HOH     H2 6212   0.027   1.451   0.172
 2003HOH      O 6213   2.858   3.168   0.556
 2003HOH     H1 6214   2.920   3.241   0.565
 2003HOH     H2 6215   2.878   3.110   0.630
 2004HOH      O 6216   3.144   0.799   2.433
 2004HOH     H1 6217   3.135   0.894   2.448
 2004HOH     H2 6218   3.149   0.790   2.338
 2005HOH      O 6219   3.437   2.206   2.564
 2005HOH     H1 6220   3.469   2.204   2.474
 2005HOH     H2 6221   3.439   2.115   2.593
 2006HOH      O 6222   2.753   2.579   3.474
 2006HOH     H1 6223   2.799   2.526   3.539
 2006HOH     H2 6224   2.688   2.519   3.437
 2007HOH      O 6225   1.092   1.693   0.946
 2007HOH     H1 6226   1.001   1.718   0.927
 2007HOH     H2 6227   1.099   1.602   0.916
 2008HOH      O 6228   2.846   2.986   2.432
 2008HOH     H1 6229   2.789   2.910   2.428
 2008HOH     H2 6230   2.927   2.957   2.389
 2009HOH      O 6231   3.540   3.181   3.228
 2009HOH     H1 6232   3.496   3.260   3.260
 2009HOH     H2 6233   3.605   3.214   3.165
 2010HOH      O 6234   2.543   2.503   2.078
 2010HOH     H1 6235   2.524   2.422   2.125
 2010HOH     H2 6236   2.611   2.479   2.014
 2011HOH      O 6237   3.888   3.331   2.724
 2011HOH     H1 6238   3.811   3.277   2.710
 2011HOH     H2 6239   3.853   3.420   2.735
 2012HOH      O 6240   2.271   0.598   3.455
 2012HOH     H1 6241   2.226   0.661   3.513
 2012HOH     H2 6242   2.222   0.516   3.467
 2013HOH      O 6243   0.400   2.602   0.200
 2013HOH     H1 6244   0.378   2.586   0.292
 2013HOH     H2 6245   0.317   2.596   0.154
 2014HOH      O 6246   3.358   3.776   1.475
 2014HOH     H1 6247   3.379   3.870   1.472
 2014HOH     H2 6248   3.403   3.743   1.552
 2015HOH      O 6249   2.794   2.428   2.859
 2015HOH     H1 6250   2.757   2.348   2.896
 2015HOH     H2 6251   2.722   2.464   2.806
 2016HOH      O 6252   3.348   0.840   3.226
 2016HOH     H1 6253   3.295   0.791   3.163
 2016HOH     H2 6254   3.299   0.834   3.308
 2017HOH      O 6255   3.274   3.750   1.005
 2017HOH     H1 6256   3.315   3.733   0.920
 2017HOH     H2 6257   3.325   3.823   1.042
 2018HOH      O 6258   3.974   3.177   0.342
 2018HOH     H1 6259   4.027   3.151   0.418
 2018HOH     H2 6260   4.015   3.259   0.312
 2019HOH      O 6261   2.906   1.879   2.911
 2019HOH     H1 6262   2.973   1.813   2.893
 2019HOH     H2 6263   2.843   1.834   2.967
 2020HOH      O 6264   1.177   2.031   2.531
 2020HOH     H1 6265   1.154   2.094   2.600
 2020HOH     H2 6266   1.130   1.951   2.554
 2021HOH      O 6267   0.471   0.936   3.152
 2021HOH     H1 6268   0.437   1.006   3.097
 2021HOH     H2 6269   0.534   0.980   3.210
 2022HOH      O 6270   3.338   0.580   0.958
 2022HOH     H1 6271   3.345   0.528   1.038
 2022HOH     H2 6272   3.270   0.644   0.977
 2023HOH      O 6273   0.588   1.666   0.272
 2023HOH     H1 6274   0.618   1.605   0.204
 2023HOH     H2 6275   0.660   1.670   0.335
 2024HOH      O 6276   1.983   3.737   1.304
 2024HOH     H1 6277   1.966   3.658   1.252
 2024HOH     H2 6278   2.049   3.710   1.368
 2025HOH      O 6279   1.240   3.621   0.891
 2025HOH     H1 6280   1.293   3.701   0.895
 2025HOH     H2 6281   1.182   3.627   0.967
 2026HOH      O 6282   2.435   0.292   0.106
 2026HOH     H1 6283   2.348   0.295   0.067
 2026HOH     H2 6284   2.491   0.337   0.043
 2027HOH      O 6285   1.154   3.330   3.156
 2027HOH     H1 6286   1.248   3.312   3.164
 2027HOH     H2 6287   1.119   3.254   3.110
 2028HOH      O 6288   0.931   3.341   0.054
 2028HOH     H1 6289   0.841   3.373   0.058
 2028HOH     H2 6290   0.928   3.269  -0.009
 2029HOH      O 6291   1.415   3.694   3.500
 2029HOH     H1 6292   1.382   3.604   3.499
 2029HOH     H2 6293   1.494   3.690   3.554
 2030HOH      O 6294   1.515   3.414   0.044
 2030HOH     H1 6295   1.555   3.327   0.054
 2030HOH     H2 6296   1.566   3.470   0.102
 2031HOH      O 6297   3.790   0.909   0.449
 2031HOH     H1 6298   3.787   1.003   0.436
 2031HOH     H2 6299   3.839   0.877   0.373
 2032HOH      O 6300   3.006   2.868   0.026
 2032HOH     H1 6301   3.078   2.805   0.014
 2032HOH     H2 6302   2.938   2.817   0.070
 2033HOH      O 6303   1.632   2.201   0.864
 2033HOH     H1 6304   1.624   2.124   0.808
 2033HOH     H2 6305   1.617   2.169   0.953
 2034HOH      O 6306   2.325   0.932   0.774
 2034HOH     H1 6307   2.351   1.016   0.812
 2034HOH     H2 6308   2.239   0.913   0.813
 2035HOH      O 6309   3.850   1.550   0.381
 2035HOH     H1 6310   3.896   1.624   0.341
 2035HOH     H2 6311   3.912   1.515   0.444
 2036HOH      O 6312   2.366   1.459   1.658
 2036HOH     H1 6313   2.359   1.394   1.588
 2036HOH     H2 6314   2.337   1.541   1.617
 2037HOH      O 6315   1.998   2.131   0.789
 2037HOH     H1 6316   1.986   2.226   0.779
 2037HOH     H2 6317   1.931   2.093   0.732
 2038HOH      O 6318   3.493   3.856   3.957
 2038HOH     H1 6319   3.498   3.858   3.862
 2038HOH     H2 6320   3.508   3.765   3.981
 2039HOH      O 6321   3.487   3.392   3.591
 2039HOH     H1 6322   3.505   3.299   3.604
 2039HOH     H2 6323   3.493   3.406   3.497
 2040HOH      O 6324   3.004   1.658   2.571
 2040HOH     H1 6325   3.021   1.637   2.663
 2040HOH     H2 6326   3.018   1.575   2.524
 2041HOH      O 6327   2.349   0.139   2.381
 2041HOH     H1 6328   2.270   0.087   2.397
 2041HOH     H2 6329   2.417   0.095   2.432
 2042HOH      O 6330   0.781   3.901   0.073
 2042HOH     H1 6331   0.812   3.961   0.141
 2042HOH     H2 6332   0.715   3.847   0.117
 2043HOH      O 6333   2.973   2.297   3.369
 2043HOH     H1 6334   3.027   2.375   3.380
 2043HOH     H2 6335   2.902   2.325   3.310
 2044HOH      O 6336   3.835   3.591   2.741
 2044HOH     H1 6337   3.753   3.600   2.692
 2044HOH     H2 6338   3.895   3.652   2.698
 2045HOH      O 6339   2.433   1.171   1.782
 2045HOH     H1 6340   2.416   1.243   1.722
 2045HOH     H2 6341   2.348   1.155   1.824
 2046HOH      O 6342   1.245   2.450   2.445
 2046HOH     H1 6343   1.330   2.413   2.470
 2046HOH     H2 6344   1.264   2.502   2.367
 2047HOH      O 6345   2.373   3.221   3.448
 2047HOH     H1 6346   2.306   3.237   3.513
 2047HOH     H2 6347   2.427   3.151   3.485
 2048HOH      O 6348   2.613   3.388   2.888
 2048HOH     H1 6349   2.709   3.387   2.890
 2048HOH     H2 6350   2.591   3.428   2.804
 2049HOH      O 6351   3.569   1.738   2.843
 2049HOH     H1 6352   3.604   1.798   2.777
 2049HOH     H2 6353   3.584   1.651   2.806
 2050HOH      O 6354  -0.004   1.306   3.382
 2050HOH     H1 6355   0.016   1.295   3.288
 2050HOH     H2 6356   0.019   1.397   3.400
 2051HOH      O 6357   1.215   1.961   3.521
 2051HOH     H1 6358   1.177   1.939   3.436
 2051HOH     H2 6359   1.221   2.057   3.520
 2052HOH      O 6360   1.785   4.043   1.028
 2052HOH     H1 6361   1.831   4.024   1.109
 2052HOH     H2 6362   1.779   3.959   0.982
 2053HOH      O 6363   1.174   0.077   0.821
 2053HOH     H1 6364   1.156   0.093   0.913
 2053HOH     H2 6365   1.113   0.134   0.774
 2054HOH      O 6366   2.032   3.305   1.657
 2054HOH     H1 6367   2.069   3.365   1.722
 2054HOH     H2 6368   1.969   3.252   1.707
 2055HOH      O 6369   2.658   3.877   3.203
 2055HOH     H1 6370   2.715   3.946   3.171
 2055HOH     H2 6371   2.697   3.796   3.170
 2056HOH      O 6372   1.243   2.267   3.603
 2056HOH     H1 6373   1.201   2.249   3.519
 2056HOH     H2 6374   1.328   2.304   3.580
 2057HOH      O 6375   1.598   2.936   1.058
 2057HOH     H1 6376   1.590   2.914   1.150
 2057HOH     H2 6377   1.658   2.870   1.022
 2058HOH      O 6378   0.887   2.323   0.983
 2058HOH     H1 6379   0.928   2.257   1.039
 2058HOH     H2 6380   0.959   2.383   0.961
 2059HOH      O 6381   0.701   3.084   0.034
 2059HOH     H1 6382   0.739   3.090   0.121
 2059HOH     H2 6383   0.771   3.049  -0.021
 2060HOH      O 6384   2.579   0.370   3.910
 2060HOH     H1 6385   2.520   0.362   3.835
 2060HOH     H2 6386   2.666   0.368   3.871
 2061HOH      O 6387   1.165   1.040   1.324
 2061HOH     H1 6388   1.143   0.986   1.399
 2061HOH     H2 6389   1.216   0.982   1.267
 2062HOH      O 6390   0.133   0.260   1.027
 2062HOH     H1 6391   0.178   0.221   1.102
 2062HOH     H2 6392   0.122   0.352   1.051
 2063HOH      O 6393   3.859   0.150   1.047
 2063HOH     H1 6394   3.929   0.210   1.024
 2063HOH     H2 6395   3.889   0.108   1.128
 2064HOH      O 6396   3.827   1.126   2.462
 2064HOH     H1 6397   3.841   1.056   2.524
 2064HOH     H2 6398   3.784   1.084   2.387
 2065HOH      O 6399   1.697   0.686   1.817
 2065HOH     H1 6400   1.715   0.625   1.890
 2065HOH     H2 6401   1.611   0.723   1.838
 2066HOH      O 6402   3.650   0.429   0.321
 2066HOH     H1 6403   3.691   0.397   0.240
 2066HOH     H2 6404   3.589   0.496   0.293
 2067HOH      O 6405   0.040   0.297   2.857
 2067HOH     H1 6406   0.016   0.387   2.876
 2067HOH     H2 6407   0.018   0.285   2.765
 2068HOH      O 6408   1.303   2.263   2.015
 2068HOH     H1 6409   1.273   2.256   2.106
 2068HOH     H2 6410   1.270   2.347   1.985
 2069HOH      O 6411   3.050   1.170   2.667
 2069HOH     H1 6412   2.961   1.202   2.682
 2069HOH     H2 6413   3.104   1.249   2.673
 2070HOH      O 6414   2.816   3.610   2.235
 2070HOH     H1 6415   2.845   3.551   2.165
 2070HOH     H2 6416   2.749   3.559   2.282
 2071HOH      O 6417   0.284   0.073   0.847
 2071HOH     H1 6418   0.234   0.122   0.913
 2071HOH     H2 6419   0.223   0.063   0.774
 2072HOH      O 6420   0.901   1.824   1.267
 2072HOH     H1 6421   0.844   1.901   1.271
 2072HOH     H2 6422   0.852   1.760   1.215
 2073HOH      O 6423   3.929   0.891   1.947
 2073HOH     H1 6424   3.991   0.943   1.896
 2073HOH     H2 6425   3.850   0.946   1.953
 2074HOH      O 6426   3.303   2.234   0.673
 2074HOH     H1 6427   3.304   2.313   0.619
 2074HOH     H2 6428   3.228   2.246   0.732
 2075HOH      O 6429   0.217   2.965   3.526
 2075HOH     H1 6430   0.196   2.875   3.500
 2075HOH     H2 6431   0.151   2.987   3.592
 2076HOH      O 6432   2.942   0.496   0.679
 2076HOH     H1 6433   2.895   0.428   0.630
 2076HOH     H2 6434   2.931   0.575   0.626
 2077HOH      O 6435   2.878   0.896   2.570
 2077HOH     H1 6436   2.881   0.977   2.622
 2077HOH     H2 6437   2.925   0.832   2.623
 2078HOH      O 6438   0.231   3.751   3.836
 2078HOH     H1 6439   0.178   3.831   3.840
 2078HOH     H2 6440   0.187   3.689   3.894
 2079HOH      O 6441   2.281   0.870   3.207
 2079HOH     H1 6442   2.268   0.784   3.169
 2079HOH     H2 6443   2.193   0.906   3.217
 2080HOH      O 6444   2.058   0.926   0.868
 2080HOH     H1 6445   2.028   0.993   0.806
 2080HOH     H2 6446   1.989   0.860   0.866
 2081HOH      O 6447   3.059   3.817   2.565
 2081HOH     H1 6448   2.973   3.848   2.537
 2081HOH     H2 6449   3.106   3.897   2.588
 2082HOH      O 6450   1.552   1.373   0.833
 2082HOH     H1 6451   1.624   1.378   0.770
 2082HOH     H2 6452   1.581   1.428   0.906
 2083HOH      O 6453   2.336   3.443   2.410
 2083HOH     H1 6454   2.291   3.527   2.403
 2083HOH     H2 6455   2.398   3.442   2.336
 2084HOH      O 6456   1.102   1.264   1.189
 2084HOH     H1 6457   1.131   1.188   1.239
 2084HOH     H2 6458   1.047   1.227   1.120
 2085HOH      O 6459   3.182   0.952   0.891
 2085HOH     H1 6460   3.165   1.013   0.963
 2085HOH     H2 6461   3.095   0.933   0.855
 2086HOH      O 6462   2.347   3.850   3.355
 2086HOH     H1 6463   2.293   3.771   3.355
 2086HOH     H2 6464   2.421   3.828   3.298
 2087HOH      O 6465   0.345   2.652   3.401
 2087HOH     H1 6466   0.400   2.706   3.457
 2087HOH     H2 6467   0.397   2.639   3.322
 2088HOH      O 6468   2.218   3.538   1.038
 2088HOH     H1 6469   2.152   3.501   1.097
 2088HOH     H2 6470   2.290   3.564   1.096
 2089HOH      O 6471   1.660   0.614   0.261
 2089HOH     H1 6472   1.629   0.701   0.237
 2089HOH     H2 6473   1.609   0.591   0.338
 2090HOH      O 6474   1.379   1.815   3.675
 2090HOH     H1 6475   1.446   1.880   3.701
 2090HOH     H2 6476   1.321   1.863   3.617
 2091HOH      O 6477   2.657   1.040   3.541
 2091HOH     H1 6478   2.572   0.996   3.529
 2091HOH     H2 6479   2.643   1.098   3.615
 2092HOH      O 6480   2.076   2.803   0.710
 2092HOH     H1 6481   2.087   2.838   0.798
 2092HOH     H2 6482   2.069   2.880   0.654
 2093HOH      O 6483   2.096   2.086   1.794
 2093HOH     H1 6484   2.003   2.067   1.778
 2093HOH     H2 6485   2.112   2.169   1.749
 2094HOH      O 6486   0.688   2.642   2.410
 2094HOH     H1 6487   0.692   2.670   2.319
 2094HOH     H2 6488   0.777   2.613   2.430
 2095HOH      O 6489   3.533   0.946   3.704
 2095HOH     H1 6490   3.579   0.866   3.678
 2095HOH     H2 6491   3.525   0.996   3.623
 2096HOH      O 6492   2.410   3.693   0.028
 2096HOH     H1 6493   2.480   3.629   0.022
 2096HOH     H2 6494   2.352   3.660   0.097
 2097HOH      O 6495   3.121   3.948   3.773
 2097HOH     H1 6496   3.143   3.933   3.865
 2097HOH     H2 6497   3.094   3.862   3.740
 2098HOH      O 6498   1.467   2.476   3.194
 2098HOH     H1 6499   1.430   2.388   3.184
 2098HOH     H2 6500   1.405   2.533   3.150
 2099HOH      O 6501   0.110   3.499   2.440
 2099HOH     H1 6502   0.040   3.537   2.388
 2099HOH     H2 6503   0.146   3.572   2.490
 2100HOH      O 6504   2.830   3.950   2.935
 2100HOH     H1 6505   2.789   4.014   2.877
 2100HOH     H2 6506   2.892   4.001   2.987
 2101HOH      O 6507   3.073   2.201   2.291
 2101HOH     H1 6508   3.158   2.205   2.248
 2101HOH     H2 6509   3.016   2.256   2.237
 2102HOH      O 6510   3.189   1.955   3.100
 2102HOH     H1 6511   3.230   2.040   3.083
 2102HOH     H2 6512   3.220   1.899   3.028
 2103HOH      O 6513   0.856   1.652   2.772
 2103HOH     H1 6514   0.841   1.702   2.692
 2103HOH     H2 6515   0.773   1.608   2.789
 2104HOH      O 6516   1.644   3.578   1.363
 2104HOH     H1 6517   1.664   3.670   1.349
 2104HOH     H2 6518   1.613   3.546   1.278
 2105HOH      O 6519   3.771   3.047   1.836
 2105HOH     H1 6520   3.739   3.136   1.849
 2105HOH     H2 6521   3.692   2.997   1.814
 2106HOH      O 6522   2.717   1.839   3.573
 2106HOH     H1 6523   2.764   1.782   3.512
 2106HOH     H2 6524   2.759   1.924   3.563
 2107HOH      O 6525   1.653   2.408   2.690
 2107HOH     H1 6526   1.599   2.400   2.612
 2107HOH     H2 6527   1.612   2.350   2.754
 2108HOH      O 6528   3.034   1.644   2.876
 2108HOH     H1 6529   3.116   1.681   2.846
 2108HOH     H2 6530   3.058   1.592   2.953
 2109HOH      O 6531   2.038   3.916   1.735
 2109HOH     H1 6532   2.008   3.834   1.695
 2109HOH     H2 6533   2.084   3.961   1.665
   4.04076   4.04076   4.04076   0.00000   0.00000   0.00000   0.00000   0.00000   0.00000
