Generated with MDTraj, t= 28433.0
 6533
    1MOL     C1    1   2.146   0.089   1.574
    1MOL     C2    2   2.245   0.192   1.595
    1MOL     C3    3   2.325   0.230   1.489
    1MOL     C4    4   2.299   0.185   1.357
    1MOL     C5    5   2.202   0.089   1.337
    1MOL     C6    6   2.123   0.040   1.445
    1MOL     C7    7   2.375   0.234   1.228
    1MOL     C8    8   2.413   0.388   1.231
    1MOL     N1    9   2.519   0.442   1.141
    1MOL     C9   10   2.548   0.588   1.185
    1MOL    C10   11   2.485   0.426   0.994
    1MOL    C11   12   2.646   0.364   1.173
    1MOL     H1   13   2.639   0.625   1.137
    1MOL     H2   14   2.556   0.595   1.294
    1MOL     H3   15   2.466   0.656   1.161
    1MOL     H4   16   2.540   0.499   0.934
    1MOL     H5   17   2.377   0.440   0.994
    1MOL     H6   18   2.522   0.324   0.977
    1MOL     H7   19   2.676   0.389   1.275
    1MOL     H8   20   2.719   0.408   1.105
    1MOL     H9   21   2.627   0.258   1.155
    1MOL    H10   22   2.082   0.062   1.657
    1MOL    H11   23   2.247   0.238   1.693
    1MOL    H12   24   2.404   0.303   1.505
    1MOL    H13   25   2.185   0.048   1.238
    1MOL    H14   26   2.047  -0.036   1.430
    1MOL    H15   27   2.467   0.176   1.219
    1MOL    H16   28   2.325   0.209   1.134
    1MOL    H17   29   2.326   0.452   1.216
    1MOL    H18   30   2.446   0.411   1.332
    2OCB     C1   31   1.784  -0.227   2.788
    2OCB     C2   32   2.020  -0.328   2.688
    2OCB     C3   33   1.901  -0.226   2.863
    2OCB     C4   34   1.784  -0.291   2.662
    2OCB     C5   35   1.901  -0.340   2.611
    2OCB     C6   36   2.019  -0.280   2.818
    2OCB     O1   37   2.138  -0.366   2.629
    2OCB     C7   38   2.140  -0.267   2.907
    2OCB     C8   39   2.233  -0.264   2.591
    2OCB     O2   40   2.332  -0.239   2.691
    2OCB     C9   41   2.314  -0.133   2.770
    2OCB    C10   42   2.218  -0.142   2.870
    2OCB    C11   43   2.196  -0.030   2.954
    2OCB    C12   44   2.389  -0.018   2.748
    2OCB    C13   45   2.272   0.086   2.935
    2OCB    C14   46   2.362   0.092   2.827
    2OCB     O3   47   2.434   0.208   2.800
    2OCB    C15   48   2.255   0.207   3.027
    2OCB    C16   49   2.146   0.294   2.963
    2OCB    C17   50   2.177   0.397   2.866
    2OCB    C18   51   2.362   0.309   2.723
    2OCB     O4   52   2.312   0.409   2.817
    2OCB     O5   53   1.671  -0.281   2.591
    2OCB    C19   54   1.650  -0.170   2.842
    2OCB    C20   55   1.644  -0.020   2.802
    2OCB     O6   56   1.563  -0.072   2.584
    2OCB    C21   57   1.602   0.022   2.674
    2OCB    C22   58   2.083   0.469   2.798
    2OCB    C23   59   1.951   0.443   2.834
    2OCB    C24   60   1.593   0.156   2.640
    2OCB    C25   61   1.647   0.254   2.727
    2OCB     O7   62   1.857   0.510   2.750
    2OCB     O8   63   1.665   0.380   2.676
    2OCB    C26   64   1.801   0.430   2.644
    2OCB    C27   65   1.692   0.080   2.883
    2OCB    C28   66   1.697   0.220   2.848
    2OCB    C29   67   2.007   0.263   2.988
    2OCB    C30   68   1.761   0.318   2.948
    2OCB    C31   69   1.910   0.349   2.930
    2OCB    C32   70   1.658  -0.154   2.520
    2OCB    C33   71   2.233   0.177   3.173
    2OCB    C34   72   2.231   0.306   3.253
    2OCB    C35   73   2.242   0.288   3.403
    2OCB     O9   74   2.143   0.275   3.471
    2OCB    C36   75   2.117  -0.309   3.057
    2OCB    C37   76   2.253  -0.312   3.128
    2OCB    C38   77   2.252  -0.354   3.270
    2OCB    O10   78   2.365  -0.367   3.322
    2OCB    C39   79   1.627  -0.200   2.992
    2OCB    C40   80   1.484  -0.159   3.038
    2OCB    C41   81   1.449  -0.205   3.176
    2OCB    O11   82   1.350  -0.271   3.200
    2OCB    C42   83   1.730   0.283   3.095
    2OCB    C43   84   1.577   0.268   3.139
    2OCB    C44   85   1.573   0.232   3.287
    2OCB    O12   86   1.560   0.119   3.331
    2OCB    C45   87   2.300  -0.284   2.460
    2OCB    C46   88   2.394  -0.318   2.196
    2OCB    C47   89   2.415  -0.215   2.417
    2OCB    C48   90   2.242  -0.374   2.370
    2OCB    C49   91   2.285  -0.387   2.239
    2OCB    C50   92   2.461  -0.235   2.287
    2OCB    C51   93   1.637  -0.172   2.368
    2OCB    C52   94   1.642  -0.194   2.088
    2OCB    C53   95   1.597  -0.064   2.296
    2OCB    C54   96   1.665  -0.293   2.307
    2OCB    C55   97   1.680  -0.306   2.165
    2OCB    C56   98   1.598  -0.079   2.154
    2OCB    C57   99   1.798   0.515   2.516
    2OCB    C58  100   1.809   0.648   2.274
    2OCB    C59  101   1.869   0.637   2.504
    2OCB    C60  102   1.730   0.465   2.403
    2OCB    C61  103   1.734   0.529   2.282
    2OCB    C62  104   1.875   0.697   2.386
    2OCB    C63  105   2.450   0.374   2.616
    2OCB    C64  106   2.574   0.487   2.390
    2OCB    C65  107   2.420   0.505   2.573
    2OCB    C66  108   2.543   0.300   2.554
    2OCB    C67  109   2.604   0.355   2.436
    2OCB    C68  110   2.478   0.559   2.454
    2OCB    O13  111   1.735  -0.424   2.104
    2OCB    O14  112   1.681   0.484   2.164
    2OCB    O15  113   1.970   0.799   2.371
    2OCB    O16  114   2.217  -0.478   2.158
    2OCB    O17  115   2.571  -0.176   2.240
    2OCB    O18  116   2.433   0.669   2.389
    2OCB    O19  117   2.679   0.281   2.346
    2OCB    C69  118   1.591   0.378   2.169
    2OCB    C70  119   1.397   0.171   2.163
    2OCB    C71  120   1.626   0.250   2.127
    2OCB    C72  121   1.467   0.397   2.220
    2OCB    C73  122   1.364   0.295   2.222
    2OCB    C74  123   1.526   0.152   2.125
    2OCB    O20  124   1.557   0.025   2.074
    2OCB    C75  125   2.086  -0.519   2.165
    2OCB    C76  126   1.827  -0.609   2.218
    2OCB    C77  127   2.066  -0.640   2.218
    2OCB    C78  128   1.976  -0.445   2.123
    2OCB    C79  129   1.845  -0.488   2.157
    2OCB    C80  130   1.938  -0.689   2.250
    2OCB    C81  131   2.089   0.796   2.437
    2OCB    C82  132   2.340   0.818   2.559
    2OCB    C83  133   2.099   0.853   2.556
    2OCB    C84  134   2.201   0.733   2.380
    2OCB    C85  135   2.326   0.741   2.444
    2OCB    C86  136   2.227   0.869   2.620
    2OCB    C87  137   2.233   0.939   2.759
    2OCB    O21  138   2.343   0.971   2.805
    2OCB    C88  139   2.972  -0.078   2.518
    2OCB    O22  140   2.971  -0.189   2.570
    2OCB    C89  141   1.906  -0.835   2.287
    2OCB    O23  142   1.787  -0.866   2.281
    2OCB    O24  143   2.354   0.296   3.458
    2OCB    O25  144   1.573   0.324   3.365
    2OCB    O26  145   1.524  -0.185   3.269
    2OCB    C90  146   1.224   0.319   2.266
    2OCB    O27  147   1.156   0.220   2.293
    2OCB    O28  148   3.067  -0.005   2.527
    2OCB    O29  149   2.133   0.984   2.813
    2OCB    O30  150   1.178   0.432   2.254
    2OCB    O31  151   1.993  -0.904   2.328
    2OCB    O32  152   2.151  -0.355   3.342
    2OCB    C91  153   2.644  -0.087   2.323
    2OCB    C92  154   2.819   0.104   2.427
    2OCB    C93  155   2.612   0.048   2.309
    2OCB    C94  156   2.766  -0.127   2.390
    2OCB    C95  157   2.848  -0.030   2.446
    2OCB    C96  158   2.701   0.145   2.364
    2OCB    C97  159   2.499   0.093   2.212
    2OCB    C98  160   1.999  -0.311   2.044
    2OCB    C99  161   1.768   0.215   2.073
    2OCB      C  162   2.181   0.663   2.248
    2OCB     H1  163   1.901  -0.179   2.961
    2OCB     H2  164   1.903  -0.381   2.510
    2OCB     H3  165   2.200  -0.350   2.870
    2OCB     H4  166   2.178  -0.169   2.581
    2OCB     H5  167   2.120  -0.040   3.030
    2OCB     H6  168   2.454  -0.006   2.662
    2OCB     H7  169   2.351   0.260   3.031
    2OCB     H8  170   2.274   0.265   2.673
    2OCB     H9  171   1.570  -0.225   2.792
    2OCB    H10  172   2.104   0.539   2.718
    2OCB    H11  173   1.540   0.186   2.550
    2OCB    H12  174   1.867   0.343   2.630
    2OCB    H13  175   1.731   0.047   2.979
    2OCB    H14  176   1.977   0.186   3.058
    2OCB    H15  177   1.696   0.405   2.936
    2OCB    H16  178   1.751  -0.096   2.525
    2OCB    H17  179   2.136   0.132   3.193
    2OCB    H18  180   2.311   0.113   3.217
    2OCB    H19  181   2.303   0.377   3.213
    2OCB    H20  182   2.134   0.353   3.235
    2OCB    H21  183   2.084  -0.413   3.054
    2OCB    H22  184   2.052  -0.246   3.118
    2OCB    H23  185   2.316  -0.385   3.078
    2OCB    H24  186   2.304  -0.216   3.121
    2OCB    H25  187   1.630  -0.308   3.003
    2OCB    H26  188   1.706  -0.153   3.052
    2OCB    H27  189   1.464  -0.052   3.028
    2OCB    H28  190   1.411  -0.207   2.972
    2OCB    H29  191   1.789   0.196   3.124
    2OCB    H30  192   1.772   0.367   3.151
    2OCB    H31  193   1.532   0.367   3.134
    2OCB    H32  194   1.518   0.210   3.067
    2OCB    H33  195   2.432  -0.342   2.098
    2OCB    H34  196   2.463  -0.139   2.478
    2OCB    H35  197   2.158  -0.437   2.395
    2OCB    H36  198   1.648  -0.195   1.979
    2OCB    H37  199   1.573   0.029   2.346
    2OCB    H38  200   1.687  -0.383   2.363
    2OCB    H39  201   1.820   0.692   2.175
    2OCB    H40  202   1.928   0.678   2.586
    2OCB    H41  203   1.670   0.375   2.409
    2OCB    H42  204   2.610   0.520   2.293
    2OCB    H43  205   2.356   0.566   2.635
    2OCB    H44  206   2.558   0.194   2.576
    2OCB    H45  207   1.323   0.093   2.149
    2OCB    H46  208   1.439   0.497   2.252
    2OCB    H47  209   1.727  -0.644   2.239
    2OCB    H48  210   2.155  -0.694   2.250
    2OCB    H49  211   2.438   0.817   2.607
    2OCB    H50  212   2.015   0.901   2.606
    2OCB    H51  213   2.876   0.175   2.487
    2OCB    H52  214   2.795  -0.232   2.386
    2OCB    H53  215   2.535   0.180   2.156
    2OCB    H54  216   2.474   0.016   2.139
    2OCB    H55  217   2.407   0.122   2.264
    2OCB    H56  218   2.092  -0.316   1.986
    2OCB    H57  219   1.920  -0.292   1.971
    2OCB    H58  220   2.001  -0.225   2.110
    2OCB    H59  221   1.833   0.294   2.110
    2OCB    H60  222   1.802   0.122   2.119
    2OCB    H61  223   1.750   0.217   1.965
    2OCB    H62  224   2.146   0.562   2.266
    2OCB    H63  225   2.103   0.716   2.192
    2OCB    H64  226   2.269   0.660   2.183
    3Na+    Na+  227   1.159   0.405   1.343
    4Na+    Na+  228   2.089   1.471   3.334
    5Na+    Na+  229   3.118   3.705   2.471
    6Na+    Na+  230   1.445   3.665   3.395
    7Na+    Na+  231   0.593   0.694   0.459
    8Na+    Na+  232   1.710   0.090   3.506
    9Na+    Na+  233   1.393   4.024   3.393
   10HOH      O  234   3.274   2.123   2.376
   10HOH     H1  235   3.350   2.130   2.318
   10HOH     H2  236   3.303   2.161   2.458
   11HOH      O  237   3.854   2.507   0.815
   11HOH     H1  238   3.782   2.485   0.873
   11HOH     H2  239   3.912   2.431   0.818
   12HOH      O  240   0.161   1.309   2.095
   12HOH     H1  241   0.141   1.402   2.110
   12HOH     H2  242   0.076   1.265   2.101
   13HOH      O  243   2.044   1.912   0.445
   13HOH     H1  244   1.987   1.877   0.514
   13HOH     H2  245   2.089   1.986   0.486
   14HOH      O  246   1.113   1.630   1.091
   14HOH     H1  247   1.152   1.716   1.104
   14HOH     H2  248   1.116   1.616   0.996
   15HOH      O  249   2.892   3.335   3.233
   15HOH     H1  250   2.880   3.347   3.139
   15HOH     H2  251   2.978   3.296   3.242
   16HOH      O  252   3.048   0.483   2.835
   16HOH     H1  253   3.047   0.438   2.751
   16HOH     H2  254   3.061   0.414   2.900
   17HOH      O  255   1.678   2.209   0.752
   17HOH     H1  256   1.603   2.269   0.749
   17HOH     H2  257   1.661   2.146   0.682
   18HOH      O  258   1.790   0.984   0.368
   18HOH     H1  259   1.779   0.936   0.287
   18HOH     H2  260   1.706   1.028   0.381
   19HOH      O  261   3.143   1.514   2.622
   19HOH     H1  262   3.130   1.515   2.717
   19HOH     H2  263   3.229   1.554   2.610
   20HOH      O  264   2.162   2.899   2.284
   20HOH     H1  265   2.100   2.969   2.266
   20HOH     H2  266   2.115   2.818   2.263
   21HOH      O  267   2.344   1.179   3.006
   21HOH     H1  268   2.392   1.240   2.949
   21HOH     H2  269   2.316   1.109   2.947
   22HOH      O  270   3.174   0.159   2.363
   22HOH     H1  271   3.124   0.095   2.414
   22HOH     H2  272   3.164   0.241   2.410
   23HOH      O  273   1.301   3.294   2.782
   23HOH     H1  274   1.344   3.367   2.828
   23HOH     H2  275   1.271   3.332   2.700
   24HOH      O  276   1.115   0.541   2.658
   24HOH     H1  277   1.204   0.510   2.640
   24HOH     H2  278   1.108   0.622   2.608
   25HOH      O  279   1.901   3.757   1.591
   25HOH     H1  280   1.951   3.755   1.509
   25HOH     H2  281   1.885   3.850   1.607
   26HOH      O  282   0.432   1.836   2.051
   26HOH     H1  283   0.459   1.860   1.962
   26HOH     H2  284   0.469   1.748   2.064
   27HOH      O  285   3.053   0.205   2.104
   27HOH     H1  286   3.101   0.188   2.185
   27HOH     H2  287   3.017   0.120   2.078
   28HOH      O  288   2.679   1.814   3.024
   28HOH     H1  289   2.628   1.742   3.061
   28HOH     H2  290   2.618   1.888   3.021
   29HOH      O  291   2.008   3.645   1.096
   29HOH     H1  292   2.103   3.649   1.099
   29HOH     H2  293   1.982   3.722   1.046
   30HOH      O  294  -0.023   2.639   3.412
   30HOH     H1  295   0.065   2.601   3.413
   30HOH     H2  296  -0.018   2.707   3.344
   31HOH      O  297   1.174   3.989   2.733
   31HOH     H1  298   1.152   3.902   2.702
   31HOH     H2  299   1.147   4.048   2.662
   32HOH      O  300   0.123   2.971   1.169
   32HOH     H1  301   0.111   2.876   1.164
   32HOH     H2  302   0.212   2.985   1.138
   33HOH      O  303   1.049   2.898   3.204
   33HOH     H1  304   1.088   2.973   3.160
   33HOH     H2  305   1.065   2.824   3.145
   34HOH      O  306   2.318   3.094   2.440
   34HOH     H1  307   2.346   3.002   2.441
   34HOH     H2  308   2.230   3.091   2.402
   35HOH      O  309   0.378   1.309   1.496
   35HOH     H1  310   0.290   1.298   1.531
   35HOH     H2  311   0.365   1.330   1.403
   36HOH      O  312   2.910   0.872   0.269
   36HOH     H1  313   2.836   0.823   0.306
   36HOH     H2  314   2.883   0.891   0.179
   37HOH      O  315   0.045   1.355   3.238
   37HOH     H1  316   0.092   1.377   3.158
   37HOH     H2  317   0.102   1.290   3.282
   38HOH      O  318   2.882   0.153   0.911
   38HOH     H1  319   2.963   0.191   0.876
   38HOH     H2  320   2.816   0.172   0.843
   39HOH      O  321   1.606   0.707   3.749
   39HOH     H1  322   1.539   0.674   3.809
   39HOH     H2  323   1.565   0.702   3.663
   40HOH      O  324   0.211   2.847   1.598
   40HOH     H1  325   0.208   2.881   1.687
   40HOH     H2  326   0.132   2.794   1.589
   41HOH      O  327   2.738   3.117   1.036
   41HOH     H1  328   2.745   3.177   1.110
   41HOH     H2  329   2.810   3.055   1.049
   42HOH      O  330   1.073   1.650   3.529
   42HOH     H1  331   1.106   1.643   3.439
   42HOH     H2  332   1.014   1.574   3.539
   43HOH      O  333   3.605   1.436   3.575
   43HOH     H1  334   3.659   1.462   3.500
   43HOH     H2  335   3.535   1.502   3.578
   44HOH      O  336   0.899   0.399   0.947
   44HOH     H1  337   0.827   0.425   0.889
   44HOH     H2  338   0.859   0.397   1.034
   45HOH      O  339   2.889   3.839   3.741
   45HOH     H1  340   2.928   3.881   3.664
   45HOH     H2  341   2.836   3.908   3.781
   46HOH      O  342   3.648   1.269   1.180
   46HOH     H1  343   3.555   1.254   1.158
   46HOH     H2  344   3.678   1.332   1.115
   47HOH      O  345   1.722   0.156   1.043
   47HOH     H1  346   1.690   0.072   1.011
   47HOH     H2  347   1.806   0.169   0.998
   48HOH      O  348   3.736   3.920   0.909
   48HOH     H1  349   3.754   3.949   0.999
   48HOH     H2  350   3.822   3.915   0.868
   49HOH      O  351   0.362   3.357   3.077
   49HOH     H1  352   0.436   3.416   3.069
   49HOH     H2  353   0.396   3.281   3.124
   50HOH      O  354   2.335   1.025   3.228
   50HOH     H1  355   2.331   1.068   3.142
   50HOH     H2  356   2.421   0.984   3.230
   51HOH      O  357   2.249   3.355   2.523
   51HOH     H1  358   2.248   3.268   2.484
   51HOH     H2  359   2.341   3.370   2.546
   52HOH      O  360   0.080   2.299   2.547
   52HOH     H1  361   0.072   2.212   2.585
   52HOH     H2  362   0.147   2.291   2.480
   53HOH      O  363   0.713   3.529   1.420
   53HOH     H1  364   0.777   3.513   1.490
   53HOH     H2  365   0.749   3.483   1.344
   54HOH      O  366   0.431   3.710   2.041
   54HOH     H1  367   0.500   3.763   2.001
   54HOH     H2  368   0.376   3.773   2.087
   55HOH      O  369   3.691   1.997   0.535
   55HOH     H1  370   3.636   1.919   0.532
   55HOH     H2  371   3.729   2.003   0.447
   56HOH      O  372   0.910   1.151   2.055
   56HOH     H1  373   0.968   1.215   2.096
   56HOH     H2  374   0.825   1.165   2.096
   57HOH      O  375   2.041   3.683   0.510
   57HOH     H1  376   1.959   3.670   0.464
   57HOH     H2  377   2.047   3.610   0.572
   58HOH      O  378   2.743   0.950   0.053
   58HOH     H1  379   2.767   0.928  -0.037
   58HOH     H2  380   2.757   1.045   0.059
   59HOH      O  381   1.343   0.671   1.930
   59HOH     H1  382   1.436   0.693   1.940
   59HOH     H2  383   1.299   0.756   1.924
   60HOH      O  384   0.464   0.755   2.666
   60HOH     H1  385   0.480   0.664   2.692
   60HOH     H2  386   0.369   0.764   2.667
   61HOH      O  387   2.480   2.651   0.757
   61HOH     H1  388   2.545   2.712   0.721
   61HOH     H2  389   2.531   2.574   0.783
   62HOH      O  390   0.189   3.608   1.875
   62HOH     H1  391   0.214   3.518   1.893
   62HOH     H2  392   0.268   3.659   1.894
   63HOH      O  393   3.911   3.647   3.553
   63HOH     H1  394   3.842   3.583   3.536
   63HOH     H2  395   3.964   3.607   3.622
   64HOH      O  396   3.754   1.337   2.253
   64HOH     H1  397   3.721   1.283   2.325
   64HOH     H2  398   3.676   1.379   2.216
   65HOH      O  399   0.413   2.351   2.655
   65HOH     H1  400   0.395   2.445   2.649
   65HOH     H2  401   0.381   2.315   2.572
   66HOH      O  402   3.775   2.024   2.322
   66HOH     H1  403   3.824   1.950   2.285
   66HOH     H2  404   3.769   2.004   2.416
   67HOH      O  405   0.498   0.074   2.227
   67HOH     H1  406   0.572   0.025   2.262
   67HOH     H2  407   0.435   0.006   2.202
   68HOH      O  408   3.342   4.014   0.352
   68HOH     H1  409   3.376   4.103   0.347
   68HOH     H2  410   3.344   3.983   0.262
   69HOH      O  411   2.868   0.249   0.482
   69HOH     H1  412   2.796   0.186   0.488
   69HOH     H2  413   2.865   0.297   0.564
   70HOH      O  414   0.120   3.361   3.577
   70HOH     H1  415   0.163   3.315   3.649
   70HOH     H2  416   0.185   3.426   3.548
   71HOH      O  417   3.068   1.213   2.846
   71HOH     H1  418   3.028   1.261   2.773
   71HOH     H2  419   3.121   1.279   2.892
   72HOH      O  420   2.119   1.359   3.764
   72HOH     H1  421   2.139   1.290   3.828
   72HOH     H2  422   2.099   1.311   3.684
   73HOH      O  423   0.322   3.744   3.953
   73HOH     H1  424   0.262   3.806   3.910
   73HOH     H2  425   0.266   3.672   3.981
   74HOH      O  426   3.537   0.641   1.188
   74HOH     H1  427   3.452   0.612   1.221
   74HOH     H2  428   3.528   0.638   1.092
   75HOH      O  429   2.940   1.735   3.165
   75HOH     H1  430   2.859   1.725   3.115
   75HOH     H2  431   2.937   1.825   3.197
   76HOH      O  432   0.179   0.445   2.050
   76HOH     H1  433   0.203   0.510   1.984
   76HOH     H2  434   0.139   0.374   2.000
   77HOH      O  435   2.834   0.752   3.625
   77HOH     H1  436   2.816   0.686   3.691
   77HOH     H2  437   2.809   0.710   3.542
   78HOH      O  438   2.335   0.930   0.366
   78HOH     H1  439   2.249   0.969   0.347
   78HOH     H2  440   2.373   0.913   0.280
   79HOH      O  441   2.086   2.283   2.725
   79HOH     H1  442   2.087   2.367   2.678
   79HOH     H2  443   2.053   2.220   2.660
   80HOH      O  444   0.660   0.650   0.694
   80HOH     H1  445   0.646   0.570   0.743
   80HOH     H2  446   0.755   0.662   0.693
   81HOH      O  447   1.849   2.327   0.385
   81HOH     H1  448   1.907   2.330   0.462
   81HOH     H2  449   1.909   2.332   0.310
   82HOH      O  450   2.001   1.397   0.731
   82HOH     H1  451   2.092   1.397   0.759
   82HOH     H2  452   2.004   1.375   0.638
   83HOH      O  453   2.391   3.978   1.763
   83HOH     H1  454   2.357   4.006   1.848
   83HOH     H2  455   2.315   3.950   1.714
   84HOH      O  456   0.517   0.439   2.972
   84HOH     H1  457   0.573   0.478   2.906
   84HOH     H2  458   0.469   0.513   3.009
   85HOH      O  459   0.175   1.816   2.183
   85HOH     H1  460   0.155   1.900   2.225
   85HOH     H2  461   0.255   1.833   2.133
   86HOH      O  462   2.744   2.871   0.405
   86HOH     H1  463   2.775   2.815   0.334
   86HOH     H2  464   2.670   2.919   0.367
   87HOH      O  465   3.048   1.977   3.383
   87HOH     H1  466   3.045   2.006   3.291
   87HOH     H2  467   3.133   2.008   3.415
   88HOH      O  468   1.730   0.725   1.024
   88HOH     H1  469   1.682   0.645   1.002
   88HOH     H2  470   1.759   0.712   1.114
   89HOH      O  471   1.136   1.375   1.205
   89HOH     H1  472   1.136   1.470   1.194
   89HOH     H2  473   1.043   1.351   1.203
   90HOH      O  474   0.256   0.689   0.906
   90HOH     H1  475   0.263   0.637   0.826
   90HOH     H2  476   0.323   0.654   0.963
   91HOH      O  477   1.739   0.858   1.742
   91HOH     H1  478   1.673   0.835   1.807
   91HOH     H2  479   1.802   0.786   1.745
   92HOH      O  480   2.813   1.819   1.151
   92HOH     H1  481   2.872   1.823   1.227
   92HOH     H2  482   2.871   1.803   1.077
   93HOH      O  483   1.007   2.156   0.976
   93HOH     H1  484   0.966   2.205   0.905
   93HOH     H2  485   0.934   2.119   1.026
   94HOH      O  486   0.230   2.215   0.900
   94HOH     H1  487   0.145   2.239   0.936
   94HOH     H2  488   0.283   2.191   0.976
   95HOH      O  489   2.566   3.410   2.001
   95HOH     H1  490   2.617   3.491   2.007
   95HOH     H2  491   2.541   3.391   2.092
   96HOH      O  492   3.089   1.955   0.085
   96HOH     H1  493   3.045   2.030   0.124
   96HOH     H2  494   3.175   1.953   0.128
   97HOH      O  495   2.318   1.656   0.138
   97HOH     H1  496   2.402   1.611   0.141
   97HOH     H2  497   2.318   1.713   0.216
   98HOH      O  498   2.097   1.945   1.198
   98HOH     H1  499   2.002   1.938   1.207
   98HOH     H2  500   2.124   1.857   1.170
   99HOH      O  501   3.260   2.250   1.633
   99HOH     H1  502   3.248   2.160   1.665
   99HOH     H2  503   3.280   2.240   1.540
  100HOH      O  504   0.527   0.955   2.165
  100HOH     H1  505   0.604   0.979   2.217
  100HOH     H2  506   0.456   1.010   2.198
  101HOH      O  507   3.899   2.221   0.804
  101HOH     H1  508   3.972   2.208   0.743
  101HOH     H2  509   3.836   2.274   0.755
  102HOH      O  510   2.947   2.188   0.182
  102HOH     H1  511   2.877   2.176   0.118
  102HOH     H2  512   2.954   2.283   0.192
  103HOH      O  513   2.323   3.359   1.260
  103HOH     H1  514   2.253   3.298   1.239
  103HOH     H2  515   2.358   3.326   1.343
  104HOH      O  516   1.246   3.216   0.331
  104HOH     H1  517   1.277   3.257   0.412
  104HOH     H2  518   1.239   3.288   0.268
  105HOH      O  519   3.990   1.340   1.162
  105HOH     H1  520   3.923   1.396   1.202
  105HOH     H2  521   3.944   1.295   1.091
  106HOH      O  522   0.944   1.412   3.565
  106HOH     H1  523   0.941   1.348   3.494
  106HOH     H2  524   0.949   1.359   3.644
  107HOH      O  525   1.696   2.384   0.117
  107HOH     H1  526   1.736   2.314   0.168
  107HOH     H2  527   1.769   2.444   0.098
  108HOH      O  528   1.653   1.694   3.368
  108HOH     H1  529   1.647   1.789   3.381
  108HOH     H2  530   1.597   1.677   3.292
  109HOH      O  531   0.048   3.263   0.437
  109HOH     H1  532   0.100   3.311   0.502
  109HOH     H2  533  -0.022   3.222   0.488
  110HOH      O  534   1.504   3.469   2.849
  110HOH     H1  535   1.498   3.543   2.789
  110HOH     H2  536   1.597   3.447   2.851
  111HOH      O  537   3.246   3.616   1.746
  111HOH     H1  538   3.158   3.645   1.771
  111HOH     H2  539   3.279   3.685   1.690
  112HOH      O  540   2.718   0.824   0.595
  112HOH     H1  541   2.712   0.790   0.506
  112HOH     H2  542   2.681   0.912   0.589
  113HOH      O  543   2.528   3.117   0.867
  113HOH     H1  544   2.538   3.179   0.795
  113HOH     H2  545   2.600   3.137   0.927
  114HOH      O  546   1.242   1.606   2.799
  114HOH     H1  547   1.153   1.578   2.822
  114HOH     H2  548   1.273   1.540   2.737
  115HOH      O  549   1.567   1.446   1.312
  115HOH     H1  550   1.610   1.508   1.371
  115HOH     H2  551   1.535   1.376   1.369
  116HOH      O  552   1.396   3.206   0.836
  116HOH     H1  553   1.376   3.235   0.925
  116HOH     H2  554   1.490   3.223   0.826
  117HOH      O  555   1.092   0.113   2.527
  117HOH     H1  556   1.002   0.114   2.560
  117HOH     H2  557   1.085   0.151   2.439
  118HOH      O  558   3.892   3.166   2.188
  118HOH     H1  559   3.905   3.234   2.254
  118HOH     H2  560   3.817   3.196   2.136
  119HOH      O  561   0.425   3.712   2.784
  119HOH     H1  562   0.478   3.685   2.709
  119HOH     H2  563   0.471   3.788   2.820
  120HOH      O  564   1.239   2.487   0.559
  120HOH     H1  565   1.216   2.483   0.466
  120HOH     H2  566   1.281   2.573   0.570
  121HOH      O  567   3.456   3.012   3.442
  121HOH     H1  568   3.405   3.014   3.524
  121HOH     H2  569   3.527   3.075   3.456
  122HOH      O  570   0.503   2.425   3.278
  122HOH     H1  571   0.470   2.448   3.191
  122HOH     H2  572   0.504   2.329   3.278
  123HOH      O  573   3.879   0.287   3.938
  123HOH     H1  574   3.846   0.295   3.848
  123HOH     H2  575   3.930   0.207   3.938
  124HOH      O  576   2.030   3.167   1.984
  124HOH     H1  577   2.035   3.083   1.937
  124HOH     H2  578   2.120   3.199   1.985
  125HOH      O  579   3.878   1.207   0.942
  125HOH     H1  580   3.792   1.166   0.942
  125HOH     H2  581   3.863   1.292   0.900
  126HOH      O  582   1.008   3.998   3.637
  126HOH     H1  583   0.954   3.975   3.713
  126HOH     H2  584   0.953   3.979   3.561
  127HOH      O  585   3.943   1.405   0.694
  127HOH     H1  586   3.998   1.477   0.726
  127HOH     H2  587   3.864   1.449   0.662
  128HOH      O  588   2.114   0.845   0.123
  128HOH     H1  589   2.209   0.855   0.115
  128HOH     H2  590   2.091   0.894   0.202
  129HOH      O  591   2.187   1.744   2.106
  129HOH     H1  592   2.226   1.801   2.040
  129HOH     H2  593   2.207   1.656   2.076
  130HOH      O  594   2.985   3.939   2.076
  130HOH     H1  595   3.010   3.891   1.998
  130HOH     H2  596   2.889   3.939   2.076
  131HOH      O  597   3.119   1.058   1.290
  131HOH     H1  598   3.079   1.128   1.237
  131HOH     H2  599   3.124   0.983   1.231
  132HOH      O  600   1.884   1.315   1.837
  132HOH     H1  601   1.959   1.342   1.890
  132HOH     H2  602   1.919   1.305   1.749
  133HOH      O  603   2.312   2.462   3.069
  133HOH     H1  604   2.230   2.414   3.081
  133HOH     H2  605   2.289   2.554   3.085
  134HOH      O  606   1.578   2.930   0.633
  134HOH     H1  607   1.589   2.919   0.538
  134HOH     H2  608   1.660   2.970   0.662
  135HOH      O  609   0.740   1.840   3.780
  135HOH     H1  610   0.682   1.770   3.808
  135HOH     H2  611   0.751   1.827   3.686
  136HOH      O  612   0.052   2.910   0.491
  136HOH     H1  613   0.028   2.954   0.572
  136HOH     H2  614   0.001   2.828   0.493
  137HOH      O  615   2.290   2.898   1.254
  137HOH     H1  616   2.249   2.845   1.186
  137HOH     H2  617   2.375   2.923   1.218
  138HOH      O  618   3.090   1.330   3.446
  138HOH     H1  619   3.031   1.381   3.502
  138HOH     H2  620   3.103   1.385   3.369
  139HOH      O  621   2.498   3.158   1.867
  139HOH     H1  622   2.551   3.236   1.887
  139HOH     H2  623   2.413   3.176   1.906
  140HOH      O  624   3.178   2.370   2.231
  140HOH     H1  625   3.195   2.290   2.280
  140HOH     H2  626   3.257   2.423   2.243
  141HOH      O  627   0.171   2.070   2.242
  141HOH     H1  628   0.089   2.108   2.274
  141HOH     H2  629   0.196   2.125   2.168
  142HOH      O  630   0.118   0.137   0.346
  142HOH     H1  631   0.159   0.200   0.405
  142HOH     H2  632   0.035   0.114   0.389
  143HOH      O  633   0.398   3.971   3.337
  143HOH     H1  634   0.340   4.002   3.268
  143HOH     H2  635   0.412   3.878   3.317
  144HOH      O  636   1.606   1.120   3.122
  144HOH     H1  637   1.684   1.163   3.087
  144HOH     H2  638   1.578   1.175   3.195
  145HOH      O  639   2.079   2.230   3.307
  145HOH     H1  640   2.061   2.200   3.218
  145HOH     H2  641   1.996   2.220   3.353
  146HOH      O  642   3.081   0.748   2.831
  146HOH     H1  643   3.062   0.654   2.834
  146HOH     H2  644   2.997   0.791   2.845
  147HOH      O  645   3.960   0.541   2.203
  147HOH     H1  646   3.930   0.560   2.114
  147HOH     H2  647   4.039   0.489   2.190
  148HOH      O  648   0.977   3.355   2.046
  148HOH     H1  649   0.961   3.315   1.961
  148HOH     H2  650   0.948   3.290   2.109
  149HOH      O  651   1.212   0.904   2.338
  149HOH     H1  652   1.194   0.906   2.244
  149HOH     H2  653   1.307   0.913   2.345
  150HOH      O  654   2.781   3.253   2.893
  150HOH     H1  655   2.732   3.172   2.902
  150HOH     H2  656   2.717   3.322   2.915
  151HOH      O  657   0.835   2.783   2.822
  151HOH     H1  658   0.771   2.730   2.869
  151HOH     H2  659   0.785   2.857   2.787
  152HOH      O  660   1.348   3.450   0.237
  152HOH     H1  661   1.272   3.506   0.224
  152HOH     H2  662   1.381   3.474   0.323
  153HOH      O  663   3.071   0.250   2.669
  153HOH     H1  664   3.123   0.241   2.749
  153HOH     H2  665   3.071   0.162   2.631
  154HOH      O  666   3.013   1.515   1.683
  154HOH     H1  667   2.942   1.455   1.658
  154HOH     H2  668   2.972   1.601   1.685
  155HOH      O  669   1.145   3.251   3.686
  155HOH     H1  670   1.118   3.254   3.594
  155HOH     H2  671   1.062   3.255   3.734
  156HOH      O  672   2.329   2.155   2.061
  156HOH     H1  673   2.407   2.100   2.051
  156HOH     H2  674   2.257   2.099   2.032
  157HOH      O  675   4.004   2.149   0.261
  157HOH     H1  676   3.925   2.100   0.238
  157HOH     H2  677   4.068   2.121   0.196
  158HOH      O  678   3.949   2.658   3.843
  158HOH     H1  679   4.007   2.720   3.887
  158HOH     H2  680   3.862   2.679   3.878
  159HOH      O  681   2.057   0.028   2.685
  159HOH     H1  682   2.029   0.109   2.728
  159HOH     H2  683   2.127  -0.005   2.741
  160HOH      O  684   2.598   1.271   0.719
  160HOH     H1  685   2.665   1.304   0.658
  160HOH     H2  686   2.524   1.248   0.662
  161HOH      O  687   1.883   1.296   0.465
  161HOH     H1  688   1.810   1.264   0.413
  161HOH     H2  689   1.893   1.388   0.440
  162HOH      O  690   3.074   2.480   2.700
  162HOH     H1  691   3.152   2.534   2.703
  162HOH     H2  692   3.051   2.476   2.607
  163HOH      O  693   0.339   0.704   0.490
  163HOH     H1  694   0.273   0.709   0.420
  163HOH     H2  695   0.291   0.670   0.566
  164HOH      O  696   0.813   0.504   1.710
  164HOH     H1  697   0.755   0.455   1.652
  164HOH     H2  698   0.854   0.436   1.764
  165HOH      O  699   1.646   2.868   4.049
  165HOH     H1  700   1.668   2.867   3.956
  165HOH     H2  701   1.602   2.785   4.065
  166HOH      O  702   2.628   1.228   1.337
  166HOH     H1  703   2.607   1.213   1.244
  166HOH     H2  704   2.700   1.291   1.335
  167HOH      O  705   3.529   2.638   2.488
  167HOH     H1  706   3.596   2.683   2.539
  167HOH     H2  707   3.483   2.583   2.552
  168HOH      O  708   3.475   0.068   3.970
  168HOH     H1  709   3.510  -0.019   3.952
  168HOH     H2  710   3.512   0.123   3.901
  169HOH      O  711   3.115   1.865   2.627
  169HOH     H1  712   3.065   1.903   2.699
  169HOH     H2  713   3.050   1.825   2.570
  170HOH      O  714   1.371   0.581   3.102
  170HOH     H1  715   1.465   0.602   3.102
  170HOH     H2  716   1.351   0.562   3.193
  171HOH      O  717   1.539   2.625   0.095
  171HOH     H1  718   1.468   2.572   0.057
  171HOH     H2  719   1.590   2.562   0.146
  172HOH      O  720   2.665   3.011   2.989
  172HOH     H1  721   2.604   3.067   3.038
  172HOH     H2  722   2.610   2.939   2.957
  173HOH      O  723   1.564   1.733   0.279
  173HOH     H1  724   1.493   1.790   0.308
  173HOH     H2  725   1.629   1.737   0.350
  174HOH      O  726   2.901   1.828   2.444
  174HOH     H1  727   2.832   1.846   2.508
  174HOH     H2  728   2.942   1.913   2.428
  175HOH      O  729   2.010   1.190   0.135
  175HOH     H1  730   1.935   1.134   0.114
  175HOH     H2  731   2.066   1.184   0.057
  176HOH      O  732   4.017   1.572   1.370
  176HOH     H1  733   3.992   1.609   1.285
  176HOH     H2  734   3.933   1.556   1.414
  177HOH      O  735   2.144   3.255   2.869
  177HOH     H1  736   2.162   3.169   2.830
  177HOH     H2  737   2.086   3.298   2.806
  178HOH      O  738   2.857   1.193   1.781
  178HOH     H1  739   2.774   1.235   1.803
  178HOH     H2  740   2.839   1.146   1.700
  179HOH      O  741   0.746   1.825   2.198
  179HOH     H1  742   0.790   1.819   2.113
  179HOH     H2  743   0.655   1.801   2.180
  180HOH      O  744   4.019   2.363   3.869
  180HOH     H1  745   4.040   2.457   3.868
  180HOH     H2  746   4.025   2.336   3.778
  181HOH      O  747   3.816   0.069   1.993
  181HOH     H1  748   3.744   0.097   1.936
  181HOH     H2  749   3.773   0.041   2.074
  182HOH      O  750   3.211   1.531   1.880
  182HOH     H1  751   3.256   1.447   1.890
  182HOH     H2  752   3.136   1.512   1.824
  183HOH      O  753   0.969   2.706   3.418
  183HOH     H1  754   1.009   2.777   3.368
  183HOH     H2  755   0.880   2.698   3.381
  184HOH      O  756   3.477   2.766   2.789
  184HOH     H1  757   3.561   2.789   2.830
  184HOH     H2  758   3.498   2.759   2.696
  185HOH      O  759   0.415   2.650   0.968
  185HOH     H1  760   0.463   2.718   1.015
  185HOH     H2  761   0.459   2.568   0.990
  186HOH      O  762   3.034   1.420   0.689
  186HOH     H1  763   2.980   1.471   0.629
  186HOH     H2  764   2.997   1.332   0.685
  187HOH      O  765   1.585   0.270   0.181
  187HOH     H1  766   1.542   0.219   0.250
  187HOH     H2  767   1.516   0.327   0.146
  188HOH      O  768   3.710   0.041   0.437
  188HOH     H1  769   3.684  -0.051   0.445
  188HOH     H2  770   3.687   0.065   0.348
  189HOH      O  771   0.832   2.113   2.660
  189HOH     H1  772   0.781   2.147   2.586
  189HOH     H2  773   0.858   2.025   2.632
  190HOH      O  774   2.767   1.673   3.981
  190HOH     H1  775   2.784   1.762   3.948
  190HOH     H2  776   2.841   1.622   3.950
  191HOH      O  777   2.733   3.049   3.400
  191HOH     H1  778   2.737   2.994   3.322
  191HOH     H2  779   2.720   3.138   3.368
  192HOH      O  780   3.322   0.315   0.775
  192HOH     H1  781   3.395   0.286   0.829
  192HOH     H2  782   3.289   0.235   0.734
  193HOH      O  783   0.223   1.851   3.122
  193HOH     H1  784   0.193   1.936   3.090
  193HOH     H2  785   0.317   1.851   3.105
  194HOH      O  786   1.417   2.646   1.452
  194HOH     H1  787   1.332   2.676   1.420
  194HOH     H2  788   1.454   2.723   1.496
  195HOH      O  789   4.035   1.726   1.873
  195HOH     H1  790   4.082   1.807   1.894
  195HOH     H2  791   3.998   1.742   1.786
  196HOH      O  792   3.399   2.419   3.467
  196HOH     H1  793   3.416   2.361   3.541
  196HOH     H2  794   3.447   2.499   3.489
  197HOH      O  795   1.709   2.907   3.797
  197HOH     H1  796   1.733   2.998   3.777
  197HOH     H2  797   1.697   2.866   3.712
  198HOH      O  798   3.773   2.954   0.083
  198HOH     H1  799   3.741   2.962  -0.007
  198HOH     H2  800   3.862   2.920   0.073
  199HOH      O  801   3.070   2.924   0.123
  199HOH     H1  802   3.111   2.907   0.038
  199HOH     H2  803   3.141   2.951   0.180
  200HOH      O  804   0.752   3.057   1.179
  200HOH     H1  805   0.714   3.145   1.175
  200HOH     H2  806   0.732   3.018   1.094
  201HOH      O  807   2.653   0.134   1.393
  201HOH     H1  808   2.688   0.094   1.313
  201HOH     H2  809   2.589   0.070   1.425
  202HOH      O  810  -0.023   3.937   0.034
  202HOH     H1  811  -0.035   3.847   0.062
  202HOH     H2  812   0.062   3.962   0.071
  203HOH      O  813   3.779   1.023   2.286
  203HOH     H1  814   3.726   1.047   2.362
  203HOH     H2  815   3.793   0.929   2.297
  204HOH      O  816   0.826   1.442   1.472
  204HOH     H1  817   0.917   1.436   1.504
  204HOH     H2  818   0.796   1.528   1.501
  205HOH      O  819   2.510   1.015   2.167
  205HOH     H1  820   2.583   0.986   2.222
  205HOH     H2  821   2.552   1.056   2.091
  206HOH      O  822   3.138   3.849   2.289
  206HOH     H1  823   3.222   3.836   2.244
  206HOH     H2  824   3.090   3.909   2.232
  207HOH      O  825   3.825   2.794   0.580
  207HOH     H1  826   3.761   2.862   0.558
  207HOH     H2  827   3.772   2.721   0.610
  208HOH      O  828   3.230   1.444   0.189
  208HOH     H1  829   3.275   1.427   0.106
  208HOH     H2  830   3.250   1.367   0.243
  209HOH      O  831   3.688   2.279   1.546
  209HOH     H1  832   3.626   2.345   1.576
  209HOH     H2  833   3.700   2.221   1.622
  210HOH      O  834   3.934   0.936   1.268
  210HOH     H1  835   3.888   0.999   1.324
  210HOH     H2  836   3.898   0.951   1.181
  211HOH      O  837   2.617   1.842   3.524
  211HOH     H1  838   2.609   1.807   3.612
  211HOH     H2  839   2.690   1.903   3.529
  212HOH      O  840   0.178   3.469   3.248
  212HOH     H1  841   0.246   3.409   3.218
  212HOH     H2  842   0.113   3.412   3.290
  213HOH      O  843   2.217   1.730   1.592
  213HOH     H1  844   2.294   1.674   1.584
  213HOH     H2  845   2.252   1.819   1.589
  214HOH      O  846   0.555   2.895   3.803
  214HOH     H1  847   0.564   2.895   3.708
  214HOH     H2  848   0.552   2.802   3.826
  215HOH      O  849   1.919   1.860   2.658
  215HOH     H1  850   1.870   1.809   2.593
  215HOH     H2  851   2.002   1.814   2.667
  216HOH      O  852   3.196   3.215   0.763
  216HOH     H1  853   3.125   3.279   0.759
  216HOH     H2  854   3.164   3.148   0.824
  217HOH      O  855   0.930   3.273   0.385
  217HOH     H1  856   0.987   3.201   0.359
  217HOH     H2  857   0.923   3.264   0.480
  218HOH      O  858   1.202   1.001   3.582
  218HOH     H1  859   1.224   1.014   3.490
  218HOH     H2  860   1.246   0.920   3.606
  219HOH      O  861   1.973   0.906   3.921
  219HOH     H1  862   2.024   0.887   3.999
  219HOH     H2  863   1.951   0.820   3.884
  220HOH      O  864   2.001   2.344   1.473
  220HOH     H1  865   2.046   2.273   1.428
  220HOH     H2  866   2.071   2.395   1.515
  221HOH      O  867   2.731   0.282   1.905
  221HOH     H1  868   2.695   0.354   1.958
  221HOH     H2  869   2.825   0.301   1.901
  222HOH      O  870   1.196   0.572   1.599
  222HOH     H1  871   1.140   0.526   1.662
  222HOH     H2  872   1.240   0.639   1.651
  223HOH      O  873   0.373   1.034   0.333
  223HOH     H1  874   0.405   1.117   0.369
  223HOH     H2  875   0.328   0.992   0.406
  224HOH      O  876   3.827   2.521   0.369
  224HOH     H1  877   3.877   2.477   0.300
  224HOH     H2  878   3.797   2.602   0.329
  225HOH      O  879   3.496   2.343   3.716
  225HOH     H1  880   3.574   2.385   3.751
  225HOH     H2  881   3.456   2.300   3.791
  226HOH      O  882   3.450   0.366   2.499
  226HOH     H1  883   3.528   0.420   2.483
  226HOH     H2  884   3.427   0.331   2.412
  227HOH      O  885   0.136   2.635   2.996
  227HOH     H1  886   0.051   2.607   3.029
  227HOH     H2  887   0.153   2.577   2.922
  228HOH      O  888   1.577   2.021   0.570
  228HOH     H1  889   1.624   1.937   0.569
  228HOH     H2  890   1.576   2.049   0.478
  229HOH      O  891   3.814   2.468   2.255
  229HOH     H1  892   3.726   2.445   2.283
  229HOH     H2  893   3.869   2.394   2.282
  230HOH      O  894   1.083   0.880   1.548
  230HOH     H1  895   1.012   0.821   1.524
  230HOH     H2  896   1.057   0.965   1.511
  231HOH      O  897   2.128   2.575   3.739
  231HOH     H1  898   2.158   2.659   3.706
  231HOH     H2  899   2.036   2.571   3.713
  232HOH      O  900   1.174   3.669   2.852
  232HOH     H1  901   1.224   3.682   2.772
  232HOH     H2  902   1.236   3.687   2.923
  233HOH      O  903   0.876   3.955   1.740
  233HOH     H1  904   0.880   4.031   1.682
  233HOH     H2  905   0.958   3.909   1.725
  234HOH      O  906   2.782   0.321   2.849
  234HOH     H1  907   2.687   0.307   2.849
  234HOH     H2  908   2.792   0.415   2.863
  235HOH      O  909   1.420   1.572   0.529
  235HOH     H1  910   1.368   1.608   0.601
  235HOH     H2  911   1.457   1.649   0.486
  236HOH      O  912   2.830   0.772   3.216
  236HOH     H1  913   2.771   0.711   3.261
  236HOH     H2  914   2.904   0.718   3.188
  237HOH      O  915   0.142   0.935   0.109
  237HOH     H1  916   0.074   0.966   0.049
  237HOH     H2  917   0.150   1.005   0.174
  238HOH      O  918   0.098   3.935   3.837
  238HOH     H1  919   0.062   3.929   3.926
  238HOH     H2  920   0.033   3.985   3.788
  239HOH      O  921   2.507   0.546   0.505
  239HOH     H1  922   2.533   0.511   0.419
  239HOH     H2  923   2.439   0.486   0.535
  240HOH      O  924   3.501   0.913   0.242
  240HOH     H1  925   3.463   0.825   0.241
  240HOH     H2  926   3.570   0.910   0.176
  241HOH      O  927   3.313   1.827   2.968
  241HOH     H1  928   3.391   1.791   3.010
  241HOH     H2  929   3.308   1.782   2.883
  242HOH      O  930   1.524   2.424   1.567
  242HOH     H1  931   1.469   2.420   1.645
  242HOH     H2  932   1.479   2.485   1.509
  243HOH      O  933   2.532   0.231   0.521
  243HOH     H1  934   2.500   0.252   0.434
  243HOH     H2  935   2.546   0.136   0.520
  244HOH      O  936   1.845   2.972   1.843
  244HOH     H1  937   1.806   3.030   1.909
  244HOH     H2  938   1.847   2.886   1.884
  245HOH      O  939   0.488   0.605   3.324
  245HOH     H1  940   0.450   0.628   3.239
  245HOH     H2  941   0.542   0.681   3.346
  246HOH      O  942   3.347   0.098   1.377
  246HOH     H1  943   3.266   0.080   1.424
  246HOH     H2  944   3.357   0.025   1.316
  247HOH      O  945   1.270   2.195   1.001
  247HOH     H1  946   1.256   2.279   1.046
  247HOH     H2  947   1.182   2.158   0.992
  248HOH      O  948   2.915   0.936   1.461
  248HOH     H1  949   2.981   0.949   1.393
  248HOH     H2  950   2.954   0.872   1.521
  249HOH      O  951   2.739   1.887   2.646
  249HOH     H1  952   2.654   1.926   2.666
  249HOH     H2  953   2.777   1.868   2.731
  250HOH      O  954   1.737   2.136   3.105
  250HOH     H1  955   1.702   2.091   3.028
  250HOH     H2  956   1.663   2.186   3.140
  251HOH      O  957  -0.008   0.739   1.759
  251HOH     H1  958   0.056   0.810   1.757
  251HOH     H2  959   0.034   0.670   1.810
  252HOH      O  960   1.459   1.138   1.709
  252HOH     H1  961   1.405   1.059   1.710
  252HOH     H2  962   1.529   1.119   1.646
  253HOH      O  963   3.410   0.018   1.837
  253HOH     H1  964   3.367   0.075   1.901
  253HOH     H2  965   3.499   0.053   1.830
  254HOH      O  966   2.656   3.353   0.554
  254HOH     H1  967   2.581   3.413   0.554
  254HOH     H2  968   2.656   3.314   0.467
  255HOH      O  969   3.104   2.294   1.345
  255HOH     H1  970   3.028   2.249   1.381
  255HOH     H2  971   3.072   2.336   1.266
  256HOH      O  972   3.448   0.260   2.249
  256HOH     H1  973   3.516   0.199   2.220
  256HOH     H2  974   3.375   0.246   2.188
  257HOH      O  975   0.832   0.673   0.405
  257HOH     H1  976   0.890   0.599   0.395
  257HOH     H2  977   0.890   0.748   0.416
  258HOH      O  978   0.616   1.539   0.295
  258HOH     H1  979   0.626   1.473   0.364
  258HOH     H2  980   0.665   1.615   0.327
  259HOH      O  981   0.752   0.096   1.348
  259HOH     H1  982   0.689   0.099   1.276
  259HOH     H2  983   0.749   0.006   1.379
  260HOH      O  984   2.661   0.920   1.115
  260HOH     H1  985   2.723   0.863   1.069
  260HOH     H2  986   2.693   0.923   1.205
  261HOH      O  987   0.926   3.005   1.383
  261HOH     H1  988   0.872   2.991   1.461
  261HOH     H2  989   0.866   3.046   1.320
  262HOH      O  990   1.493   0.719   2.423
  262HOH     H1  991   1.557   0.751   2.486
  262HOH     H2  992   1.498   0.781   2.350
  263HOH      O  993   3.162   3.474   2.842
  263HOH     H1  994   3.094   3.491   2.907
  263HOH     H2  995   3.125   3.407   2.785
  264HOH      O  996   2.470   2.987   3.991
  264HOH     H1  997   2.487   2.977   4.084
  264HOH     H2  998   2.432   2.903   3.965
  265HOH      O  999   3.909   1.201   1.699
  265HOH     H1 1000   3.876   1.264   1.764
  265HOH     H2 1001   3.831   1.168   1.655
  266HOH      O 1002   3.306   3.866   1.664
  266HOH     H1 1003   3.243   3.906   1.604
  266HOH     H2 1004   3.341   3.939   1.715
  267HOH      O 1005   2.982   1.243   3.729
  267HOH     H1 1006   2.937   1.302   3.669
  267HOH     H2 1007   3.027   1.181   3.671
  268HOH      O 1008   2.369   1.944   1.630
  268HOH     H1 1009   2.453   1.943   1.586
  268HOH     H2 1010   2.362   2.031   1.669
  269HOH      O 1011   2.065   2.487   3.379
  269HOH     H1 1012   1.995   2.497   3.315
  269HOH     H2 1013   2.101   2.400   3.361
  270HOH      O 1014   0.747   1.984   0.539
  270HOH     H1 1015   0.652   1.992   0.544
  270HOH     H2 1016   0.779   2.074   0.531
  271HOH      O 1017   2.703   3.546   1.064
  271HOH     H1 1018   2.710   3.509   0.976
  271HOH     H2 1019   2.788   3.529   1.104
  272HOH      O 1020   0.175   1.126   3.361
  272HOH     H1 1021   0.255   1.073   3.356
  272HOH     H2 1022   0.166   1.147   3.454
  273HOH      O 1023   2.683   1.777   0.571
  273HOH     H1 1024   2.772   1.750   0.594
  273HOH     H2 1025   2.627   1.729   0.632
  274HOH      O 1026   2.422   2.407   2.010
  274HOH     H1 1027   2.388   2.317   2.015
  274HOH     H2 1028   2.470   2.419   2.092
  275HOH      O 1029   1.579   3.308   3.713
  275HOH     H1 1030   1.531   3.282   3.792
  275HOH     H2 1031   1.515   3.354   3.660
  276HOH      O 1032   1.927   3.999   0.770
  276HOH     H1 1033   2.008   3.957   0.743
  276HOH     H2 1034   1.859   3.957   0.718
  277HOH      O 1035   1.735   0.990   2.393
  277HOH     H1 1036   1.725   0.946   2.478
  277HOH     H2 1037   1.646   0.997   2.358
  278HOH      O 1038   0.368   3.273   2.690
  278HOH     H1 1039   0.344   3.229   2.772
  278HOH     H2 1040   0.340   3.364   2.702
  279HOH      O 1041   1.310   0.343   0.424
  279HOH     H1 1042   1.375   0.298   0.478
  279HOH     H2 1043   1.349   0.428   0.405
  280HOH      O 1044   1.841   1.879   1.237
  280HOH     H1 1045   1.770   1.941   1.221
  280HOH     H2 1046   1.819   1.841   1.322
  281HOH      O 1047   2.934   0.122   3.114
  281HOH     H1 1048   2.903   0.123   3.205
  281HOH     H2 1049   2.967   0.211   3.099
  282HOH      O 1050   0.611   0.346   1.572
  282HOH     H1 1051   0.553   0.273   1.547
  282HOH     H2 1052   0.565   0.424   1.542
  283HOH      O 1053   0.479   2.022   0.489
  283HOH     H1 1054   0.435   1.998   0.407
  283HOH     H2 1055   0.434   1.971   0.556
  284HOH      O 1056   3.892   2.112   2.590
  284HOH     H1 1057   3.834   2.164   2.644
  284HOH     H2 1058   3.972   2.104   2.642
  285HOH      O 1059   1.021   2.215   0.272
  285HOH     H1 1060   1.034   2.194   0.364
  285HOH     H2 1061   0.943   2.166   0.246
  286HOH      O 1062   0.532   4.034   0.337
  286HOH     H1 1063   0.494   3.947   0.323
  286HOH     H2 1064   0.482   4.091   0.279
  287HOH      O 1065   0.194   4.025   0.694
  287HOH     H1 1066   0.145   3.971   0.632
  287HOH     H2 1067   0.285   3.999   0.682
  288HOH      O 1068   2.977   1.539   3.831
  288HOH     H1 1069   2.935   1.456   3.854
  288HOH     H2 1070   2.997   1.532   3.738
  289HOH      O 1071   3.361   1.996   3.747
  289HOH     H1 1072   3.349   2.070   3.805
  289HOH     H2 1073   3.449   1.964   3.767
  290HOH      O 1074   0.138   0.434   0.309
  290HOH     H1 1075   0.162   0.519   0.272
  290HOH     H2 1076   0.107   0.383   0.234
  291HOH      O 1077   3.983   3.785   0.440
  291HOH     H1 1078   3.950   3.719   0.501
  291HOH     H2 1079   3.918   3.787   0.369
  292HOH      O 1080   1.043   1.460   0.823
  292HOH     H1 1081   1.128   1.489   0.791
  292HOH     H2 1082   1.055   1.366   0.840
  293HOH      O 1083   0.991   3.836   3.144
  293HOH     H1 1084   0.996   3.765   3.081
  293HOH     H2 1085   1.011   3.795   3.228
  294HOH      O 1086   3.846   3.926   3.650
  294HOH     H1 1087   3.781   3.933   3.580
  294HOH     H2 1088   3.882   3.838   3.640
  295HOH      O 1089   3.034   1.391   2.418
  295HOH     H1 1090   3.076   1.446   2.485
  295HOH     H2 1091   2.986   1.326   2.468
  296HOH      O 1092   2.339   3.698   1.611
  296HOH     H1 1093   2.263   3.753   1.589
  296HOH     H2 1094   2.301   3.616   1.643
  297HOH      O 1095   3.059   1.793   2.227
  297HOH     H1 1096   3.080   1.768   2.317
  297HOH     H2 1097   3.142   1.786   2.180
  298HOH      O 1098   3.435   1.209   1.402
  298HOH     H1 1099   3.439   1.218   1.307
  298HOH     H2 1100   3.384   1.129   1.417
  299HOH      O 1101   0.618   0.462   0.435
  299HOH     H1 1102   0.594   0.376   0.469
  299HOH     H2 1103   0.683   0.443   0.367
  300HOH      O 1104   0.412   1.412   2.014
  300HOH     H1 1105   0.426   1.405   1.920
  300HOH     H2 1106   0.317   1.410   2.025
  301HOH      O 1107   2.949   3.792   3.420
  301HOH     H1 1108   2.866   3.767   3.460
  301HOH     H2 1109   2.935   3.777   3.326
  302HOH      O 1110   0.233   1.644   3.959
  302HOH     H1 1111   0.260   1.557   3.930
  302HOH     H2 1112   0.148   1.630   4.002
  303HOH      O 1113   0.519   0.329   2.187
  303HOH     H1 1114   0.610   0.336   2.160
  303HOH     H2 1115   0.505   0.236   2.205
  304HOH      O 1116   2.995   0.806   0.619
  304HOH     H1 1117   2.901   0.821   0.616
  304HOH     H2 1118   3.033   0.880   0.572
  305HOH      O 1119   0.414   0.619   4.032
  305HOH     H1 1120   0.445   0.571   4.109
  305HOH     H2 1121   0.473   0.592   3.962
  306HOH      O 1122   3.905   2.929   1.751
  306HOH     H1 1123   3.818   2.967   1.763
  306HOH     H2 1124   3.950   2.945   1.834
  307HOH      O 1125   3.650   2.806   1.053
  307HOH     H1 1126   3.560   2.813   1.085
  307HOH     H2 1127   3.650   2.726   1.000
  308HOH      O 1128   0.753   2.699   3.249
  308HOH     H1 1129   0.672   2.673   3.293
  308HOH     H2 1130   0.741   2.669   3.159
  309HOH      O 1131   1.868   3.605   3.287
  309HOH     H1 1132   1.946   3.657   3.303
  309HOH     H2 1133   1.885   3.562   3.203
  310HOH      O 1134   2.914   2.346   2.288
  310HOH     H1 1135   2.992   2.341   2.233
  310HOH     H2 1136   2.850   2.393   2.235
  311HOH      O 1137   2.650   3.814   1.070
  311HOH     H1 1138   2.669   3.832   1.162
  311HOH     H2 1139   2.733   3.782   1.034
  312HOH      O 1140   1.485   0.642   0.769
  312HOH     H1 1141   1.415   0.584   0.801
  312HOH     H2 1142   1.475   0.721   0.821
  313HOH      O 1143   2.492   3.956   0.556
  313HOH     H1 1144   2.446   3.944   0.639
  313HOH     H2 1145   2.424   3.985   0.495
  314HOH      O 1146   2.257   2.661   0.031
  314HOH     H1 1147   2.176   2.711   0.018
  314HOH     H2 1148   2.317   2.698  -0.033
  315HOH      O 1149   3.596   2.995   0.515
  315HOH     H1 1150   3.504   2.974   0.535
  315HOH     H2 1151   3.626   3.044   0.591
  316HOH      O 1152   2.101   3.581   3.849
  316HOH     H1 1153   2.145   3.661   3.821
  316HOH     H2 1154   2.069   3.541   3.769
  317HOH      O 1155   0.566   0.911   3.741
  317HOH     H1 1156   0.521   0.940   3.661
  317HOH     H2 1157   0.524   0.959   3.811
  318HOH      O 1158   3.186   0.577   3.772
  318HOH     H1 1159   3.179   0.563   3.866
  318HOH     H2 1160   3.180   0.672   3.762
  319HOH      O 1161   2.739   2.789   1.562
  319HOH     H1 1162   2.688   2.722   1.516
  319HOH     H2 1163   2.676   2.858   1.582
  320HOH      O 1164   1.217   0.103   2.988
  320HOH     H1 1165   1.228   0.056   2.906
  320HOH     H2 1166   1.299   0.153   2.998
  321HOH      O 1167   0.186   0.419   2.340
  321HOH     H1 1168   0.200   0.427   2.245
  321HOH     H2 1169   0.232   0.339   2.364
  322HOH      O 1170   4.000   3.175  -0.011
  322HOH     H1 1171   3.923   3.212   0.032
  322HOH     H2 1172   4.018   3.095   0.038
  323HOH      O 1173   2.885   2.246   1.799
  323HOH     H1 1174   2.961   2.256   1.855
  323HOH     H2 1175   2.852   2.158   1.818
  324HOH      O 1176   0.619   1.761   0.709
  324HOH     H1 1177   0.692   1.795   0.656
  324HOH     H2 1178   0.655   1.683   0.752
  325HOH      O 1179   3.673   1.165   2.502
  325HOH     H1 1180   3.718   1.226   2.559
  325HOH     H2 1181   3.583   1.163   2.534
  326HOH      O 1182   2.831   2.857   3.232
  326HOH     H1 1183   2.886   2.790   3.274
  326HOH     H2 1184   2.788   2.811   3.160
  327HOH      O 1185   3.553   3.317   1.863
  327HOH     H1 1186   3.599   3.323   1.947
  327HOH     H2 1187   3.524   3.407   1.845
  328HOH      O 1188   1.042   0.146   1.038
  328HOH     H1 1189   1.053   0.226   1.089
  328HOH     H2 1190   0.975   0.167   0.974
  329HOH      O 1191   3.871   0.775   2.294
  329HOH     H1 1192   3.895   0.763   2.386
  329HOH     H2 1193   3.904   0.696   2.250
  330HOH      O 1194   2.012   3.369   2.641
  330HOH     H1 1195   1.967   3.309   2.582
  330HOH     H2 1196   2.097   3.385   2.599
  331HOH      O 1197   0.907   2.439   1.235
  331HOH     H1 1198   0.814   2.424   1.215
  331HOH     H2 1199   0.916   2.534   1.236
  332HOH      O 1200   3.863   1.788   2.556
  332HOH     H1 1201   3.919   1.861   2.582
  332HOH     H2 1202   3.832   1.751   2.638
  333HOH      O 1203   0.478   2.370   1.528
  333HOH     H1 1204   0.430   2.290   1.549
  333HOH     H2 1205   0.456   2.389   1.437
  334HOH      O 1206   1.710   3.000   3.369
  334HOH     H1 1207   1.764   3.046   3.433
  334HOH     H2 1208   1.684   2.919   3.414
  335HOH      O 1209   1.458   1.352   3.965
  335HOH     H1 1210   1.546   1.351   3.927
  335HOH     H2 1211   1.399   1.349   3.889
  336HOH      O 1212   1.577   1.096   1.016
  336HOH     H1 1213   1.509   1.135   1.072
  336HOH     H2 1214   1.587   1.159   0.944
  337HOH      O 1215   0.702   2.382   0.441
  337HOH     H1 1216   0.785   2.338   0.458
  337HOH     H2 1217   0.726   2.467   0.405
  338HOH      O 1218   3.633   2.743   1.385
  338HOH     H1 1219   3.558   2.746   1.444
  338HOH     H2 1220   3.602   2.693   1.309
  339HOH      O 1221   2.675   2.257   3.307
  339HOH     H1 1222   2.706   2.328   3.250
  339HOH     H2 1223   2.581   2.254   3.291
  340HOH      O 1224   2.349   0.993   0.753
  340HOH     H1 1225   2.339   1.032   0.840
  340HOH     H2 1226   2.389   0.907   0.770
  341HOH      O 1227   0.219   2.123   3.103
  341HOH     H1 1228   0.286   2.164   3.048
  341HOH     H2 1229   0.222   2.173   3.184
  342HOH      O 1230   2.684   0.219   3.627
  342HOH     H1 1231   2.776   0.236   3.607
  342HOH     H2 1232   2.641   0.212   3.542
  343HOH      O 1233   3.110   2.510   4.026
  343HOH     H1 1234   3.034   2.482   3.973
  343HOH     H2 1235   3.174   2.540   3.961
  344HOH      O 1236   3.213   0.672   2.200
  344HOH     H1 1237   3.155   0.655   2.274
  344HOH     H2 1238   3.222   0.767   2.197
  345HOH      O 1239   2.746   3.290   0.263
  345HOH     H1 1240   2.678   3.357   0.259
  345HOH     H2 1241   2.828   3.340   0.258
  346HOH      O 1242   3.785   2.290   0.559
  346HOH     H1 1243   3.824   2.203   0.545
  346HOH     H2 1244   3.790   2.332   0.473
  347HOH      O 1245   1.959   1.259   3.371
  347HOH     H1 1246   1.982   1.167   3.386
  347HOH     H2 1247   1.868   1.266   3.399
  348HOH      O 1248   1.052   2.355   1.848
  348HOH     H1 1249   1.120   2.412   1.884
  348HOH     H2 1250   1.036   2.388   1.760
  349HOH      O 1251   3.034   3.179   2.095
  349HOH     H1 1252   3.010   3.138   2.012
  349HOH     H2 1253   3.065   3.266   2.071
  350HOH      O 1254   3.958   0.679   3.613
  350HOH     H1 1255   3.936   0.678   3.520
  350HOH     H2 1256   3.918   0.599   3.648
  351HOH      O 1257   2.927   2.095   1.427
  351HOH     H1 1258   2.903   2.100   1.520
  351HOH     H2 1259   2.917   2.002   1.405
  352HOH      O 1260   2.370   0.548   3.538
  352HOH     H1 1261   2.279   0.566   3.560
  352HOH     H2 1262   2.372   0.455   3.517
  353HOH      O 1263   1.259   1.370   3.002
  353HOH     H1 1264   1.346   1.395   2.971
  353HOH     H2 1265   1.264   1.275   3.013
  354HOH      O 1266   2.429   1.331   0.052
  354HOH     H1 1267   2.439   1.344   0.146
  354HOH     H2 1268   2.518   1.312   0.021
  355HOH      O 1269   2.776   2.260   3.708
  355HOH     H1 1270   2.689   2.224   3.694
  355HOH     H2 1271   2.834   2.208   3.652
  356HOH      O 1272   3.524   0.626   1.529
  356HOH     H1 1273   3.541   0.703   1.583
  356HOH     H2 1274   3.610   0.588   1.514
  357HOH      O 1275   1.433   0.864   0.905
  357HOH     H1 1276   1.384   0.928   0.854
  357HOH     H2 1277   1.469   0.915   0.978
  358HOH      O 1278   2.528   0.783   3.597
  358HOH     H1 1279   2.487   0.700   3.572
  358HOH     H2 1280   2.608   0.787   3.544
  359HOH      O 1281   4.037   1.610   0.046
  359HOH     H1 1282   3.944   1.614   0.069
  359HOH     H2 1283   4.056   1.517   0.039
  360HOH      O 1284   3.435   2.757   1.973
  360HOH     H1 1285   3.453   2.775   2.066
  360HOH     H2 1286   3.385   2.832   1.943
  361HOH      O 1287   0.172   2.570   2.365
  361HOH     H1 1288   0.109   2.624   2.412
  361HOH     H2 1289   0.132   2.556   2.279
  362HOH      O 1290   1.693   0.331   3.616
  362HOH     H1 1291   1.654   0.347   3.531
  362HOH     H2 1292   1.681   0.413   3.664
  363HOH      O 1293   3.777   0.569   1.265
  363HOH     H1 1294   3.694   0.607   1.237
  363HOH     H2 1295   3.774   0.572   1.361
  364HOH      O 1296   2.613   0.421   3.130
  364HOH     H1 1297   2.637   0.446   3.040
  364HOH     H2 1298   2.561   0.495   3.162
  365HOH      O 1299   2.056   0.967   0.381
  365HOH     H1 1300   1.965   0.992   0.398
  365HOH     H2 1301   2.073   0.895   0.442
  366HOH      O 1302   0.209   3.664   0.248
  366HOH     H1 1303   0.233   3.598   0.182
  366HOH     H2 1304   0.114   3.653   0.258
  367HOH      O 1305   2.912   2.975   0.610
  367HOH     H1 1306   2.963   3.052   0.584
  367HOH     H2 1307   2.856   2.957   0.534
  368HOH      O 1308   1.866   1.198   3.101
  368HOH     H1 1309   1.892   1.204   3.193
  368HOH     H2 1310   1.917   1.267   3.058
  369HOH      O 1311   2.260   1.614   2.948
  369HOH     H1 1312   2.270   1.542   2.886
  369HOH     H2 1313   2.225   1.686   2.895
  370HOH      O 1314   1.884   0.678   3.813
  370HOH     H1 1315   1.793   0.686   3.784
  370HOH     H2 1316   1.896   0.584   3.827
  371HOH      O 1317   3.516   1.317   2.769
  371HOH     H1 1318   3.488   1.253   2.703
  371HOH     H2 1319   3.598   1.352   2.734
  372HOH      O 1320   3.421   3.875   1.322
  372HOH     H1 1321   3.361   3.830   1.381
  372HOH     H2 1322   3.428   3.817   1.246
  373HOH      O 1323   1.291   0.331   3.385
  373HOH     H1 1324   1.230   0.300   3.452
  373HOH     H2 1325   1.376   0.297   3.413
  374HOH      O 1326   3.882   1.710   3.723
  374HOH     H1 1327   3.973   1.698   3.696
  374HOH     H2 1328   3.849   1.621   3.736
  375HOH      O 1329   1.344   1.607   4.022
  375HOH     H1 1330   1.369   1.515   4.032
  375HOH     H2 1331   1.287   1.609   3.945
  376HOH      O 1332   0.268   0.241   3.363
  376HOH     H1 1333   0.236   0.172   3.305
  376HOH     H2 1334   0.250   0.322   3.316
  377HOH      O 1335   0.452   2.909   0.459
  377HOH     H1 1336   0.395   2.845   0.417
  377HOH     H2 1337   0.447   2.888   0.552
  378HOH      O 1338   0.220   1.349   0.743
  378HOH     H1 1339   0.246   1.359   0.835
  378HOH     H2 1340   0.158   1.276   0.743
  379HOH      O 1341   1.162   2.554   3.129
  379HOH     H1 1342   1.131   2.605   3.055
  379HOH     H2 1343   1.239   2.602   3.161
  380HOH      O 1344   2.829   3.867   4.063
  380HOH     H1 1345   2.797   3.915   3.986
  380HOH     H2 1346   2.816   3.775   4.041
  381HOH      O 1347   0.235   3.970   1.728
  381HOH     H1 1348   0.172   3.959   1.657
  381HOH     H2 1349   0.181   3.978   1.807
  382HOH      O 1350   1.488   2.012   2.064
  382HOH     H1 1351   1.482   1.931   2.114
  382HOH     H2 1352   1.469   2.081   2.129
  383HOH      O 1353   1.520   3.888   1.479
  383HOH     H1 1354   1.426   3.875   1.467
  383HOH     H2 1355   1.526   3.950   1.551
  384HOH      O 1356   3.889   3.264   0.956
  384HOH     H1 1357   3.974   3.222   0.965
  384HOH     H2 1358   3.825   3.194   0.969
  385HOH      O 1359   2.853   3.371   1.662
  385HOH     H1 1360   2.788   3.326   1.607
  385HOH     H2 1361   2.918   3.304   1.683
  386HOH      O 1362   1.916   1.785   1.520
  386HOH     H1 1363   1.945   1.715   1.579
  386HOH     H2 1364   1.977   1.857   1.535
  387HOH      O 1365   0.105   2.939   3.433
  387HOH     H1 1366   0.023   2.902   3.400
  387HOH     H2 1367   0.095   2.940   3.528
  388HOH      O 1368   1.401   2.617   2.612
  388HOH     H1 1369   1.354   2.534   2.609
  388HOH     H2 1370   1.408   2.644   2.520
  389HOH      O 1371   2.553   2.024   0.695
  389HOH     H1 1372   2.595   1.946   0.657
  389HOH     H2 1373   2.603   2.042   0.774
  390HOH      O 1374   3.844   3.223   3.551
  390HOH     H1 1375   3.865   3.134   3.580
  390HOH     H2 1376   3.753   3.219   3.522
  391HOH      O 1377   0.212   2.544   1.331
  391HOH     H1 1378   0.154   2.606   1.286
  391HOH     H2 1379   0.292   2.594   1.348
  392HOH      O 1380   1.779   3.487   2.829
  392HOH     H1 1381   1.820   3.556   2.776
  392HOH     H2 1382   1.783   3.409   2.773
  393HOH      O 1383   3.714   2.381   3.504
  393HOH     H1 1384   3.651   2.359   3.573
  393HOH     H2 1385   3.706   2.311   3.440
  394HOH      O 1386   0.386   3.034   1.074
  394HOH     H1 1387   0.451   3.102   1.092
  394HOH     H2 1388   0.348   3.060   0.990
  395HOH      O 1389   0.300   1.914   3.950
  395HOH     H1 1390   0.268   1.825   3.966
  395HOH     H2 1391   0.314   1.918   3.855
  396HOH      O 1392   1.369   2.672   3.324
  396HOH     H1 1393   1.308   2.619   3.375
  396HOH     H2 1394   1.387   2.748   3.379
  397HOH      O 1395   0.525   1.842   1.775
  397HOH     H1 1396   0.566   1.913   1.726
  397HOH     H2 1397   0.471   1.796   1.711
  398HOH      O 1398   0.226   2.942   1.871
  398HOH     H1 1399   0.185   3.023   1.898
  398HOH     H2 1400   0.280   2.916   1.945
  399HOH      O 1401   0.785   3.990   2.647
  399HOH     H1 1402   0.835   4.033   2.716
  399HOH     H2 1403   0.829   3.905   2.635
  400HOH      O 1404   1.518   2.447   3.462
  400HOH     H1 1405   1.434   2.404   3.446
  400HOH     H2 1406   1.502   2.504   3.537
  401HOH      O 1407   0.805   0.893   0.171
  401HOH     H1 1408   0.740   0.833   0.208
  401HOH     H2 1409   0.874   0.896   0.237
  402HOH      O 1410   1.046   1.458   3.147
  402HOH     H1 1411   1.092   1.531   3.189
  402HOH     H2 1412   1.115   1.409   3.102
  403HOH      O 1413   2.017   0.087   2.425
  403HOH     H1 1414   2.047   0.176   2.440
  403HOH     H2 1415   2.028   0.043   2.510
  404HOH      O 1416   4.014   2.088   0.545
  404HOH     H1 1417   4.023   2.113   0.453
  404HOH     H2 1418   4.032   1.994   0.545
  405HOH      O 1419   2.754   1.569   1.852
  405HOH     H1 1420   2.830   1.524   1.888
  405HOH     H2 1421   2.678   1.527   1.893
  406HOH      O 1422   3.135   1.693   3.993
  406HOH     H1 1423   3.085   1.640   3.931
  406HOH     H2 1424   3.089   1.778   3.995
  407HOH      O 1425   3.080   0.360   3.110
  407HOH     H1 1426   3.054   0.451   3.096
  407HOH     H2 1427   3.119   0.359   3.197
  408HOH      O 1428   2.252   0.914   2.053
  408HOH     H1 1429   2.330   0.958   2.086
  408HOH     H2 1430   2.179   0.950   2.105
  409HOH      O 1431   2.176   0.847   3.391
  409HOH     H1 1432   2.171   0.869   3.298
  409HOH     H2 1433   2.269   0.837   3.410
  410HOH      O 1434   2.044   3.219   3.145
  410HOH     H1 1435   2.080   3.279   3.210
  410HOH     H2 1436   2.063   3.262   3.061
  411HOH      O 1437   0.869   2.329   2.871
  411HOH     H1 1438   0.880   2.236   2.855
  411HOH     H2 1439   0.949   2.369   2.838
  412HOH      O 1440   3.399   0.389   0.123
  412HOH     H1 1441   3.327   0.417   0.067
  412HOH     H2 1442   3.425   0.468   0.170
  413HOH      O 1443   0.563   2.874   3.535
  413HOH     H1 1444   0.626   2.931   3.491
  413HOH     H2 1445   0.528   2.819   3.465
  414HOH      O 1446   3.699   3.341   2.499
  414HOH     H1 1447   3.638   3.415   2.501
  414HOH     H2 1448   3.764   3.364   2.433
  415HOH      O 1449   1.433   3.080   2.553
  415HOH     H1 1450   1.477   3.162   2.530
  415HOH     H2 1451   1.349   3.085   2.509
  416HOH      O 1452   1.395   0.444   1.439
  416HOH     H1 1453   1.353   0.433   1.525
  416HOH     H2 1454   1.455   0.517   1.451
  417HOH      O 1455   1.898   0.223   3.442
  417HOH     H1 1456   1.989   0.249   3.454
  417HOH     H2 1457   1.848   0.303   3.459
  418HOH      O 1458   2.974   1.100   0.903
  418HOH     H1 1459   2.996   1.012   0.932
  418HOH     H2 1460   2.900   1.088   0.844
  419HOH      O 1461   0.055   1.568   2.347
  419HOH     H1 1462   0.106   1.561   2.266
  419HOH     H2 1463   0.081   1.653   2.383
  420HOH      O 1464   2.414   1.755   0.918
  420HOH     H1 1465   2.341   1.741   0.978
  420HOH     H2 1466   2.468   1.821   0.960
  421HOH      O 1467   0.681   3.765   3.071
  421HOH     H1 1468   0.761   3.795   3.114
  421HOH     H2 1469   0.663   3.832   3.004
  422HOH      O 1470   2.295   2.499   1.122
  422HOH     H1 1471   2.226   2.450   1.077
  422HOH     H2 1472   2.260   2.587   1.132
  423HOH      O 1473   2.913   1.496   3.571
  423HOH     H1 1474   2.823   1.467   3.555
  423HOH     H2 1475   2.927   1.567   3.508
  424HOH      O 1476   0.863   1.869   1.651
  424HOH     H1 1477   0.874   1.955   1.610
  424HOH     H2 1478   0.879   1.885   1.744
  425HOH      O 1479   3.546   0.633   3.005
  425HOH     H1 1480   3.452   0.614   3.009
  425HOH     H2 1481   3.580   0.576   2.936
  426HOH      O 1482   1.994   2.347   3.933
  426HOH     H1 1483   2.068   2.372   3.877
  426HOH     H2 1484   1.960   2.430   3.966
  427HOH      O 1485   0.532   1.206   0.991
  427HOH     H1 1486   0.557   1.134   1.048
  427HOH     H2 1487   0.602   1.212   0.927
  428HOH      O 1488   1.114   2.272   1.369
  428HOH     H1 1489   1.171   2.265   1.292
  428HOH     H2 1490   1.030   2.301   1.334
  429HOH      O 1491   3.758   0.504   0.365
  429HOH     H1 1492   3.738   0.485   0.274
  429HOH     H2 1493   3.708   0.440   0.415
  430HOH      O 1494   3.004   0.367   1.887
  430HOH     H1 1495   3.022   0.300   1.953
  430HOH     H2 1496   2.949   0.431   1.933
  431HOH      O 1497   3.289   1.170   3.067
  431HOH     H1 1498   3.329   1.091   3.031
  431HOH     H2 1499   3.339   1.242   3.029
  432HOH      O 1500   3.004   3.608   0.599
  432HOH     H1 1501   2.977   3.636   0.511
  432HOH     H2 1502   3.073   3.669   0.623
  433HOH      O 1503   2.509   3.629   3.682
  433HOH     H1 1504   2.495   3.560   3.747
  433HOH     H2 1505   2.457   3.702   3.715
  434HOH      O 1506   3.824   3.413   0.728
  434HOH     H1 1507   3.906   3.402   0.680
  434HOH     H2 1508   3.847   3.394   0.819
  435HOH      O 1509   0.183   3.599   1.396
  435HOH     H1 1510   0.121   3.643   1.454
  435HOH     H2 1511   0.269   3.634   1.421
  436HOH      O 1512   3.245   3.749   0.629
  436HOH     H1 1513   3.263   3.724   0.719
  436HOH     H2 1514   3.277   3.839   0.622
  437HOH      O 1515   2.547   3.638   1.773
  437HOH     H1 1516   2.493   3.580   1.827
  437HOH     H2 1517   2.486   3.677   1.711
  438HOH      O 1518   4.001   2.380   3.586
  438HOH     H1 1519   3.925   2.409   3.534
  438HOH     H2 1520   4.076   2.417   3.540
  439HOH      O 1521   0.153   2.278   2.057
  439HOH     H1 1522   0.084   2.231   2.010
  439HOH     H2 1523   0.108   2.323   2.129
  440HOH      O 1524   1.324   0.503   3.698
  440HOH     H1 1525   1.250   0.511   3.757
  440HOH     H2 1526   1.394   0.466   3.752
  441HOH      O 1527   3.023   3.179   1.348
  441HOH     H1 1528   3.015   3.091   1.386
  441HOH     H2 1529   2.932   3.204   1.328
  442HOH      O 1530   3.252   0.996   2.124
  442HOH     H1 1531   3.180   1.043   2.166
  442HOH     H2 1532   3.325   1.003   2.186
  443HOH      O 1533   3.675   0.047   2.254
  443HOH     H1 1534   3.662  -0.000   2.337
  443HOH     H2 1535   3.739   0.115   2.275
  444HOH      O 1536   2.371   0.739   3.826
  444HOH     H1 1537   2.438   0.759   3.760
  444HOH     H2 1538   2.297   0.795   3.802
  445HOH      O 1539   0.437   0.576   2.441
  445HOH     H1 1540   0.373   0.519   2.399
  445HOH     H2 1541   0.398   0.663   2.438
  446HOH      O 1542   1.675   0.864   3.988
  446HOH     H1 1543   1.585   0.837   4.008
  446HOH     H2 1544   1.682   0.857   3.893
  447HOH      O 1545   1.148   3.592   0.098
  447HOH     H1 1546   1.108   3.513   0.061
  447HOH     H2 1547   1.110   3.664   0.047
  448HOH      O 1548   1.314   0.284   2.683
  448HOH     H1 1549   1.345   0.340   2.611
  448HOH     H2 1550   1.248   0.227   2.642
  449HOH      O 1551   2.470   3.300   2.256
  449HOH     H1 1552   2.390   3.279   2.305
  449HOH     H2 1553   2.540   3.271   2.314
  450HOH      O 1554   3.921   2.180   2.057
  450HOH     H1 1555   3.854   2.238   2.020
  450HOH     H2 1556   3.896   2.171   2.149
  451HOH      O 1557   1.318   1.085   3.052
  451HOH     H1 1558   1.300   1.004   3.005
  451HOH     H2 1559   1.406   1.110   3.025
  452HOH      O 1560   1.440   2.489   3.720
  452HOH     H1 1561   1.421   2.396   3.734
  452HOH     H2 1562   1.361   2.534   3.752
  453HOH      O 1563   0.223   0.999   2.819
  453HOH     H1 1564   0.200   0.989   2.911
  453HOH     H2 1565   0.318   0.984   2.816
  454HOH      O 1566   3.039   1.123   2.293
  454HOH     H1 1567   2.992   1.202   2.321
  454HOH     H2 1568   3.042   1.068   2.371
  455HOH      O 1569   0.908   3.075   2.563
  455HOH     H1 1570   0.875   3.165   2.566
  455HOH     H2 1571   0.962   3.067   2.642
  456HOH      O 1572   3.625   1.830   1.589
  456HOH     H1 1573   3.659   1.862   1.672
  456HOH     H2 1574   3.661   1.742   1.580
  457HOH      O 1575   1.673   2.511   3.906
  457HOH     H1 1576   1.702   2.441   3.965
  457HOH     H2 1577   1.588   2.482   3.873
  458HOH      O 1578   3.849   0.978   0.417
  458HOH     H1 1579   3.920   1.024   0.372
  458HOH     H2 1580   3.888   0.949   0.499
  459HOH      O 1581   0.078   2.692   1.163
  459HOH     H1 1582  -0.017   2.692   1.159
  459HOH     H2 1583   0.106   2.678   1.072
  460HOH      O 1584   3.156   0.899   3.189
  460HOH     H1 1585   3.069   0.937   3.180
  460HOH     H2 1586   3.214   0.962   3.146
  461HOH      O 1587   4.031   0.508   0.515
  461HOH     H1 1588   3.967   0.515   0.444
  461HOH     H2 1589   4.103   0.458   0.477
  462HOH      O 1590   1.931   0.421   0.871
  462HOH     H1 1591   1.860   0.428   0.807
  462HOH     H2 1592   2.005   0.386   0.822
  463HOH      O 1593   0.140   1.806   0.221
  463HOH     H1 1594   0.180   1.726   0.186
  463HOH     H2 1595   0.057   1.814   0.174
  464HOH      O 1596   1.761   3.879   1.243
  464HOH     H1 1597   1.725   3.846   1.326
  464HOH     H2 1598   1.701   3.949   1.218
  465HOH      O 1599  -0.034   3.733   2.097
  465HOH     H1 1600   0.043   3.726   2.041
  465HOH     H2 1601   0.001   3.743   2.186
  466HOH      O 1602   0.721   0.971   2.408
  466HOH     H1 1603   0.709   0.878   2.387
  466HOH     H2 1604   0.795   0.972   2.468
  467HOH      O 1605   0.589   1.975   0.860
  467HOH     H1 1606   0.601   1.899   0.803
  467HOH     H2 1607   0.500   1.966   0.894
  468HOH      O 1608   0.865   1.312   2.570
  468HOH     H1 1609   0.783   1.306   2.520
  468HOH     H2 1610   0.912   1.231   2.548
  469HOH      O 1611   0.248   1.408   1.274
  469HOH     H1 1612   0.161   1.395   1.312
  469HOH     H2 1613   0.244   1.366   1.188
  470HOH      O 1614   1.821   2.637   0.814
  470HOH     H1 1615   1.797   2.555   0.857
  470HOH     H2 1616   1.797   2.624   0.723
  471HOH      O 1617   3.857   0.172   2.413
  471HOH     H1 1618   3.901   0.249   2.449
  471HOH     H2 1619   3.853   0.110   2.486
  472HOH      O 1620   3.156   2.721   2.281
  472HOH     H1 1621   3.156   2.686   2.192
  472HOH     H2 1622   3.245   2.753   2.295
  473HOH      O 1623   1.356   2.454   0.012
  473HOH     H1 1624   1.370   2.363   0.037
  473HOH     H2 1625   1.262   2.459  -0.008
  474HOH      O 1626   2.655   3.913   1.678
  474HOH     H1 1627   2.665   3.821   1.703
  474HOH     H2 1628   2.577   3.943   1.724
  475HOH      O 1629   0.610   3.145   3.894
  475HOH     H1 1630   0.543   3.181   3.952
  475HOH     H2 1631   0.579   3.056   3.875
  476HOH      O 1632   0.587   2.235   0.810
  476HOH     H1 1633   0.603   2.146   0.841
  476HOH     H2 1634   0.561   2.224   0.718
  477HOH      O 1635   2.630   3.750   2.629
  477HOH     H1 1636   2.556   3.745   2.690
  477HOH     H2 1637   2.701   3.787   2.682
  478HOH      O 1638   3.114   3.435   1.892
  478HOH     H1 1639   3.158   3.497   1.833
  478HOH     H2 1640   3.097   3.358   1.837
  479HOH      O 1641   3.295   3.346   0.512
  479HOH     H1 1642   3.385   3.374   0.531
  479HOH     H2 1643   3.283   3.266   0.563
  480HOH      O 1644   4.020   0.606   2.829
  480HOH     H1 1645   4.024   0.510   2.829
  480HOH     H2 1646   3.960   0.627   2.900
  481HOH      O 1647   3.252   2.656   1.232
  481HOH     H1 1648   3.174   2.634   1.282
  481HOH     H2 1649   3.223   2.655   1.140
  482HOH      O 1650   4.016   0.160   1.584
  482HOH     H1 1651   4.041   0.172   1.493
  482HOH     H2 1652   3.923   0.137   1.580
  483HOH      O 1653   1.765   3.177   2.015
  483HOH     H1 1654   1.860   3.191   2.008
  483HOH     H2 1655   1.744   3.203   2.105
  484HOH      O 1656   3.670   2.859   2.961
  484HOH     H1 1657   3.617   2.938   2.977
  484HOH     H2 1658   3.687   2.824   3.049
  485HOH      O 1659   2.602   1.577   1.133
  485HOH     H1 1660   2.565   1.637   1.068
  485HOH     H2 1661   2.544   1.501   1.131
  486HOH      O 1662   2.494   1.740   2.182
  486HOH     H1 1663   2.570   1.797   2.198
  486HOH     H2 1664   2.427   1.772   2.243
  487HOH      O 1665   1.865   0.896   2.790
  487HOH     H1 1666   1.957   0.922   2.784
  487HOH     H2 1667   1.849   0.890   2.885
  488HOH      O 1668   2.125   1.660   2.614
  488HOH     H1 1669   2.124   1.617   2.529
  488HOH     H2 1670   2.215   1.693   2.623
  489HOH      O 1671   3.399   2.685   3.162
  489HOH     H1 1672   3.351   2.722   3.235
  489HOH     H2 1673   3.336   2.683   3.090
  490HOH      O 1674   1.306   0.900   1.678
  490HOH     H1 1675   1.215   0.893   1.647
  490HOH     H2 1676   1.357   0.860   1.608
  491HOH      O 1677   2.968   1.740   0.952
  491HOH     H1 1678   3.055   1.702   0.952
  491HOH     H2 1679   2.910   1.668   0.927
  492HOH      O 1680   0.166   3.835   2.798
  492HOH     H1 1681   0.258   3.819   2.776
  492HOH     H2 1682   0.157   3.803   2.888
  493HOH      O 1683   1.216   3.427   0.554
  493HOH     H1 1684   1.277   3.497   0.579
  493HOH     H2 1685   1.157   3.469   0.491
  494HOH      O 1686   2.498   3.270   3.582
  494HOH     H1 1687   2.545   3.259   3.665
  494HOH     H2 1688   2.555   3.230   3.517
  495HOH      O 1689   1.422   2.908   2.107
  495HOH     H1 1690   1.339   2.868   2.131
  495HOH     H2 1691   1.457   2.943   2.189
  496HOH      O 1692   0.467   2.692   3.346
  496HOH     H1 1693   0.378   2.710   3.318
  496HOH     H2 1694   0.474   2.597   3.344
  497HOH      O 1695   2.277   3.536   1.893
  497HOH     H1 1696   2.279   3.589   1.972
  497HOH     H2 1697   2.184   3.519   1.878
  498HOH      O 1698   0.406   0.103   3.848
  498HOH     H1 1699   0.414   0.164   3.774
  498HOH     H2 1700   0.336   0.043   3.821
  499HOH      O 1701   2.232   1.296   2.511
  499HOH     H1 1702   2.260   1.271   2.423
  499HOH     H2 1703   2.145   1.259   2.520
  500HOH      O 1704   2.229   1.654   3.230
  500HOH     H1 1705   2.235   1.663   3.135
  500HOH     H2 1706   2.232   1.744   3.262
  501HOH      O 1707   1.394   1.332   1.553
  501HOH     H1 1708   1.403   1.260   1.615
  501HOH     H2 1709   1.377   1.409   1.607
  502HOH      O 1710   1.824   3.113   0.064
  502HOH     H1 1711   1.752   3.051   0.051
  502HOH     H2 1712   1.863   3.123  -0.023
  503HOH      O 1713   3.137   3.799   1.168
  503HOH     H1 1714   3.219   3.758   1.141
  503HOH     H2 1715   3.127   3.773   1.260
  504HOH      O 1716   3.570   3.345   0.620
  504HOH     H1 1717   3.651   3.394   0.605
  504HOH     H2 1718   3.598   3.261   0.656
  505HOH      O 1719   3.466   3.501   2.638
  505HOH     H1 1720   3.521   3.579   2.646
  505HOH     H2 1721   3.384   3.534   2.601
  506HOH      O 1722   2.690   4.025   3.417
  506HOH     H1 1723   2.607   3.978   3.408
  506HOH     H2 1724   2.667   4.117   3.403
  507HOH      O 1725   0.782   0.794   3.929
  507HOH     H1 1726   0.762   0.857   3.859
  507HOH     H2 1727   0.785   0.847   4.009
  508HOH      O 1728   2.692   0.597   0.785
  508HOH     H1 1729   2.618   0.575   0.729
  508HOH     H2 1730   2.716   0.686   0.759
  509HOH      O 1731   4.002   0.183   0.781
  509HOH     H1 1732   4.078   0.138   0.744
  509HOH     H2 1733   3.928   0.129   0.755
  510HOH      O 1734   0.090   0.912   2.196
  510HOH     H1 1735   0.080   0.949   2.108
  510HOH     H2 1736   0.002   0.883   2.220
  511HOH      O 1737   0.407   2.433   3.682
  511HOH     H1 1738   0.393   2.404   3.772
  511HOH     H2 1739   0.451   2.359   3.640
  512HOH      O 1740   2.247   3.946   1.042
  512HOH     H1 1741   2.287   3.892   1.109
  512HOH     H2 1742   2.153   3.944   1.061
  513HOH      O 1743   0.347   1.136   1.896
  513HOH     H1 1744   0.352   1.156   1.989
  513HOH     H2 1745   0.415   1.191   1.856
  514HOH      O 1746   1.464   1.790   0.880
  514HOH     H1 1747   1.479   1.885   0.883
  514HOH     H2 1748   1.485   1.759   0.968
  515HOH      O 1749   3.953   0.717   2.585
  515HOH     H1 1750   3.967   0.812   2.589
  515HOH     H2 1751   3.975   0.686   2.672
  516HOH      O 1752   0.589   3.616   0.446
  516HOH     H1 1753   0.671   3.604   0.399
  516HOH     H2 1754   0.607   3.685   0.510
  517HOH      O 1755   3.987   2.912   2.024
  517HOH     H1 1756   3.927   2.865   2.081
  517HOH     H2 1757   4.016   2.987   2.076
  518HOH      O 1758   3.307   3.452   0.059
  518HOH     H1 1759   3.257   3.518   0.011
  518HOH     H2 1760   3.291   3.471   0.151
  519HOH      O 1761   0.336   1.737   1.590
  519HOH     H1 1762   0.344   1.725   1.496
  519HOH     H2 1763   0.266   1.676   1.616
  520HOH      O 1764   3.218   3.003   2.901
  520HOH     H1 1765   3.127   3.027   2.919
  520HOH     H2 1766   3.261   3.005   2.987
  521HOH      O 1767   2.096   2.075   0.238
  521HOH     H1 1768   2.191   2.078   0.234
  521HOH     H2 1769   2.077   2.012   0.309
  522HOH      O 1770   1.805   2.977   1.576
  522HOH     H1 1771   1.836   2.988   1.666
  522HOH     H2 1772   1.738   3.046   1.566
  523HOH      O 1773   2.951   1.556   0.294
  523HOH     H1 1774   3.014   1.521   0.230
  523HOH     H2 1775   2.949   1.650   0.276
  524HOH      O 1776   2.381   1.393   1.426
  524HOH     H1 1777   2.330   1.315   1.448
  524HOH     H2 1778   2.469   1.360   1.406
  525HOH      O 1779   0.064   3.842   2.554
  525HOH     H1 1780   0.113   3.807   2.629
  525HOH     H2 1781   0.063   3.936   2.568
  526HOH      O 1782   0.587   3.157   3.130
  526HOH     H1 1783   0.670   3.110   3.122
  526HOH     H2 1784   0.586   3.189   3.220
  527HOH      O 1785   0.613   3.868   0.622
  527HOH     H1 1786   0.588   3.945   0.572
  527HOH     H2 1787   0.669   3.902   0.693
  528HOH      O 1788   1.503   3.106   1.945
  528HOH     H1 1789   1.486   3.030   2.000
  528HOH     H2 1790   1.588   3.139   1.975
  529HOH      O 1791   3.072   2.172   3.913
  529HOH     H1 1792   2.982   2.192   3.936
  529HOH     H2 1793   3.098   2.102   3.973
  530HOH      O 1794   0.596   2.626   3.805
  530HOH     H1 1795   0.550   2.600   3.726
  530HOH     H2 1796   0.658   2.554   3.821
  531HOH      O 1797   1.863   2.710   1.987
  531HOH     H1 1798   1.874   2.773   2.058
  531HOH     H2 1799   1.933   2.646   2.001
  532HOH      O 1800   3.808   4.033   2.626
  532HOH     H1 1801   3.749   3.958   2.638
  532HOH     H2 1802   3.889   4.008   2.672
  533HOH      O 1803   0.747   2.938   4.044
  533HOH     H1 1804   0.837   2.912   4.021
  533HOH     H2 1805   0.714   2.981   3.965
  534HOH      O 1806   0.806   1.176   0.943
  534HOH     H1 1807   0.895   1.211   0.930
  534HOH     H2 1808   0.816   1.111   1.013
  535HOH      O 1809   0.260   0.399   2.637
  535HOH     H1 1810   0.343   0.375   2.596
  535HOH     H2 1811   0.256   0.494   2.629
  536HOH      O 1812   2.810   1.998   1.904
  536HOH     H1 1813   2.806   2.002   2.000
  536HOH     H2 1814   2.749   1.928   1.881
  537HOH      O 1815   2.805   1.456   1.411
  537HOH     H1 1816   2.856   1.497   1.480
  537HOH     H2 1817   2.743   1.524   1.384
  538HOH      O 1818   3.045   2.172   0.452
  538HOH     H1 1819   3.008   2.187   0.365
  538HOH     H2 1820   2.980   2.117   0.496
  539HOH      O 1821   3.405   2.803   3.873
  539HOH     H1 1822   3.391   2.870   3.806
  539HOH     H2 1823   3.317   2.774   3.896
  540HOH      O 1824   2.593   1.472   2.311
  540HOH     H1 1825   2.554   1.547   2.266
  540HOH     H2 1826   2.683   1.500   2.330
  541HOH      O 1827   0.943   2.835   3.686
  541HOH     H1 1828   0.946   2.923   3.647
  541HOH     H2 1829   0.941   2.777   3.610
  542HOH      O 1830   1.078   2.479   0.790
  542HOH     H1 1831   1.148   2.454   0.730
  542HOH     H2 1832   1.121   2.493   0.874
  543HOH      O 1833   1.817   3.064   0.755
  543HOH     H1 1834   1.898   3.092   0.714
  543HOH     H2 1835   1.834   3.070   0.849
  544HOH      O 1836   3.454   2.427   2.288
  544HOH     H1 1837   3.435   2.502   2.345
  544HOH     H2 1838   3.524   2.380   2.332
  545HOH      O 1839   2.118   0.267   3.738
  545HOH     H1 1840   2.182   0.335   3.762
  545HOH     H2 1841   2.120   0.265   3.643
  546HOH      O 1842   0.788   3.827   1.459
  546HOH     H1 1843   0.825   3.827   1.547
  546HOH     H2 1844   0.793   3.735   1.431
  547HOH      O 1845   1.382   2.188   2.930
  547HOH     H1 1846   1.337   2.268   2.957
  547HOH     H2 1847   1.467   2.218   2.897
  548HOH      O 1848   2.951   3.841   2.846
  548HOH     H1 1849   2.954   3.825   2.751
  548HOH     H2 1850   2.927   3.933   2.853
  549HOH      O 1851   0.917   2.305   0.571
  549HOH     H1 1852   0.986   2.242   0.551
  549HOH     H2 1853   0.962   2.378   0.612
  550HOH      O 1854   0.828   0.752   1.591
  550HOH     H1 1855   0.739   0.787   1.597
  550HOH     H2 1856   0.832   0.685   1.659
  551HOH      O 1857   3.264   1.550   0.455
  551HOH     H1 1858   3.232   1.518   0.371
  551HOH     H2 1859   3.281   1.471   0.507
  552HOH      O 1860   3.138   3.994   3.043
  552HOH     H1 1861   3.179   4.010   3.128
  552HOH     H2 1862   3.049   4.027   3.053
  553HOH      O 1863   2.972   3.681   0.333
  553HOH     H1 1864   2.880   3.704   0.322
  553HOH     H2 1865   3.016   3.724   0.260
  554HOH      O 1866   1.916   2.977   3.180
  554HOH     H1 1867   1.967   3.058   3.177
  554HOH     H2 1868   1.854   2.991   3.252
  555HOH      O 1869   2.026   0.751   1.940
  555HOH     H1 1870   2.110   0.774   1.979
  555HOH     H2 1871   2.030   0.788   1.852
  556HOH      O 1872   0.145   0.702   0.257
  556HOH     H1 1873   0.050   0.694   0.249
  556HOH     H2 1874   0.164   0.790   0.226
  557HOH      O 1875   1.329   3.759   2.222
  557HOH     H1 1876   1.362   3.671   2.204
  557HOH     H2 1877   1.343   3.772   2.316
  558HOH      O 1878   2.245   3.395   0.379
  558HOH     H1 1879   2.190   3.459   0.333
  558HOH     H2 1880   2.213   3.397   0.469
  559HOH      O 1881   1.930   2.495   2.936
  559HOH     H1 1882   1.953   2.457   3.021
  559HOH     H2 1883   1.903   2.420   2.883
  560HOH      O 1884   1.699   2.612   3.307
  560HOH     H1 1885   1.640   2.687   3.319
  560HOH     H2 1886   1.679   2.555   3.381
  561HOH      O 1887   0.849   3.047   2.096
  561HOH     H1 1888   0.806   2.995   2.164
  561HOH     H2 1889   0.813   3.013   2.014
  562HOH      O 1890   1.470   0.837   1.419
  562HOH     H1 1891   1.528   0.891   1.366
  562HOH     H2 1892   1.523   0.761   1.444
  563HOH      O 1893   0.174   2.720   0.789
  563HOH     H1 1894   0.247   2.681   0.837
  563HOH     H2 1895   0.168   2.667   0.709
  564HOH      O 1896   3.251   1.063   0.632
  564HOH     H1 1897   3.178   1.066   0.569
  564HOH     H2 1898   3.270   1.155   0.650
  565HOH      O 1899   1.319   1.909   3.902
  565HOH     H1 1900   1.292   1.896   3.811
  565HOH     H2 1901   1.264   1.981   3.933
  566HOH      O 1902   1.622   3.110   1.298
  566HOH     H1 1903   1.588   3.197   1.318
  566HOH     H2 1904   1.567   3.079   1.226
  567HOH      O 1905   0.388   3.445   2.285
  567HOH     H1 1906   0.400   3.433   2.191
  567HOH     H2 1907   0.401   3.539   2.299
  568HOH      O 1908   0.879   1.709   1.205
  568HOH     H1 1909   0.951   1.664   1.163
  568HOH     H2 1910   0.919   1.753   1.280
  569HOH      O 1911   0.393   3.177   0.423
  569HOH     H1 1912   0.332   3.184   0.349
  569HOH     H2 1913   0.407   3.083   0.433
  570HOH      O 1914   0.125   2.079   4.066
  570HOH     H1 1915   0.198   2.040   4.018
  570HOH     H2 1916   0.047   2.045   4.022
  571HOH      O 1917   1.498   3.474   1.729
  571HOH     H1 1918   1.578   3.523   1.746
  571HOH     H2 1919   1.527   3.384   1.715
  572HOH      O 1920   3.792   2.760   2.203
  572HOH     H1 1921   3.798   2.666   2.218
  572HOH     H2 1922   3.698   2.777   2.200
  573HOH      O 1923   3.338   1.043   0.009
  573HOH     H1 1924   3.388   1.005  -0.063
  573HOH     H2 1925   3.371   0.997   0.087
  574HOH      O 1926   2.097   2.025   1.941
  574HOH     H1 1927   2.027   1.964   1.918
  574HOH     H2 1928   2.060   2.112   1.926
  575HOH      O 1929   1.156   2.794   0.968
  575HOH     H1 1930   1.072   2.806   1.013
  575HOH     H2 1931   1.222   2.810   1.036
  576HOH      O 1932   3.102   4.013   1.526
  576HOH     H1 1933   3.063   3.929   1.501
  576HOH     H2 1934   3.031   4.076   1.521
  577HOH      O 1935   3.999   0.430   2.509
  577HOH     H1 1936   4.090   0.417   2.484
  577HOH     H2 1937   3.989   0.525   2.514
  578HOH      O 1938   3.344   1.724   2.594
  578HOH     H1 1939   3.264   1.776   2.593
  578HOH     H2 1940   3.415   1.789   2.595
  579HOH      O 1941   1.192   0.653   3.906
  579HOH     H1 1942   1.130   0.690   3.843
  579HOH     H2 1943   1.138   0.619   3.977
  580HOH      O 1944   1.643   3.660   3.525
  580HOH     H1 1945   1.698   3.601   3.474
  580HOH     H2 1946   1.681   3.659   3.613
  581HOH      O 1947   3.713   1.493   0.555
  581HOH     H1 1948   3.679   1.442   0.629
  581HOH     H2 1949   3.661   1.573   0.556
  582HOH      O 1950   1.598   0.390   0.965
  582HOH     H1 1951   1.665   0.399   0.898
  582HOH     H2 1952   1.627   0.317   1.019
  583HOH      O 1953   3.510   1.278   0.081
  583HOH     H1 1954   3.446   1.207   0.088
  583HOH     H2 1955   3.546   1.270  -0.007
  584HOH      O 1956   3.068   3.543   3.295
  584HOH     H1 1957   3.014   3.597   3.237
  584HOH     H2 1958   3.016   3.464   3.309
  585HOH      O 1959   1.596   1.028   1.989
  585HOH     H1 1960   1.589   1.079   1.908
  585HOH     H2 1961   1.690   1.012   1.999
  586HOH      O 1962   0.050   1.075   0.312
  586HOH     H1 1963   0.118   1.103   0.374
  586HOH     H2 1964   0.024   1.155   0.268
  587HOH      O 1965   0.430   3.185   1.628
  587HOH     H1 1966   0.462   3.122   1.693
  587HOH     H2 1967   0.375   3.133   1.569
  588HOH      O 1968   3.623   3.674   3.191
  588HOH     H1 1969   3.544   3.715   3.225
  588HOH     H2 1970   3.605   3.580   3.194
  589HOH      O 1971   3.728   2.015   0.272
  589HOH     H1 1972   3.768   1.955   0.209
  589HOH     H2 1973   3.634   1.996   0.266
  590HOH      O 1974   2.908   1.040   2.992
  590HOH     H1 1975   2.930   1.068   3.081
  590HOH     H2 1976   2.959   1.098   2.935
  591HOH      O 1977   0.520   0.933   0.793
  591HOH     H1 1978   0.599   0.926   0.847
  591HOH     H2 1979   0.517   0.851   0.744
  592HOH      O 1980   0.063   1.614   0.753
  592HOH     H1 1981   0.114   1.616   0.672
  592HOH     H2 1982   0.037   1.705   0.766
  593HOH      O 1983   0.667   0.647   3.705
  593HOH     H1 1984   0.637   0.733   3.734
  593HOH     H2 1985   0.621   0.586   3.763
  594HOH      O 1986   0.133   2.020   2.628
  594HOH     H1 1987   0.071   1.992   2.696
  594HOH     H2 1988   0.156   1.940   2.582
  595HOH      O 1989   2.944   1.691   0.572
  595HOH     H1 1990   2.991   1.740   0.639
  595HOH     H2 1991   3.011   1.660   0.511
  596HOH      O 1992   3.922   1.954   3.858
  596HOH     H1 1993   3.927   2.013   3.782
  596HOH     H2 1994   3.931   1.866   3.821
  597HOH      O 1995   2.385   2.788   3.854
  597HOH     H1 1996   2.452   2.737   3.810
  597HOH     H2 1997   2.331   2.824   3.783
  598HOH      O 1998   1.106   2.662   1.548
  598HOH     H1 1999   1.114   2.683   1.641
  598HOH     H2 2000   1.012   2.656   1.532
  599HOH      O 2001   3.498   3.629   1.897
  599HOH     H1 2002   3.443   3.574   1.953
  599HOH     H2 2003   3.454   3.628   1.812
  600HOH      O 2004   0.474   1.168   0.683
  600HOH     H1 2005   0.383   1.139   0.692
  600HOH     H2 2006   0.525   1.100   0.727
  601HOH      O 2007   0.670   2.137   1.312
  601HOH     H1 2008   0.637   2.221   1.282
  601HOH     H2 2009   0.722   2.104   1.238
  602HOH      O 2010   0.288   3.343   1.985
  602HOH     H1 2011   0.202   3.333   1.943
  602HOH     H2 2012   0.285   3.283   2.059
  603HOH      O 2013   3.871   2.510   1.741
  603HOH     H1 2014   3.786   2.552   1.727
  603HOH     H2 2015   3.909   2.503   1.654
  604HOH      O 2016   0.781   1.438  -0.010
  604HOH     H1 2017   0.867   1.425   0.030
  604HOH     H2 2018   0.743   1.512   0.038
  605HOH      O 2019   3.520   3.459   1.428
  605HOH     H1 2020   3.535   3.531   1.489
  605HOH     H2 2021   3.608   3.425   1.409
  606HOH      O 2022   2.520   1.289   3.643
  606HOH     H1 2023   2.442   1.342   3.657
  606HOH     H2 2024   2.560   1.325   3.564
  607HOH      O 2025   0.300   0.657   1.890
  607HOH     H1 2026   0.348   0.646   1.972
  607HOH     H2 2027   0.362   0.631   1.822
  608HOH      O 2028   3.532   0.493   2.177
  608HOH     H1 2029   3.496   0.412   2.213
  608HOH     H2 2030   3.515   0.487   2.083
  609HOH      O 2031   1.959   1.237   1.219
  609HOH     H1 2032   1.946   1.282   1.135
  609HOH     H2 2033   1.948   1.306   1.285
  610HOH      O 2034   0.049   1.034   1.970
  610HOH     H1 2035  -0.016   1.091   1.929
  610HOH     H2 2036   0.109   1.012   1.898
  611HOH      O 2037   0.235   3.384   1.237
  611HOH     H1 2038   0.222   3.465   1.287
  611HOH     H2 2039   0.306   3.339   1.283
  612HOH      O 2040   2.131   2.460   2.486
  612HOH     H1 2041   2.224   2.454   2.467
  612HOH     H2 2042   2.094   2.381   2.446
  613HOH      O 2043   2.994   3.393   0.179
  613HOH     H1 2044   3.039   3.316   0.144
  613HOH     H2 2045   3.061   3.462   0.178
  614HOH      O 2046   1.574   0.055   4.002
  614HOH     H1 2047   1.633   0.035   4.074
  614HOH     H2 2048   1.575  -0.024   3.948
  615HOH      O 2049   2.284   4.010   0.382
  615HOH     H1 2050   2.304   4.101   0.363
  615HOH     H2 2051   2.191   4.000   0.358
  616HOH      O 2052   2.647   2.476   3.933
  616HOH     H1 2053   2.600   2.524   3.866
  616HOH     H2 2054   2.739   2.479   3.905
  617HOH      O 2055   1.863   2.878   2.183
  617HOH     H1 2056   1.858   2.829   2.265
  617HOH     H2 2057   1.844   2.969   2.208
  618HOH      O 2058   2.312   0.953   1.657
  618HOH     H1 2059   2.314   0.878   1.716
  618HOH     H2 2060   2.354   0.922   1.577
  619HOH      O 2061   0.353   2.263   2.925
  619HOH     H1 2062   0.382   2.260   2.834
  619HOH     H2 2063   0.396   2.341   2.961
  620HOH      O 2064   2.619   3.726   3.238
  620HOH     H1 2065   2.660   3.715   3.324
  620HOH     H2 2066   2.525   3.721   3.255
  621HOH      O 2067   1.071   3.007   0.370
  621HOH     H1 2068   1.129   2.930   0.376
  621HOH     H2 2069   1.131   3.080   0.357
  622HOH      O 2070   1.924   0.414   3.864
  622HOH     H1 2071   1.991   0.359   3.823
  622HOH     H2 2072   1.866   0.352   3.907
  623HOH      O 2073   1.102   0.899   0.617
  623HOH     H1 2074   1.046   0.873   0.691
  623HOH     H2 2075   1.166   0.828   0.610
  624HOH      O 2076   2.121   0.850   0.620
  624HOH     H1 2077   2.124   0.890   0.707
  624HOH     H2 2078   2.201   0.798   0.615
  625HOH      O 2079   2.718   3.387   0.814
  625HOH     H1 2080   2.704   3.377   0.719
  625HOH     H2 2081   2.631   3.373   0.852
  626HOH      O 2082   3.645   1.911   2.017
  626HOH     H1 2083   3.733   1.891   2.049
  626HOH     H2 2084   3.658   1.947   1.930
  627HOH      O 2085   3.401   3.323   3.284
  627HOH     H1 2086   3.387   3.412   3.250
  627HOH     H2 2087   3.375   3.266   3.212
  628HOH      O 2088   3.851   0.902   0.736
  628HOH     H1 2089   3.821   0.813   0.755
  628HOH     H2 2090   3.782   0.959   0.771
  629HOH      O 2091   0.052   2.627   0.102
  629HOH     H1 2092  -0.006   2.562   0.141
  629HOH     H2 2093   0.140   2.596   0.122
  630HOH      O 2094   2.491   1.396   2.547
  630HOH     H1 2095   2.523   1.426   2.462
  630HOH     H2 2096   2.401   1.368   2.530
  631HOH      O 2097   0.583   1.476   0.999
  631HOH     H1 2098   0.524   1.467   0.924
  631HOH     H2 2099   0.579   1.391   1.044
  632HOH      O 2100   1.726   1.516   3.561
  632HOH     H1 2101   1.716   1.564   3.643
  632HOH     H2 2102   1.679   1.569   3.496
  633HOH      O 2103   0.128   3.773   2.321
  633HOH     H1 2104   0.218   3.747   2.341
  633HOH     H2 2105   0.093   3.805   2.404
  634HOH      O 2106   0.549   0.343   1.080
  634HOH     H1 2107   0.519   0.257   1.051
  634HOH     H2 2108   0.508   0.355   1.165
  635HOH      O 2109   2.871   0.526   2.059
  635HOH     H1 2110   2.899   0.534   2.150
  635HOH     H2 2111   2.927   0.588   2.012
  636HOH      O 2112   3.350   0.699   2.832
  636HOH     H1 2113   3.260   0.728   2.820
  636HOH     H2 2114   3.350   0.608   2.802
  637HOH      O 2115   1.414   3.072   2.846
  637HOH     H1 2116   1.383   3.161   2.824
  637HOH     H2 2117   1.408   3.024   2.764
  638HOH      O 2118   1.972   1.484   2.752
  638HOH     H1 2119   2.020   1.401   2.751
  638HOH     H2 2120   2.037   1.551   2.731
  639HOH      O 2121   1.856   0.353   0.469
  639HOH     H1 2122   1.916   0.409   0.420
  639HOH     H2 2123   1.791   0.414   0.507
  640HOH      O 2124   1.117   1.187   0.228
  640HOH     H1 2125   1.205   1.190   0.190
  640HOH     H2 2126   1.059   1.173   0.153
  641HOH      O 2127   3.792   0.943   3.656
  641HOH     H1 2128   3.851   0.870   3.674
  641HOH     H2 2129   3.827   0.983   3.576
  642HOH      O 2130   0.433   3.787   0.308
  642HOH     H1 2131   0.355   3.733   0.295
  642HOH     H2 2132   0.492   3.732   0.360
  643HOH      O 2133   3.736   4.039   1.145
  643HOH     H1 2134   3.772   3.966   1.194
  643HOH     H2 2135   3.782   4.116   1.180
  644HOH      O 2136   3.272   2.108   0.254
  644HOH     H1 2137   3.282   2.196   0.218
  644HOH     H2 2138   3.202   2.116   0.319
  645HOH      O 2139   3.119   3.034   0.378
  645HOH     H1 2140   3.071   3.107   0.417
  645HOH     H2 2141   3.052   2.982   0.335
  646HOH      O 2142   1.998   2.387   0.749
  646HOH     H1 2143   1.919   2.358   0.794
  646HOH     H2 2144   2.011   2.478   0.778
  647HOH      O 2145   1.695   1.254   3.490
  647HOH     H1 2146   1.720   1.338   3.529
  647HOH     H2 2147   1.655   1.205   3.562
  648HOH      O 2148   3.492   1.385   3.175
  648HOH     H1 2149   3.444   1.314   3.220
  648HOH     H2 2150   3.559   1.412   3.238
  649HOH      O 2151   2.393   0.777   1.856
  649HOH     H1 2152   2.482   0.781   1.891
  649HOH     H2 2153   2.340   0.827   1.919
  650HOH      O 2154   2.778   0.806   2.896
  650HOH     H1 2155   2.823   0.878   2.941
  650HOH     H2 2156   2.692   0.843   2.873
  651HOH      O 2157   3.543   0.582   3.583
  651HOH     H1 2158   3.459   0.536   3.572
  651HOH     H2 2159   3.573   0.598   3.493
  652HOH      O 2160   2.241   1.153   0.957
  652HOH     H1 2161   2.240   1.244   0.927
  652HOH     H2 2162   2.242   1.160   1.053
  653HOH      O 2163   1.536   1.047   0.222
  653HOH     H1 2164   1.481   1.122   0.200
  653HOH     H2 2165   1.474   0.981   0.253
  654HOH      O 2166   2.328   1.617   1.828
  654HOH     H1 2167   2.402   1.612   1.767
  654HOH     H2 2168   2.300   1.709   1.823
  655HOH      O 2169   1.481   0.234   1.205
  655HOH     H1 2170   1.560   0.200   1.162
  655HOH     H2 2171   1.512   0.265   1.290
  656HOH      O 2172   2.345   1.543   3.639
  656HOH     H1 2173   2.266   1.566   3.687
  656HOH     H2 2174   2.408   1.611   3.663
  657HOH      O 2175   3.591   1.463   2.010
  657HOH     H1 2176   3.560   1.518   1.939
  657HOH     H2 2177   3.576   1.515   2.089
  658HOH      O 2178   1.858   3.547   1.306
  658HOH     H1 2179   1.891   3.604   1.236
  658HOH     H2 2180   1.781   3.591   1.339
  659HOH      O 2181   0.923   3.356   2.551
  659HOH     H1 2182   0.963   3.394   2.472
  659HOH     H2 2183   0.871   3.428   2.587
  660HOH      O 2184   0.645   2.061   1.632
  660HOH     H1 2185   0.618   2.036   1.544
  660HOH     H2 2186   0.699   2.138   1.620
  661HOH      O 2187   2.131   1.372   3.104
  661HOH     H1 2188   2.169   1.286   3.121
  661HOH     H2 2189   2.178   1.405   3.027
  662HOH      O 2190   1.889   1.473   3.828
  662HOH     H1 2191   1.982   1.453   3.824
  662HOH     H2 2192   1.855   1.415   3.897
  663HOH      O 2193   0.264   2.462   0.728
  663HOH     H1 2194   0.345   2.430   0.689
  663HOH     H2 2195   0.248   2.403   0.802
  664HOH      O 2196   2.302   3.007   1.526
  664HOH     H1 2197   2.281   2.998   1.433
  664HOH     H2 2198   2.235   2.956   1.571
  665HOH      O 2199   3.882   1.895   0.101
  665HOH     H1 2200   3.867   1.802   0.084
  665HOH     H2 2201   3.884   1.935   0.014
  666HOH      O 2202   0.368   3.079   0.080
  666HOH     H1 2203   0.417   3.000   0.103
  666HOH     H2 2204   0.288   3.073   0.131
  667HOH      O 2205   0.425   2.668   4.011
  667HOH     H1 2206   0.482   2.640   3.939
  667HOH     H2 2207   0.403   2.586   4.056
  668HOH      O 2208   2.655   1.669   1.375
  668HOH     H1 2209   2.636   1.633   1.288
  668HOH     H2 2210   2.643   1.763   1.364
  669HOH      O 2211   1.197   1.868   2.803
  669HOH     H1 2212   1.239   1.893   2.885
  669HOH     H2 2213   1.235   1.782   2.782
  670HOH      O 2214   0.438   0.271   1.883
  670HOH     H1 2215   0.441   0.324   1.963
  670HOH     H2 2216   0.346   0.271   1.857
  671HOH      O 2217   3.854   1.452   1.835
  671HOH     H1 2218   3.774   1.453   1.887
  671HOH     H2 2219   3.915   1.507   1.883
  672HOH      O 2220   3.518   2.367   0.339
  672HOH     H1 2221   3.582   2.305   0.305
  672HOH     H2 2222   3.547   2.452   0.306
  673HOH      O 2223   2.061   3.560   0.214
  673HOH     H1 2224   2.074   3.494   0.145
  673HOH     H2 2225   1.976   3.600   0.193
  674HOH      O 2226   2.382   2.842   2.127
  674HOH     H1 2227   2.337   2.813   2.048
  674HOH     H2 2228   2.312   2.865   2.187
  675HOH      O 2229   0.625   3.188   1.934
  675HOH     H1 2230   0.646   3.166   2.025
  675HOH     H2 2231   0.533   3.162   1.925
  676HOH      O 2232   0.507   1.430   0.737
  676HOH     H1 2233   0.517   1.335   0.745
  676HOH     H2 2234   0.415   1.442   0.714
  677HOH      O 2235   3.784   3.587   2.116
  677HOH     H1 2236   3.715   3.652   2.130
  677HOH     H2 2237   3.864   3.638   2.105
  678HOH      O 2238   0.698   3.672   3.589
  678HOH     H1 2239   0.631   3.704   3.650
  678HOH     H2 2240   0.777   3.663   3.642
  679HOH      O 2241   3.177   0.532   0.009
  679HOH     H1 2242   3.166   0.611   0.063
  679HOH     H2 2243   3.090   0.491   0.009
  680HOH      O 2244   1.184   0.582   3.393
  680HOH     H1 2245   1.088   0.581   3.401
  680HOH     H2 2246   1.207   0.491   3.375
  681HOH      O 2247   1.300   0.366   2.952
  681HOH     H1 2248   1.335   0.356   2.864
  681HOH     H2 2249   1.346   0.442   2.988
  682HOH      O 2250   2.572   2.599   3.702
  682HOH     H1 2251   2.496   2.541   3.699
  682HOH     H2 2252   2.584   2.627   3.611
  683HOH      O 2253   0.810   1.902   3.486
  683HOH     H1 2254   0.832   1.993   3.467
  683HOH     H2 2255   0.854   1.851   3.418
  684HOH      O 2256   3.852   0.989   3.158
  684HOH     H1 2257   3.831   0.934   3.082
  684HOH     H2 2258   3.767   1.015   3.193
  685HOH      O 2259   3.499   2.204   0.589
  685HOH     H1 2260   3.484   2.257   0.510
  685HOH     H2 2261   3.593   2.184   0.587
  686HOH      O 2262   0.885   0.839   1.277
  686HOH     H1 2263   0.800   0.838   1.322
  686HOH     H2 2264   0.935   0.908   1.321
  687HOH      O 2265   0.804   2.654   2.584
  687HOH     H1 2266   0.770   2.574   2.625
  687HOH     H2 2267   0.825   2.712   2.658
  688HOH      O 2268   2.984   3.292   2.680
  688HOH     H1 2269   2.941   3.234   2.617
  688HOH     H2 2270   2.933   3.283   2.760
  689HOH      O 2271   2.224   0.119   0.802
  689HOH     H1 2272   2.152   0.165   0.759
  689HOH     H2 2273   2.226   0.033   0.759
  690HOH      O 2274   2.601   4.068   0.192
  690HOH     H1 2275   2.691   4.034   0.189
  690HOH     H2 2276   2.547   3.989   0.203
  691HOH      O 2277   2.614   1.817   1.921
  691HOH     H1 2278   2.634   1.732   1.881
  691HOH     H2 2279   2.584   1.796   2.009
  692HOH      O 2280   3.514   3.630   3.649
  692HOH     H1 2281   3.436   3.591   3.688
  692HOH     H2 2282   3.555   3.677   3.721
  693HOH      O 2283   2.449   3.878   3.472
  693HOH     H1 2284   2.419   3.804   3.418
  693HOH     H2 2285   2.401   3.868   3.554
  694HOH      O 2286   3.019   2.740   3.668
  694HOH     H1 2287   3.069   2.672   3.714
  694HOH     H2 2288   2.949   2.762   3.729
  695HOH      O 2289   2.689   2.273   2.773
  695HOH     H1 2290   2.773   2.314   2.794
  695HOH     H2 2291   2.630   2.304   2.842
  696HOH      O 2292   3.165   3.477   2.547
  696HOH     H1 2293   3.090   3.437   2.591
  696HOH     H2 2294   3.210   3.404   2.505
  697HOH      O 2295   2.531   2.857   2.790
  697HOH     H1 2296   2.524   2.797   2.715
  697HOH     H2 2297   2.552   2.942   2.751
  698HOH      O 2298   1.958   1.273   2.226
  698HOH     H1 2299   1.990   1.239   2.143
  698HOH     H2 2300   1.892   1.338   2.202
  699HOH      O 2301   0.949   3.462   2.829
  699HOH     H1 2302   1.039   3.488   2.809
  699HOH     H2 2303   0.934   3.384   2.775
  700HOH      O 2304   0.043   0.007   2.000
  700HOH     H1 2305   0.050   0.031   2.092
  700HOH     H2 2306  -0.049   0.023   1.978
  701HOH      O 2307   1.831   1.945   1.907
  701HOH     H1 2308   1.800   2.027   1.946
  701HOH     H2 2309   1.815   1.956   1.813
  702HOH      O 2310   2.412   2.529   1.765
  702HOH     H1 2311   2.496   2.571   1.750
  702HOH     H2 2312   2.409   2.513   1.860
  703HOH      O 2313   3.643   0.232   3.464
  703HOH     H1 2314   3.589   0.255   3.389
  703HOH     H2 2315   3.656   0.137   3.457
  704HOH      O 2316   0.332   2.159   1.161
  704HOH     H1 2317   0.255   2.182   1.213
  704HOH     H2 2318   0.374   2.089   1.210
  705HOH      O 2319   3.395   1.324   2.505
  705HOH     H1 2320   3.301   1.335   2.491
  705HOH     H2 2321   3.432   1.317   2.417
  706HOH      O 2322   0.786   2.405   3.535
  706HOH     H1 2323   0.721   2.337   3.551
  706HOH     H2 2324   0.761   2.442   3.450
  707HOH      O 2325   1.386   3.537   0.726
  707HOH     H1 2326   1.432   3.453   0.730
  707HOH     H2 2327   1.301   3.520   0.766
  708HOH      O 2328   0.993   0.125   0.738
  708HOH     H1 2329   0.953   0.187   0.676
  708HOH     H2 2330   1.064   0.174   0.778
  709HOH      O 2331   2.623   0.790   1.957
  709HOH     H1 2332   2.675   0.727   1.907
  709HOH     H2 2333   2.672   0.803   2.038
  710HOH      O 2334   3.940   3.931   2.872
  710HOH     H1 2335   3.959   4.017   2.910
  710HOH     H2 2336   4.025   3.899   2.843
  711HOH      O 2337   0.609   2.456   0.938
  711HOH     H1 2338   0.576   2.383   0.886
  711HOH     H2 2339   0.629   2.524   0.874
  712HOH      O 2340   0.768   0.523   1.425
  712HOH     H1 2341   0.753   0.443   1.475
  712HOH     H2 2342   0.797   0.587   1.490
  713HOH      O 2343   1.945   2.718   3.246
  713HOH     H1 2344   1.946   2.808   3.212
  713HOH     H2 2345   1.852   2.698   3.257
  714HOH      O 2346   3.116   0.178   3.615
  714HOH     H1 2347   3.147   0.132   3.692
  714HOH     H2 2348   3.041   0.127   3.585
  715HOH      O 2349   0.952  -0.021   1.222
  715HOH     H1 2350   0.860   0.003   1.228
  715HOH     H2 2351   0.994   0.053   1.177
  716HOH      O 2352   0.712   0.836   0.988
  716HOH     H1 2353   0.659   0.757   0.995
  716HOH     H2 2354   0.660   0.904   1.030
  717HOH      O 2355   3.648   2.674   1.815
  717HOH     H1 2356   3.574   2.687   1.874
  717HOH     H2 2357   3.687   2.761   1.806
  718HOH      O 2358   0.184   3.734   0.667
  718HOH     H1 2359   0.142   3.698   0.589
  718HOH     H2 2360   0.240   3.663   0.698
  719HOH      O 2361   3.025   2.533   2.438
  719HOH     H1 2362   2.994   2.455   2.393
  719HOH     H2 2363   3.065   2.586   2.369
  720HOH      O 2364   1.555   1.324   3.276
  720HOH     H1 2365   1.480   1.334   3.335
  720HOH     H2 2366   1.629   1.306   3.334
  721HOH      O 2367   3.703   2.240   3.264
  721HOH     H1 2368   3.674   2.157   3.226
  721HOH     H2 2369   3.660   2.306   3.210
  722HOH      O 2370   1.329   1.799   0.439
  722HOH     H1 2371   1.308   1.882   0.396
  722HOH     H2 2372   1.274   1.799   0.517
  723HOH      O 2373   2.204   1.128   3.556
  723HOH     H1 2374   2.198   1.064   3.485
  723HOH     H2 2375   2.264   1.195   3.524
  724HOH      O 2376   3.288   2.027   0.576
  724HOH     H1 2377   3.223   2.094   0.598
  724HOH     H2 2378   3.372   2.072   0.585
  725HOH      O 2379   3.230   1.977   1.747
  725HOH     H1 2380   3.279   1.980   1.829
  725HOH     H2 2381   3.146   1.938   1.770
  726HOH      O 2382   1.200   0.449   1.973
  726HOH     H1 2383   1.247   0.528   1.945
  726HOH     H2 2384   1.193   0.457   2.068
  727HOH      O 2385   1.742   3.972   0.132
  727HOH     H1 2386   1.802   4.042   0.157
  727HOH     H2 2387   1.669   3.979   0.194
  728HOH      O 2388   3.333   0.374   3.620
  728HOH     H1 2389   3.255   0.319   3.610
  728HOH     H2 2390   3.303   0.450   3.670
  729HOH      O 2391   1.388   1.269   0.182
  729HOH     H1 2392   1.346   1.348   0.216
  729HOH     H2 2393   1.406   1.290   0.090
  730HOH      O 2394   2.598   1.029   2.748
  730HOH     H1 2395   2.627   1.106   2.797
  730HOH     H2 2396   2.508   1.013   2.778
  731HOH      O 2397   0.600   0.100   3.200
  731HOH     H1 2398   0.607   0.173   3.260
  731HOH     H2 2399   0.559   0.030   3.251
  732HOH      O 2400   0.556   4.025   0.937
  732HOH     H1 2401   0.642   4.009   0.896
  732HOH     H2 2402   0.529   3.939   0.969
  733HOH      O 2403   0.789   0.564   1.150
  733HOH     H1 2404   0.828   0.652   1.143
  733HOH     H2 2405   0.781   0.550   1.244
  734HOH      O 2406   1.418   1.422   2.420
  734HOH     H1 2407   1.327   1.401   2.400
  734HOH     H2 2408   1.445   1.357   2.484
  735HOH      O 2409   1.311   1.575   0.771
  735HOH     H1 2410   1.359   1.648   0.810
  735HOH     H2 2411   1.359   1.497   0.800
  736HOH      O 2412   3.027   2.287   3.104
  736HOH     H1 2413   3.064   2.344   3.172
  736HOH     H2 2414   3.071   2.203   3.118
  737HOH      O 2415   0.692   2.417   2.663
  737HOH     H1 2416   0.746   2.355   2.712
  737HOH     H2 2417   0.607   2.374   2.656
  738HOH      O 2418   2.689   4.009   3.875
  738HOH     H1 2419   2.606   4.025   3.919
  738HOH     H2 2420   2.681   4.054   3.790
  739HOH      O 2421   1.736   0.224   1.346
  739HOH     H1 2422   1.747   0.240   1.252
  739HOH     H2 2423   1.809   0.270   1.387
  740HOH      O 2424   0.341   0.947   1.545
  740HOH     H1 2425   0.283   0.989   1.481
  740HOH     H2 2426   0.285   0.932   1.621
  741HOH      O 2427   0.865   1.023   3.466
  741HOH     H1 2428   0.874   1.096   3.405
  741HOH     H2 2429   0.890   1.059   3.551
  742HOH      O 2430   1.513   1.695   1.135
  742HOH     H1 2431   1.518   1.615   1.188
  742HOH     H2 2432   1.513   1.766   1.199
  743HOH      O 2433   1.668   2.721   2.676
  743HOH     H1 2434   1.673   2.732   2.771
  743HOH     H2 2435   1.581   2.685   2.660
  744HOH      O 2436   3.031   1.257   3.144
  744HOH     H1 2437   3.116   1.220   3.121
  744HOH     H2 2438   2.998   1.199   3.213
  745HOH      O 2439   4.054   0.486   3.858
  745HOH     H1 2440   3.987   0.431   3.898
  745HOH     H2 2441   4.047   0.570   3.904
  746HOH      O 2442   2.903   1.829   1.421
  746HOH     H1 2443   2.859   1.829   1.506
  746HOH     H2 2444   2.978   1.771   1.433
  747HOH      O 2445   1.875   2.565   0.044
  747HOH     H1 2446   1.933   2.633   0.078
  747HOH     H2 2447   1.801   2.613   0.006
  748HOH      O 2448   0.919   0.037   3.207
  748HOH     H1 2449   0.950  -0.048   3.177
  748HOH     H2 2450   0.837   0.019   3.253
  749HOH      O 2451   1.627   2.494   0.395
  749HOH     H1 2452   1.693   2.425   0.397
  749HOH     H2 2453   1.547   2.450   0.366
  750HOH      O 2454   2.483   2.845   0.971
  750HOH     H1 2455   2.476   2.938   0.949
  750HOH     H2 2456   2.491   2.801   0.886
  751HOH      O 2457   0.234   2.864   3.959
  751HOH     H1 2458   0.279   2.779   3.958
  751HOH     H2 2459   0.303   2.927   3.977
  752HOH      O 2460   1.337   1.342   3.433
  752HOH     H1 2461   1.333   1.247   3.444
  752HOH     H2 2462   1.257   1.364   3.385
  753HOH      O 2463   2.121   3.900   1.802
  753HOH     H1 2464   2.025   3.899   1.797
  753HOH     H2 2465   2.141   3.973   1.860
  754HOH      O 2466   2.651   2.164   0.174
  754HOH     H1 2467   2.681   2.221   0.245
  754HOH     H2 2468   2.686   2.078   0.196
  755HOH      O 2469   1.942   1.213   1.551
  755HOH     H1 2470   1.928   1.294   1.503
  755HOH     H2 2471   1.855   1.185   1.579
  756HOH      O 2472   1.403   0.787   3.987
  756HOH     H1 2473   1.363   0.874   3.987
  756HOH     H2 2474   1.332   0.729   3.959
  757HOH      O 2475   2.479   1.360   0.313
  757HOH     H1 2476   2.538   1.421   0.358
  757HOH     H2 2477   2.432   1.316   0.384
  758HOH      O 2478   3.903   1.409   2.466
  758HOH     H1 2479   3.988   1.452   2.455
  758HOH     H2 2480   3.870   1.398   2.377
  759HOH      O 2481   1.783   2.782   2.441
  759HOH     H1 2482   1.745   2.769   2.528
  759HOH     H2 2483   1.726   2.845   2.399
  760HOH      O 2484   0.505   0.317   2.526
  760HOH     H1 2485   0.502   0.409   2.499
  760HOH     H2 2486   0.564   0.275   2.463
  761HOH      O 2487   2.893   3.462   2.045
  761HOH     H1 2488   2.982   3.461   2.008
  761HOH     H2 2489   2.849   3.532   1.998
  762HOH      O 2490   1.135   2.912   2.489
  762HOH     H1 2491   1.146   2.957   2.405
  762HOH     H2 2492   1.045   2.932   2.515
  763HOH      O 2493   0.576   0.434   3.864
  763HOH     H1 2494   0.543   0.374   3.796
  763HOH     H2 2495   0.607   0.376   3.933
  764HOH      O 2496   0.334   1.923   3.674
  764HOH     H1 2497   0.401   1.893   3.612
  764HOH     H2 2498   0.299   2.003   3.635
  765HOH      O 2499   1.824   3.954   0.458
  765HOH     H1 2500   1.801   4.036   0.415
  765HOH     H2 2501   1.917   3.943   0.440
  766HOH      O 2502   2.694   2.695   2.958
  766HOH     H1 2503   2.608   2.725   2.930
  766HOH     H2 2504   2.755   2.736   2.896
  767HOH      O 2505   0.375   1.086   3.880
  767HOH     H1 2506   0.304   1.052   3.826
  767HOH     H2 2507   0.391   1.018   3.945
  768HOH      O 2508   2.305   3.019   3.396
  768HOH     H1 2509   2.275   2.996   3.308
  768HOH     H2 2510   2.359   2.944   3.422
  769HOH      O 2511   1.405   2.383   2.036
  769HOH     H1 2512   1.477   2.445   2.041
  769HOH     H2 2513   1.327   2.438   2.026
  770HOH      O 2514   2.002   3.450   1.848
  770HOH     H1 2515   1.971   3.360   1.844
  770HOH     H2 2516   1.923   3.503   1.858
  771HOH      O 2517   3.309   2.344   0.121
  771HOH     H1 2518   3.372   2.394   0.173
  771HOH     H2 2519   3.237   2.404   0.107
  772HOH      O 2520   3.654   0.103   0.192
  772HOH     H1 2521   3.654   0.195   0.220
  772HOH     H2 2522   3.620   0.105   0.103
  773HOH      O 2523   0.528   0.151   2.942
  773HOH     H1 2524   0.542   0.245   2.927
  773HOH     H2 2525   0.548   0.139   3.034
  774HOH      O 2526   2.730   3.664   2.999
  774HOH     H1 2527   2.706   3.677   3.090
  774HOH     H2 2528   2.728   3.752   2.961
  775HOH      O 2529   1.581   3.132   1.667
  775HOH     H1 2530   1.503   3.163   1.620
  775HOH     H2 2531   1.555   3.134   1.759
  776HOH      O 2532   1.358   2.701   2.369
  776HOH     H1 2533   1.289   2.692   2.304
  776HOH     H2 2534   1.396   2.787   2.352
  777HOH      O 2535   3.797   3.601   1.521
  777HOH     H1 2536   3.710   3.637   1.540
  777HOH     H2 2537   3.781   3.510   1.498
  778HOH      O 2538   3.316   0.228   2.881
  778HOH     H1 2539   3.257   0.215   2.955
  778HOH     H2 2540   3.362   0.144   2.873
  779HOH      O 2541   2.324   2.652   1.431
  779HOH     H1 2542   2.293   2.711   1.362
  779HOH     H2 2543   2.419   2.664   1.431
  780HOH      O 2544   3.085   2.998   0.911
  780HOH     H1 2545   3.161   2.941   0.919
  780HOH     H2 2546   3.016   2.942   0.876
  781HOH      O 2547   0.874   0.181   1.602
  781HOH     H1 2548   0.813   0.202   1.672
  781HOH     H2 2549   0.822   0.185   1.522
  782HOH      O 2550   4.042   2.327   1.014
  782HOH     H1 2551   3.992   2.274   0.953
  782HOH     H2 2552   3.994   2.322   1.096
  783HOH      O 2553   1.490   2.051   0.907
  783HOH     H1 2554   1.417   2.101   0.942
  783HOH     H2 2555   1.517   2.100   0.829
  784HOH      O 2556   0.526   3.939   2.516
  784HOH     H1 2557   0.466   3.972   2.584
  784HOH     H2 2558   0.588   4.011   2.503
  785HOH      O 2559   0.768   3.986   2.240
  785HOH     H1 2560   0.842   3.926   2.253
  785HOH     H2 2561   0.780   4.020   2.152
  786HOH      O 2562   1.817   2.058   1.653
  786HOH     H1 2563   1.777   2.139   1.621
  786HOH     H2 2564   1.898   2.049   1.603
  787HOH      O 2565   2.409   2.439   2.396
  787HOH     H1 2566   2.468   2.396   2.458
  787HOH     H2 2567   2.377   2.367   2.341
  788HOH      O 2568   2.204   1.887   2.957
  788HOH     H1 2569   2.143   1.926   2.894
  788HOH     H2 2570   2.162   1.900   3.042
  789HOH      O 2571   3.648   0.099   1.780
  789HOH     H1 2572   3.684   0.022   1.735
  789HOH     H2 2573   3.667   0.172   1.721
  790HOH      O 2574   2.772   2.511   2.093
  790HOH     H1 2575   2.695   2.552   2.133
  790HOH     H2 2576   2.788   2.561   2.014
  791HOH      O 2577   1.211   2.933   0.690
  791HOH     H1 2578   1.204   2.897   0.779
  791HOH     H2 2579   1.193   3.027   0.701
  792HOH      O 2580   1.801   2.080   0.150
  792HOH     H1 2581   1.836   2.048   0.067
  792HOH     H2 2582   1.866   2.056   0.215
  793HOH      O 2583   3.964   4.057   0.521
  793HOH     H1 2584   3.994   3.969   0.498
  793HOH     H2 2585   3.872   4.059   0.493
  794HOH      O 2586   0.803   3.507   0.272
  794HOH     H1 2587   0.748   3.484   0.197
  794HOH     H2 2588   0.824   3.423   0.313
  795HOH      O 2589   3.138   0.676   0.228
  795HOH     H1 2590   3.169   0.760   0.193
  795HOH     H2 2591   3.056   0.698   0.273
  796HOH      O 2592   2.805   2.136   3.005
  796HOH     H1 2593   2.754   2.196   2.950
  796HOH     H2 2594   2.864   2.193   3.054
  797HOH      O 2595   2.381   2.822   2.447
  797HOH     H1 2596   2.417   2.753   2.503
  797HOH     H2 2597   2.301   2.785   2.410
  798HOH      O 2598   3.979   0.407   3.056
  798HOH     H1 2599   3.951   0.345   3.124
  798HOH     H2 2600   3.908   0.405   2.992
  799HOH      O 2601   0.342   1.354   3.901
  799HOH     H1 2602   0.349   1.259   3.906
  799HOH     H2 2603   0.387   1.386   3.979
  800HOH      O 2604   0.852   3.606   1.153
  800HOH     H1 2605   0.917   3.657   1.104
  800HOH     H2 2606   0.844   3.524   1.103
  801HOH      O 2607   0.228   0.898   1.791
  801HOH     H1 2608   0.281   0.965   1.834
  801HOH     H2 2609   0.261   0.816   1.827
  802HOH      O 2610   0.565   1.260   3.360
  802HOH     H1 2611   0.609   1.246   3.444
  802HOH     H2 2612   0.628   1.308   3.307
  803HOH      O 2613   0.435   0.601   1.610
  803HOH     H1 2614   0.350   0.634   1.580
  803HOH     H2 2615   0.489   0.679   1.621
  804HOH      O 2616   3.791   3.693   0.653
  804HOH     H1 2617   3.847   3.726   0.723
  804HOH     H2 2618   3.778   3.600   0.674
  805HOH      O 2619   3.477   1.919   0.272
  805HOH     H1 2620   3.424   1.845   0.241
  805HOH     H2 2621   3.415   1.992   0.277
  806HOH      O 2622   0.247   0.290   3.006
  806HOH     H1 2623   0.323   0.348   3.007
  806HOH     H2 2624   0.190   0.328   2.939
  807HOH      O 2625   1.061   3.571   0.367
  807HOH     H1 2626   0.977   3.538   0.335
  807HOH     H2 2627   1.093   3.627   0.296
  808HOH      O 2628   3.898   0.601   0.745
  808HOH     H1 2629   3.920   0.540   0.815
  808HOH     H2 2630   3.932   0.560   0.665
  809HOH      O 2631   1.316   3.968   0.379
  809HOH     H1 2632   1.263   4.004   0.450
  809HOH     H2 2633   1.287   3.877   0.371
  810HOH      O 2634   3.326   2.260   2.610
  810HOH     H1 2635   3.262   2.221   2.670
  810HOH     H2 2636   3.335   2.350   2.641
  811HOH      O 2637   2.813   3.220   4.010
  811HOH     H1 2638   2.799   3.203   4.103
  811HOH     H2 2639   2.905   3.246   4.004
  812HOH      O 2640   2.095   3.737   1.393
  812HOH     H1 2641   2.182   3.760   1.359
  812HOH     H2 2642   2.083   3.645   1.371
  813HOH      O 2643   0.461   3.627   1.462
  813HOH     H1 2644   0.488   3.655   1.549
  813HOH     H2 2645   0.536   3.579   1.427
  814HOH      O 2646   1.724   1.584   2.624
  814HOH     H1 2647   1.726   1.537   2.541
  814HOH     H2 2648   1.807   1.562   2.666
  815HOH      O 2649   1.857   3.330   3.391
  815HOH     H1 2650   1.779   3.381   3.372
  815HOH     H2 2651   1.917   3.350   3.319
  816HOH      O 2652   1.605   3.305   2.434
  816HOH     H1 2653   1.666   3.266   2.372
  816HOH     H2 2654   1.660   3.332   2.508
  817HOH      O 2655   3.673   3.809   0.436
  817HOH     H1 2656   3.718   3.766   0.508
  817HOH     H2 2657   3.590   3.762   0.427
  818HOH      O 2658   3.028   3.977   0.539
  818HOH     H1 2659   2.939   4.004   0.517
  818HOH     H2 2660   3.070   3.962   0.454
  819HOH      O 2661   3.719   1.465   0.979
  819HOH     H1 2662   3.759   1.546   0.947
  819HOH     H2 2663   3.641   1.455   0.925
  820HOH      O 2664   3.668   3.064   1.723
  820HOH     H1 2665   3.629   3.135   1.773
  820HOH     H2 2666   3.623   3.067   1.638
  821HOH      O 2667   1.922   2.906   2.912
  821HOH     H1 2668   1.982   2.968   2.871
  821HOH     H2 2669   1.908   2.940   3.000
  822HOH      O 2670   0.191   1.403   3.018
  822HOH     H1 2671   0.238   1.373   2.941
  822HOH     H2 2672   0.260   1.434   3.077
  823HOH      O 2673   3.179   0.415   2.469
  823HOH     H1 2674   3.266   0.395   2.504
  823HOH     H2 2675   3.119   0.386   2.538
  824HOH      O 2676   2.878   1.752   1.702
  824HOH     H1 2677   2.830   1.690   1.757
  824HOH     H2 2678   2.935   1.799   1.762
  825HOH      O 2679   0.663   0.955   0.479
  825HOH     H1 2680   0.699   0.956   0.567
  825HOH     H2 2681   0.655   1.048   0.456
  826HOH      O 2682   0.962   3.784   2.242
  826HOH     H1 2683   0.991   3.699   2.274
  826HOH     H2 2684   1.006   3.794   2.158
  827HOH      O 2685   3.143   2.664   0.628
  827HOH     H1 2686   3.078   2.603   0.593
  827HOH     H2 2687   3.094   2.718   0.691
  828HOH      O 2688   1.510   3.465   1.354
  828HOH     H1 2689   1.550   3.544   1.391
  828HOH     H2 2690   1.547   3.459   1.266
  829HOH      O 2691   2.377   2.525   2.790
  829HOH     H1 2692   2.290   2.557   2.766
  829HOH     H2 2693   2.371   2.508   2.884
  830HOH      O 2694   1.740   0.802   3.439
  830HOH     H1 2695   1.702   0.878   3.482
  830HOH     H2 2696   1.677   0.732   3.451
  831HOH      O 2697   1.040   1.479   0.142
  831HOH     H1 2698   1.062   1.555   0.089
  831HOH     H2 2699   1.123   1.451   0.180
  832HOH      O 2700   2.889   3.087   3.701
  832HOH     H1 2701   2.879   3.122   3.790
  832HOH     H2 2702   2.812   3.032   3.688
  833HOH      O 2703   2.051   1.236   2.743
  833HOH     H1 2704   2.032   1.196   2.658
  833HOH     H2 2705   2.090   1.165   2.794
  834HOH      O 2706   3.823   0.183   3.685
  834HOH     H1 2707   3.915   0.167   3.708
  834HOH     H2 2708   3.794   0.101   3.645
  835HOH      O 2709   3.103   2.185   1.963
  835HOH     H1 2710   3.042   2.156   2.030
  835HOH     H2 2711   3.185   2.140   1.984
  836HOH      O 2712   4.009   4.060   1.204
  836HOH     H1 2713   4.082   4.026   1.151
  836HOH     H2 2714   3.982   3.985   1.258
  837HOH      O 2715   1.644   0.607   1.484
  837HOH     H1 2716   1.682   0.541   1.426
  837HOH     H2 2717   1.686   0.591   1.569
  838HOH      O 2718   4.009   1.376   0.354
  838HOH     H1 2719   3.917   1.362   0.335
  838HOH     H2 2720   4.012   1.388   0.449
  839HOH      O 2721   2.714   1.074   1.575
  839HOH     H1 2722   2.677   1.126   1.505
  839HOH     H2 2723   2.772   1.011   1.531
  840HOH      O 2724   1.721   3.229   2.725
  840HOH     H1 2725   1.771   3.172   2.667
  840HOH     H2 2726   1.664   3.170   2.775
  841HOH      O 2727   1.798   2.557   3.610
  841HOH     H1 2728   1.790   2.499   3.685
  841HOH     H2 2729   1.833   2.501   3.540
  842HOH      O 2730   2.207   1.181   1.492
  842HOH     H1 2731   2.117   1.198   1.518
  842HOH     H2 2732   2.239   1.117   1.555
  843HOH      O 2733   3.407   1.226   3.367
  843HOH     H1 2734   3.314   1.244   3.379
  843HOH     H2 2735   3.448   1.257   3.447
  844HOH      O 2736   1.092   0.361   3.137
  844HOH     H1 2737   1.180   0.382   3.104
  844HOH     H2 2738   1.065   0.286   3.085
  845HOH      O 2739   1.103   1.536   1.921
  845HOH     H1 2740   1.137   1.618   1.957
  845HOH     H2 2741   1.149   1.524   1.838
  846HOH      O 2742   3.339   2.983   0.583
  846HOH     H1 2743   3.293   3.017   0.659
  846HOH     H2 2744   3.282   3.007   0.509
  847HOH      O 2745   1.462   4.004   0.668
  847HOH     H1 2746   1.401   4.007   0.742
  847HOH     H2 2747   1.517   3.928   0.686
  848HOH      O 2748   3.183   4.062   3.843
  848HOH     H1 2749   3.192   3.967   3.829
  848HOH     H2 2750   3.207   4.075   3.934
  849HOH      O 2751   2.538   1.009   3.836
  849HOH     H1 2752   2.630   0.985   3.825
  849HOH     H2 2753   2.530   1.094   3.793
  850HOH      O 2754   3.797   2.292   2.809
  850HOH     H1 2755   3.876   2.264   2.856
  850HOH     H2 2756   3.776   2.377   2.846
  851HOH      O 2757   3.249   3.799   3.765
  851HOH     H1 2758   3.330   3.829   3.725
  851HOH     H2 2759   3.208   3.744   3.699
  852HOH      O 2760   2.102   2.274   1.068
  852HOH     H1 2761   2.014   2.242   1.091
  852HOH     H2 2762   2.119   2.236   0.982
  853HOH      O 2763   3.396   0.911   3.009
  853HOH     H1 2764   3.471   0.898   3.067
  853HOH     H2 2765   3.395   0.832   2.954
  854HOH      O 2766   1.762   3.542   1.684
  854HOH     H1 2767   1.795   3.631   1.673
  854HOH     H2 2768   1.813   3.489   1.623
  855HOH      O 2769   3.621   0.779   2.085
  855HOH     H1 2770   3.699   0.768   2.140
  855HOH     H2 2771   3.653   0.769   1.995
  856HOH      O 2772   2.427   1.372   1.144
  856HOH     H1 2773   2.345   1.341   1.183
  856HOH     H2 2774   2.471   1.292   1.113
  857HOH      O 2775   0.728   0.218   2.755
  857HOH     H1 2776   0.819   0.233   2.780
  857HOH     H2 2777   0.696   0.153   2.819
  858HOH      O 2778   0.863   3.247   1.815
  858HOH     H1 2779   0.785   3.252   1.870
  858HOH     H2 2780   0.862   3.158   1.780
  859HOH      O 2781   0.523   2.350   1.212
  859HOH     H1 2782   0.459   2.280   1.200
  859HOH     H2 2783   0.518   2.402   1.132
  860HOH      O 2784   0.272   0.151   2.416
  860HOH     H1 2785   0.356   0.182   2.452
  860HOH     H2 2786   0.291   0.136   2.323
  861HOH      O 2787   1.104   0.611   2.945
  861HOH     H1 2788   1.096   0.580   2.855
  861HOH     H2 2789   1.140   0.537   2.993
  862HOH      O 2790   2.744   4.011   0.477
  862HOH     H1 2791   2.753   3.931   0.426
  862HOH     H2 2792   2.657   4.005   0.516
  863HOH      O 2793   1.157   1.880   1.156
  863HOH     H1 2794   1.239   1.920   1.185
  863HOH     H2 2795   1.096   1.894   1.228
  864HOH      O 2796   0.949   3.784   0.715
  864HOH     H1 2797   1.016   3.798   0.647
  864HOH     H2 2798   0.938   3.689   0.718
  865HOH      O 2799   3.704   0.615   2.746
  865HOH     H1 2800   3.771   0.636   2.681
  865HOH     H2 2801   3.622   0.622   2.697
  866HOH      O 2802   3.420   0.266   0.380
  866HOH     H1 2803   3.409   0.313   0.298
  866HOH     H2 2804   3.343   0.290   0.432
  867HOH      O 2805   0.377   2.842   2.068
  867HOH     H1 2806   0.472   2.838   2.066
  867HOH     H2 2807   0.349   2.752   2.083
  868HOH      O 2808   2.234   1.607   0.650
  868HOH     H1 2809   2.215   1.698   0.625
  868HOH     H2 2810   2.187   1.555   0.586
  869HOH      O 2811   2.590   0.505   2.015
  869HOH     H1 2812   2.543   0.585   2.037
  869HOH     H2 2813   2.682   0.528   2.028
  870HOH      O 2814   1.981   0.517   3.413
  870HOH     H1 2815   1.971   0.591   3.474
  870HOH     H2 2816   2.041   0.457   3.458
  871HOH      O 2817   1.278   3.849   3.835
  871HOH     H1 2818   1.268   3.940   3.805
  871HOH     H2 2819   1.207   3.837   3.898
  872HOH      O 2820   1.611   1.999   2.884
  872HOH     H1 2821   1.532   2.015   2.832
  872HOH     H2 2822   1.675   1.965   2.821
  873HOH      O 2823   3.909   0.732   0.321
  873HOH     H1 2824   3.871   0.815   0.350
  873HOH     H2 2825   3.842   0.667   0.342
  874HOH      O 2826   0.792   3.923   3.451
  874HOH     H1 2827   0.756   3.843   3.489
  874HOH     H2 2828   0.738   3.993   3.488
  875HOH      O 2829   1.489   3.710   0.927
  875HOH     H1 2830   1.541   3.688   0.850
  875HOH     H2 2831   1.406   3.665   0.913
  876HOH      O 2832   1.022   0.616   2.249
  876HOH     H1 2833   1.090   0.551   2.268
  876HOH     H2 2834   1.030   0.633   2.155
  877HOH      O 2835   1.644   1.950   3.450
  877HOH     H1 2836   1.642   2.037   3.489
  877HOH     H2 2837   1.566   1.906   3.483
  878HOH      O 2838   3.455   0.108   0.919
  878HOH     H1 2839   3.541   0.146   0.936
  878HOH     H2 2840   3.470   0.014   0.915
  879HOH      O 2841   2.391   0.095   3.624
  879HOH     H1 2842   2.373   0.017   3.571
  879HOH     H2 2843   2.384   0.168   3.562
  880HOH      O 2844   0.394   2.529   3.020
  880HOH     H1 2845   0.438   2.599   2.972
  880HOH     H2 2846   0.305   2.560   3.033
  881HOH      O 2847   1.807   0.153   0.308
  881HOH     H1 2848   1.821   0.226   0.368
  881HOH     H2 2849   1.734   0.181   0.253
  882HOH      O 2850   3.359   3.757   2.171
  882HOH     H1 2851   3.396   3.756   2.260
  882HOH     H2 2852   3.435   3.744   2.114
  883HOH      O 2853   4.006   1.822   3.064
  883HOH     H1 2854   4.094   1.794   3.089
  883HOH     H2 2855   3.948   1.769   3.119
  884HOH      O 2856   0.812   3.396   0.984
  884HOH     H1 2857   0.740   3.344   1.020
  884HOH     H2 2858   0.887   3.337   0.984
  885HOH      O 2859   2.165   1.728   3.769
  885HOH     H1 2860   2.102   1.761   3.833
  885HOH     H2 2861   2.160   1.789   3.696
  886HOH      O 2862   3.636   3.232   3.396
  886HOH     H1 2863   3.693   3.216   3.322
  886HOH     H2 2864   3.553   3.260   3.357
  887HOH      O 2865   3.569   0.925   1.115
  887HOH     H1 2866   3.622   0.860   1.069
  887HOH     H2 2867   3.549   0.884   1.199
  888HOH      O 2868   1.238   0.259   0.770
  888HOH     H1 2869   1.262   0.331   0.829
  888HOH     H2 2870   1.305   0.261   0.701
  889HOH      O 2871   2.535   2.652   2.608
  889HOH     H1 2872   2.502   2.593   2.676
  889HOH     H2 2873   2.627   2.628   2.598
  890HOH      O 2874  -0.007   2.884   0.020
  890HOH     H1 2875   0.073   2.897  -0.030
  890HOH     H2 2876   0.006   2.802   0.068
  891HOH      O 2877   0.357   0.687   3.052
  891HOH     H1 2878   0.377   0.777   3.025
  891HOH     H2 2879   0.262   0.686   3.060
  892HOH      O 2880   1.547   3.032   1.062
  892HOH     H1 2881   1.630   3.062   1.027
  892HOH     H2 2882   1.515   2.969   0.996
  893HOH      O 2883   1.843   3.726   0.011
  893HOH     H1 2884   1.794   3.808   0.012
  893HOH     H2 2885   1.932   3.751  -0.015
  894HOH      O 2886   1.681   3.789   0.693
  894HOH     H1 2887   1.709   3.709   0.737
  894HOH     H2 2888   1.714   3.781   0.604
  895HOH      O 2889   3.260   0.711   1.478
  895HOH     H1 2890   3.350   0.678   1.473
  895HOH     H2 2891   3.271   0.805   1.497
  896HOH      O 2892   2.441   2.367   0.342
  896HOH     H1 2893   2.363   2.402   0.299
  896HOH     H2 2894   2.418   2.364   0.435
  897HOH      O 2895   0.605   3.257   1.115
  897HOH     H1 2896   0.541   3.304   1.061
  897HOH     H2 2897   0.563   3.252   1.201
  898HOH      O 2898   3.068   3.900   0.177
  898HOH     H1 2899   3.001   3.908   0.109
  898HOH     H2 2900   3.127   3.973   0.161
  899HOH      O 2901   2.823   0.039   2.885
  899HOH     H1 2902   2.861   0.061   2.970
  899HOH     H2 2903   2.811   0.124   2.842
  900HOH      O 2904   4.003   3.483   2.760
  900HOH     H1 2905   4.000   3.407   2.818
  900HOH     H2 2906   3.921   3.529   2.777
  901HOH      O 2907   1.845   2.396   3.216
  901HOH     H1 2908   1.778   2.343   3.171
  901HOH     H2 2909   1.808   2.484   3.219
  902HOH      O 2910   3.834   3.545   3.931
  902HOH     H1 2911   3.878   3.490   3.866
  902HOH     H2 2912   3.741   3.526   3.921
  903HOH      O 2913   2.585   3.436   2.944
  903HOH     H1 2914   2.617   3.526   2.942
  903HOH     H2 2915   2.519   3.432   2.875
  904HOH      O 2916  -0.021   3.892   0.842
  904HOH     H1 2917   0.032   3.897   0.922
  904HOH     H2 2918   0.029   3.940   0.777
  905HOH      O 2919   2.941   3.566   3.792
  905HOH     H1 2920   2.878   3.523   3.734
  905HOH     H2 2921   2.932   3.659   3.772
  906HOH      O 2922   0.024   0.325   2.772
  906HOH     H1 2923   0.094   0.351   2.713
  906HOH     H2 2924  -0.055   0.326   2.718
  907HOH      O 2925   2.912   3.857   0.993
  907HOH     H1 2926   2.949   3.916   0.927
  907HOH     H2 2927   2.983   3.843   1.055
  908HOH      O 2928   2.432   0.613   3.254
  908HOH     H1 2929   2.356   0.640   3.203
  908HOH     H2 2930   2.396   0.574   3.333
  909HOH      O 2931   2.044   2.091   2.511
  909HOH     H1 2932   2.020   2.028   2.579
  909HOH     H2 2933   2.061   2.037   2.433
  910HOH      O 2934   3.509   2.561   1.231
  910HOH     H1 2935   3.528   2.467   1.233
  910HOH     H2 2936   3.414   2.567   1.237
  911HOH      O 2937   3.605   2.182   2.646
  911HOH     H1 2938   3.679   2.211   2.701
  911HOH     H2 2939   3.529   2.228   2.682
  912HOH      O 2940   1.651   2.050   1.148
  912HOH     H1 2941   1.615   2.070   1.062
  912HOH     H2 2942   1.723   2.111   1.159
  913HOH      O 2943   0.018   2.950   3.710
  913HOH     H1 2944  -0.019   2.962   3.798
  913HOH     H2 2945   0.113   2.957   3.724
  914HOH      O 2946   2.021   2.307   1.841
  914HOH     H1 2947   1.929   2.305   1.814
  914HOH     H2 2948   2.038   2.400   1.859
  915HOH      O 2949   1.426   2.195   2.283
  915HOH     H1 2950   1.470   2.246   2.351
  915HOH     H2 2951   1.396   2.260   2.219
  916HOH      O 2952   1.050   1.193   1.730
  916HOH     H1 2953   1.120   1.181   1.794
  916HOH     H2 2954   0.982   1.241   1.778
  917HOH      O 2955   1.331   2.121   0.610
  917HOH     H1 2956   1.349   2.206   0.651
  917HOH     H2 2957   1.418   2.081   0.600
  918HOH      O 2958   2.995   3.230   0.498
  918HOH     H1 2959   2.912   3.260   0.535
  918HOH     H2 2960   3.050   3.309   0.497
  919HOH      O 2961   0.688   0.128   2.442
  919HOH     H1 2962   0.718   0.100   2.528
  919HOH     H2 2963   0.728   0.066   2.381
  920HOH      O 2964   3.770   3.288   0.115
  920HOH     H1 2965   3.725   3.363   0.076
  920HOH     H2 2966   3.701   3.241   0.162
  921HOH      O 2967   3.410   0.628   0.244
  921HOH     H1 2968   3.448   0.631   0.332
  921HOH     H2 2969   3.317   0.646   0.257
  922HOH      O 2970   3.264   0.984   1.508
  922HOH     H1 2971   3.196   1.002   1.573
  922HOH     H2 2972   3.219   0.992   1.423
  923HOH      O 2973   1.826   1.995   0.864
  923HOH     H1 2974   1.769   1.960   0.932
  923HOH     H2 2975   1.770   2.054   0.813
  924HOH      O 2976   2.080   3.112   0.156
  924HOH     H1 2977   1.985   3.110   0.143
  924HOH     H2 2978   2.116   3.134   0.070
  925HOH      O 2979   0.931   3.664   3.836
  925HOH     H1 2980   0.917   3.758   3.827
  925HOH     H2 2981   0.898   3.642   3.923
  926HOH      O 2982   2.730   1.455   0.486
  926HOH     H1 2983   2.678   1.525   0.525
  926HOH     H2 2984   2.787   1.498   0.423
  927HOH      O 2985   2.848   2.040   0.573
  927HOH     H1 2986   2.904   2.033   0.650
  927HOH     H2 2987   2.767   1.996   0.597
  928HOH      O 2988   3.648   1.229   1.605
  928HOH     H1 2989   3.601   1.219   1.688
  928HOH     H2 2990   3.579   1.239   1.540
  929HOH      O 2991   0.801   0.569   0.044
  929HOH     H1 2992   0.797   0.602  -0.045
  929HOH     H2 2993   0.893   0.547   0.058
  930HOH      O 2994   1.850   0.748   0.139
  930HOH     H1 2995   1.790   0.801   0.087
  930HOH     H2 2996   1.937   0.785   0.120
  931HOH      O 2997   0.846   1.511   2.270
  931HOH     H1 2998   0.799   1.526   2.352
  931HOH     H2 2999   0.777   1.511   2.203
  932HOH      O 3000   2.659   3.286   3.340
  932HOH     H1 3001   2.739   3.322   3.301
  932HOH     H2 3002   2.589   3.343   3.308
  933HOH      O 3003   3.799   1.130   1.363
  933HOH     H1 3004   3.764   1.189   1.297
  933HOH     H2 3005   3.755   1.156   1.444
  934HOH      O 3006   2.350   3.811   1.295
  934HOH     H1 3007   2.426   3.754   1.285
  934HOH     H2 3008   2.383   3.886   1.345
  935HOH      O 3009   1.511  -0.003   1.705
  935HOH     H1 3010   1.419   0.006   1.731
  935HOH     H2 3011   1.549   0.083   1.724
  936HOH      O 3012   0.289   3.901   2.150
  936HOH     H1 3013   0.228   3.881   2.221
  936HOH     H2 3014   0.233   3.932   2.078
  937HOH      O 3015   2.468   2.793   3.444
  937HOH     H1 3016   2.409   2.718   3.442
  937HOH     H2 3017   2.554   2.757   3.423
  938HOH      O 3018   1.106   3.042   2.778
  938HOH     H1 3019   1.151   2.959   2.762
  938HOH     H2 3020   1.167   3.109   2.747
  939HOH      O 3021   0.772   1.245   2.855
  939HOH     H1 3022   0.778   1.153   2.882
  939HOH     H2 3023   0.804   1.245   2.765
  940HOH      O 3024   3.458   1.529   0.856
  940HOH     H1 3025   3.394   1.570   0.914
  940HOH     H2 3026   3.516   1.600   0.830
  941HOH      O 3027   1.065   3.793   1.297
  941HOH     H1 3028   1.096   3.820   1.383
  941HOH     H2 3029   1.019   3.869   1.263
  942HOH      O 3030   0.244   2.722   0.403
  942HOH     H1 3031   0.170   2.664   0.421
  942HOH     H2 3032   0.205   2.810   0.397
  943HOH      O 3033   2.566   1.917   1.100
  943HOH     H1 3034   2.657   1.891   1.111
  943HOH     H2 3035   2.543   1.962   1.181
  944HOH      O 3036   3.065   0.645   3.107
  944HOH     H1 3037   3.127   0.695   3.160
  944HOH     H2 3038   3.084   0.673   3.017
  945HOH      O 3039   0.280   0.539   3.484
  945HOH     H1 3040   0.361   0.574   3.447
  945HOH     H2 3041   0.239   0.492   3.411
  946HOH      O 3042   3.864   1.793   2.190
  946HOH     H1 3043   3.807   1.728   2.232
  946HOH     H2 3044   3.907   1.744   2.119
  947HOH      O 3045   1.563   4.044   0.323
  947HOH     H1 3046   1.585   4.045   0.416
  947HOH     H2 3047   1.480   3.995   0.318
  948HOH      O 3048   1.043   2.000   4.058
  948HOH     H1 3049   1.019   1.981   3.967
  948HOH     H2 3050   1.025   2.093   4.068
  949HOH      O 3051   1.496   2.434   2.848
  949HOH     H1 3052   1.505   2.516   2.897
  949HOH     H2 3053   1.465   2.460   2.762
  950HOH      O 3054   2.886   2.497   3.796
  950HOH     H1 3055   2.842   2.419   3.762
  950HOH     H2 3056   2.828   2.570   3.771
  951HOH      O 3057   1.561   1.146   3.695
  951HOH     H1 3058   1.626   1.079   3.713
  951HOH     H2 3059   1.503   1.144   3.771
  952HOH      O 3060   1.773   0.526   1.709
  952HOH     H1 3061   1.868   0.516   1.712
  952HOH     H2 3062   1.746   0.529   1.801
  953HOH      O 3063   2.599   2.965   2.324
  953HOH     H1 3064   2.561   3.021   2.257
  953HOH     H2 3065   2.526   2.911   2.354
  954HOH      O 3066   1.542   2.005   1.781
  954HOH     H1 3067   1.610   1.960   1.832
  954HOH     H2 3068   1.489   2.050   1.847
  955HOH      O 3069   2.961   2.937   1.457
  955HOH     H1 3070   2.943   2.900   1.370
  955HOH     H2 3071   2.896   2.897   1.514
  956HOH      O 3072   2.329   0.551   1.734
  956HOH     H1 3073   2.363   0.623   1.787
  956HOH     H2 3074   2.377   0.556   1.652
  957HOH      O 3075   3.593   3.856   3.813
  957HOH     H1 3076   3.615   3.918   3.743
  957HOH     H2 3077   3.669   3.859   3.871
  958HOH      O 3078   2.948   0.542   0.422
  958HOH     H1 3079   2.914   0.515   0.507
  958HOH     H2 3080   3.038   0.509   0.421
  959HOH      O 3081  -0.020   1.346   2.835
  959HOH     H1 3082   0.030   1.302   2.766
  959HOH     H2 3083   0.044   1.361   2.905
  960HOH      O 3084   1.627   2.053   3.924
  960HOH     H1 3085   1.670   2.099   3.997
  960HOH     H2 3086   1.597   1.971   3.962
  961HOH      O 3087   0.922   2.435   3.200
  961HOH     H1 3088   0.855   2.501   3.185
  961HOH     H2 3089   1.004   2.484   3.204
  962HOH      O 3090   2.916   3.501   2.339
  962HOH     H1 3091   2.905   3.476   2.247
  962HOH     H2 3092   2.830   3.490   2.378
  963HOH      O 3093   2.857   0.859   2.431
  963HOH     H1 3094   2.832   0.816   2.513
  963HOH     H2 3095   2.951   0.874   2.440
  964HOH      O 3096   2.805   3.402   3.614
  964HOH     H1 3097   2.755   3.456   3.553
  964HOH     H2 3098   2.790   3.312   3.584
  965HOH      O 3099   2.190   2.267   2.284
  965HOH     H1 3100   2.225   2.218   2.209
  965HOH     H2 3101   2.097   2.243   2.287
  966HOH      O 3102   2.389   1.902   2.408
  966HOH     H1 3103   2.404   1.995   2.427
  966HOH     H2 3104   2.297   1.897   2.381
  967HOH      O 3105   0.572   3.466   3.795
  967HOH     H1 3106   0.529   3.551   3.793
  967HOH     H2 3107   0.516   3.409   3.741
  968HOH      O 3108   0.932   0.935   2.612
  968HOH     H1 3109   0.960   0.858   2.563
  968HOH     H2 3110   0.904   0.900   2.697
  969HOH      O 3111   0.553   2.137   3.306
  969HOH     H1 3112   0.521   2.057   3.265
  969HOH     H2 3113   0.630   2.161   3.255
  970HOH      O 3114   2.237   2.769   1.878
  970HOH     H1 3115   2.177   2.697   1.899
  970HOH     H2 3116   2.238   2.772   1.782
  971HOH      O 3117   0.039   0.803   0.578
  971HOH     H1 3118  -0.032   0.845   0.626
  971HOH     H2 3119   0.001   0.720   0.548
  972HOH      O 3120   1.331   2.212   0.178
  972HOH     H1 3121   1.309   2.119   0.178
  972HOH     H2 3122   1.248   2.256   0.193
  973HOH      O 3123   2.600   1.678   0.136
  973HOH     H1 3124   2.672   1.668   0.073
  973HOH     H2 3125   2.630   1.747   0.195
  974HOH      O 3126   1.929   1.454   1.387
  974HOH     H1 3127   1.864   1.507   1.340
  974HOH     H2 3128   2.010   1.505   1.382
  975HOH      O 3129   3.051   0.826   0.891
  975HOH     H1 3130   3.034   0.802   0.800
  975HOH     H2 3131   2.977   0.791   0.940
  976HOH      O 3132   3.444   1.254   2.250
  976HOH     H1 3133   3.490   1.195   2.190
  976HOH     H2 3134   3.360   1.272   2.207
  977HOH      O 3135   2.277   2.418   1.572
  977HOH     H1 3136   2.289   2.477   1.498
  977HOH     H2 3137   2.319   2.464   1.646
  978HOH      O 3138   3.342   2.277   3.218
  978HOH     H1 3139   3.359   2.186   3.243
  978HOH     H2 3140   3.350   2.326   3.300
  979HOH      O 3141   4.005   2.739   1.545
  979HOH     H1 3142   3.955   2.789   1.610
  979HOH     H2 3143   3.970   2.767   1.461
  980HOH      O 3144   3.275   3.690   0.923
  980HOH     H1 3145   3.239   3.638   0.994
  980HOH     H2 3146   3.337   3.632   0.879
  981HOH      O 3147   0.891   3.496   3.441
  981HOH     H1 3148   0.891   3.519   3.348
  981HOH     H2 3149   0.815   3.542   3.477
  982HOH      O 3150   3.217   0.701   2.491
  982HOH     H1 3151   3.307   0.682   2.465
  982HOH     H2 3152   3.180   0.616   2.515
  983HOH      O 3153   1.205   1.641   3.284
  983HOH     H1 3154   1.297   1.628   3.262
  983HOH     H2 3155   1.188   1.733   3.262
  984HOH      O 3156   1.844   1.089   0.670
  984HOH     H1 3157   1.922   1.083   0.725
  984HOH     H2 3158   1.871   1.143   0.596
  985HOH      O 3159   2.145   1.061   2.268
  985HOH     H1 3160   2.082   1.124   2.302
  985HOH     H2 3161   2.139   0.987   2.329
  986HOH      O 3162   2.310   1.893   0.665
  986HOH     H1 3163   2.385   1.948   0.690
  986HOH     H2 3164   2.250   1.899   0.739
  987HOH      O 3165   0.494   0.685   2.105
  987HOH     H1 3166   0.514   0.773   2.137
  987HOH     H2 3167   0.569   0.633   2.132
  988HOH      O 3168   0.224   3.990   1.061
  988HOH     H1 3169   0.277   3.933   1.005
  988HOH     H2 3170   0.236   3.955   1.149
  989HOH      O 3171   3.648   2.449   3.051
  989HOH     H1 3172   3.604   2.516   3.103
  989HOH     H2 3173   3.578   2.410   2.998
  990HOH      O 3174   1.913   3.043   1.318
  990HOH     H1 3175   1.852   3.116   1.306
  990HOH     H2 3176   1.864   2.980   1.371
  991HOH      O 3177   2.863   1.216   0.506
  991HOH     H1 3178   2.834   1.297   0.463
  991HOH     H2 3179   2.784   1.163   0.513
  992HOH      O 3180   0.994   3.803   1.009
  992HOH     H1 3181   1.004   3.822   0.916
  992HOH     H2 3182   0.940   3.874   1.043
  993HOH      O 3183   1.298   1.156   3.780
  993HOH     H1 3184   1.297   1.251   3.768
  993HOH     H2 3185   1.250   1.123   3.704
  994HOH      O 3186   0.863   2.812   0.266
  994HOH     H1 3187   0.775   2.846   0.251
  994HOH     H2 3188   0.920   2.888   0.258
  995HOH      O 3189   0.621   1.987   2.937
  995HOH     H1 3190   0.552   1.975   2.871
  995HOH     H2 3191   0.662   2.071   2.914
  996HOH      O 3192   1.316   0.078   3.863
  996HOH     H1 3193   1.241   0.103   3.918
  996HOH     H2 3194   1.384   0.054   3.926
  997HOH      O 3195   3.133   3.183   3.280
  997HOH     H1 3196   3.199   3.135   3.230
  997HOH     H2 3197   3.089   3.116   3.332
  998HOH      O 3198   3.579   0.495   3.915
  998HOH     H1 3199   3.587   0.417   3.861
  998HOH     H2 3200   3.488   0.522   3.905
  999HOH      O 3201   1.720   3.496   0.149
  999HOH     H1 3202   1.778   3.495   0.073
  999HOH     H2 3203   1.665   3.418   0.139
 1000HOH      O 3204   3.309   0.201   2.009
 1000HOH     H1 3205   3.340   0.279   1.962
 1000HOH     H2 3206   3.215   0.199   1.990
 1001HOH      O 3207   0.857   1.411   1.819
 1001HOH     H1 3208   0.813   1.463   1.752
 1001HOH     H2 3209   0.928   1.467   1.850
 1002HOH      O 3210   3.014   2.080   2.420
 1002HOH     H1 3211   3.108   2.075   2.436
 1002HOH     H2 3212   2.989   2.167   2.451
 1003HOH      O 3213   1.751   2.314   2.800
 1003HOH     H1 3214   1.662   2.344   2.781
 1003HOH     H2 3215   1.762   2.236   2.747
 1004HOH      O 3216   1.431   2.340   0.746
 1004HOH     H1 3217   1.416   2.382   0.831
 1004HOH     H2 3218   1.402   2.405   0.682
 1005HOH      O 3219   1.031   3.218   0.938
 1005HOH     H1 3220   1.060   3.231   0.848
 1005HOH     H2 3221   1.103   3.249   0.992
 1006HOH      O 3222   0.471   0.941   3.006
 1006HOH     H1 3223   0.475   0.985   3.091
 1006HOH     H2 3224   0.562   0.931   2.980
 1007HOH      O 3225   0.208   3.986   0.182
 1007HOH     H1 3226   0.181   4.035   0.259
 1007HOH     H2 3227   0.216   3.896   0.212
 1008HOH      O 3228   2.696   1.489   2.722
 1008HOH     H1 3229   2.610   1.477   2.682
 1008HOH     H2 3230   2.710   1.584   2.722
 1009HOH      O 3231   4.044   2.527   2.122
 1009HOH     H1 3232   3.954   2.500   2.143
 1009HOH     H2 3233   4.033   2.592   2.053
 1010HOH      O 3234   3.142   1.698   1.434
 1010HOH     H1 3235   3.177   1.609   1.432
 1010HOH     H2 3236   3.212   1.751   1.472
 1011HOH      O 3237   1.059   3.834   0.005
 1011HOH     H1 3238   0.982   3.787   0.037
 1011HOH     H2 3239   1.025   3.920  -0.020
 1012HOH      O 3240   1.272   1.210   1.916
 1012HOH     H1 3241   1.278   1.193   2.010
 1012HOH     H2 3242   1.361   1.198   1.883
 1013HOH      O 3243   2.040   2.840   0.405
 1013HOH     H1 3244   2.133   2.831   0.426
 1013HOH     H2 3245   1.995   2.790   0.473
 1014HOH      O 3246   1.808   3.417   3.074
 1014HOH     H1 3247   1.805   3.323   3.061
 1014HOH     H2 3248   1.803   3.454   2.986
 1015HOH      O 3249   1.222   2.020   3.661
 1015HOH     H1 3250   1.238   2.032   3.567
 1015HOH     H2 3251   1.289   2.075   3.703
 1016HOH      O 3252   3.032   2.984   3.437
 1016HOH     H1 3253   2.943   2.976   3.403
 1016HOH     H2 3254   3.021   2.986   3.532
 1017HOH      O 3255   1.950   3.087   3.464
 1017HOH     H1 3256   2.043   3.098   3.483
 1017HOH     H2 3257   1.919   3.176   3.445
 1018HOH      O 3258   2.859   1.594   2.312
 1018HOH     H1 3259   2.886   1.678   2.350
 1018HOH     H2 3260   2.918   1.530   2.353
 1019HOH      O 3261   0.357   1.638   0.196
 1019HOH     H1 3262   0.439   1.630   0.245
 1019HOH     H2 3263   0.378   1.606   0.109
 1020HOH      O 3264   0.607   2.803   1.085
 1020HOH     H1 3265   0.696   2.829   1.060
 1020HOH     H2 3266   0.558   2.884   1.087
 1021HOH      O 3267   0.044   3.668   1.650
 1021HOH     H1 3268  -0.047   3.640   1.644
 1021HOH     H2 3269   0.071   3.644   1.739
 1022HOH      O 3270   0.450   0.992   3.307
 1022HOH     H1 3271   0.445   0.952   3.394
 1022HOH     H2 3272   0.477   1.082   3.324
 1023HOH      O 3273   1.133   1.028   2.830
 1023HOH     H1 3274   1.186   0.981   2.765
 1023HOH     H2 3275   1.133   0.971   2.907
 1024HOH      O 3276   0.452   0.742   1.322
 1024HOH     H1 3277   0.400   0.797   1.381
 1024HOH     H2 3278   0.502   0.684   1.381
 1025HOH      O 3279   2.272   1.409   2.764
 1025HOH     H1 3280   2.341   1.409   2.698
 1025HOH     H2 3281   2.231   1.323   2.756
 1026HOH      O 3282   2.669   3.208   1.531
 1026HOH     H1 3283   2.654   3.116   1.552
 1026HOH     H2 3284   2.583   3.249   1.539
 1027HOH      O 3285   3.564   0.274   3.747
 1027HOH     H1 3286   3.490   0.289   3.687
 1027HOH     H2 3287   3.628   0.226   3.694
 1028HOH      O 3288   0.680   1.656   3.282
 1028HOH     H1 3289   0.687   1.562   3.265
 1028HOH     H2 3290   0.768   1.690   3.270
 1029HOH      O 3291   2.110   0.000   3.743
 1029HOH     H1 3292   2.101   0.095   3.746
 1029HOH     H2 3293   2.111  -0.021   3.650
 1030HOH      O 3294   3.464   0.650   2.399
 1030HOH     H1 3295   3.469   0.589   2.326
 1030HOH     H2 3296   3.553   0.651   2.436
 1031HOH      O 3297   0.414   0.409   0.182
 1031HOH     H1 3298   0.371   0.440   0.262
 1031HOH     H2 3299   0.388   0.318   0.174
 1032HOH      O 3300   0.662   1.243   2.402
 1032HOH     H1 3301   0.657   1.148   2.394
 1032HOH     H2 3302   0.627   1.275   2.319
 1033HOH      O 3303   3.837   3.480   1.108
 1033HOH     H1 3304   3.860   3.403   1.057
 1033HOH     H2 3305   3.751   3.506   1.074
 1034HOH      O 3306   1.005   3.719   1.607
 1034HOH     H1 3307   0.966   3.633   1.591
 1034HOH     H2 3308   1.047   3.711   1.693
 1035HOH      O 3309   0.511   1.299   2.688
 1035HOH     H1 3310   0.519   1.204   2.676
 1035HOH     H2 3311   0.584   1.321   2.745
 1036HOH      O 3312   3.453   0.333   3.288
 1036HOH     H1 3313   3.513   0.298   3.222
 1036HOH     H2 3314   3.479   0.424   3.300
 1037HOH      O 3315   0.745   3.977   0.027
 1037HOH     H1 3316   0.675   3.922   0.062
 1037HOH     H2 3317   0.818   3.963   0.088
 1038HOH      O 3318   2.745   2.467   3.158
 1038HOH     H1 3319   2.835   2.477   3.127
 1038HOH     H2 3320   2.694   2.532   3.109
 1039HOH      O 3321   1.903   0.637   0.399
 1039HOH     H1 3322   1.885   0.700   0.330
 1039HOH     H2 3323   1.888   0.685   0.480
 1040HOH      O 3324   1.849   3.084   1.025
 1040HOH     H1 3325   1.876   3.062   1.114
 1040HOH     H2 3326   1.872   3.176   1.015
 1041HOH      O 3327   3.335   2.852   0.950
 1041HOH     H1 3328   3.403   2.809   0.898
 1041HOH     H2 3329   3.279   2.780   0.980
 1042HOH      O 3330   1.247   1.009   3.321
 1042HOH     H1 3331   1.178   0.955   3.283
 1042HOH     H2 3332   1.293   1.045   3.245
 1043HOH      O 3333   3.472   0.902   0.749
 1043HOH     H1 3334   3.431   0.829   0.796
 1043HOH     H2 3335   3.399   0.949   0.710
 1044HOH      O 3336   3.941   0.955   3.415
 1044HOH     H1 3337   4.013   1.017   3.407
 1044HOH     H2 3338   3.899   0.956   3.329
 1045HOH      O 3339   1.281   1.507   0.293
 1045HOH     H1 3340   1.314   1.593   0.266
 1045HOH     H2 3341   1.335   1.482   0.368
 1046HOH      O 3342   2.490   0.570   1.510
 1046HOH     H1 3343   2.533   0.655   1.508
 1046HOH     H2 3344   2.561   0.508   1.527
 1047HOH      O 3345   1.814   2.261   3.741
 1047HOH     H1 3346   1.770   2.183   3.774
 1047HOH     H2 3347   1.890   2.271   3.798
 1048HOH      O 3348   3.525   1.681   0.486
 1048HOH     H1 3349   3.432   1.664   0.503
 1048HOH     H2 3350   3.535   1.667   0.392
 1049HOH      O 3351   2.350   2.945   0.531
 1049HOH     H1 3352   2.373   2.874   0.472
 1049HOH     H2 3353   2.325   3.017   0.473
 1050HOH      O 3354   0.291   1.328   1.008
 1050HOH     H1 3355   0.384   1.302   1.005
 1050HOH     H2 3356   0.243   1.245   1.005
 1051HOH      O 3357   3.128   1.530   2.915
 1051HOH     H1 3358   3.214   1.522   2.958
 1051HOH     H2 3359   3.090   1.609   2.954
 1052HOH      O 3360   3.651   0.216   3.103
 1052HOH     H1 3361   3.665   0.147   3.038
 1052HOH     H2 3362   3.729   0.213   3.159
 1053HOH      O 3363   3.751   2.032   1.785
 1053HOH     H1 3364   3.809   2.015   1.711
 1053HOH     H2 3365   3.772   2.122   1.811
 1054HOH      O 3366   0.167   3.390   2.450
 1054HOH     H1 3367   0.248   3.419   2.409
 1054HOH     H2 3368   0.171   3.423   2.539
 1055HOH      O 3369   3.779   1.703   0.847
 1055HOH     H1 3370   3.818   1.788   0.866
 1055HOH     H2 3371   3.689   1.722   0.824
 1056HOH      O 3372   0.499   0.273   3.640
 1056HOH     H1 3373   0.509   0.265   3.545
 1056HOH     H2 3374   0.406   0.291   3.653
 1057HOH      O 3375   3.225   0.897   1.877
 1057HOH     H1 3376   3.225   0.938   1.964
 1057HOH     H2 3377   3.289   0.826   1.885
 1058HOH      O 3378   0.291   1.360   0.485
 1058HOH     H1 3379   0.225   1.391   0.547
 1058HOH     H2 3380   0.360   1.321   0.540
 1059HOH      O 3381   0.286   2.227   3.341
 1059HOH     H1 3382   0.233   2.160   3.383
 1059HOH     H2 3383   0.373   2.188   3.335
 1060HOH      O 3384   0.428   1.989   2.468
 1060HOH     H1 3385   0.509   1.939   2.462
 1060HOH     H2 3386   0.425   2.019   2.559
 1061HOH      O 3387   3.927   3.826   1.316
 1061HOH     H1 3388   3.958   3.769   1.245
 1061HOH     H2 3389   3.866   3.772   1.365
 1062HOH      O 3390   1.059   3.276   1.576
 1062HOH     H1 3391   0.977   3.302   1.619
 1062HOH     H2 3392   1.126   3.329   1.619
 1063HOH      O 3393   3.787   0.574   1.551
 1063HOH     H1 3394   3.820   0.660   1.578
 1063HOH     H2 3395   3.863   0.516   1.558
 1064HOH      O 3396   1.579   1.200   0.735
 1064HOH     H1 3397   1.526   1.212   0.656
 1064HOH     H2 3398   1.664   1.171   0.703
 1065HOH      O 3399   3.987   1.584   3.342
 1065HOH     H1 3400   4.001   1.492   3.317
 1065HOH     H2 3401   4.074   1.614   3.369
 1066HOH      O 3402   2.312   3.738   0.433
 1066HOH     H1 3403   2.220   3.712   0.430
 1066HOH     H2 3404   2.312   3.830   0.406
 1067HOH      O 3405   0.136   3.481   0.925
 1067HOH     H1 3406   0.111   3.546   0.990
 1067HOH     H2 3407   0.089   3.402   0.951
 1068HOH      O 3408   0.566   3.459   2.055
 1068HOH     H1 3409   0.505   3.531   2.040
 1068HOH     H2 3410   0.557   3.404   1.978
 1069HOH      O 3411   0.541   0.317   3.372
 1069HOH     H1 3412   0.448   0.297   3.363
 1069HOH     H2 3413   0.550   0.406   3.339
 1070HOH      O 3414   1.507   3.540   0.442
 1070HOH     H1 3415   1.468   3.553   0.528
 1070HOH     H2 3416   1.584   3.486   0.458
 1071HOH      O 3417   0.075   0.168   3.748
 1071HOH     H1 3418   0.116   0.255   3.737
 1071HOH     H2 3419   0.111   0.116   3.677
 1072HOH      O 3420   0.426   0.915   0.042
 1072HOH     H1 3421   0.355   0.956   0.091
 1072HOH     H2 3422   0.391   0.830   0.016
 1073HOH      O 3423   0.202   0.516   0.705
 1073HOH     H1 3424   0.232   0.428   0.682
 1073HOH     H2 3425   0.126   0.532   0.649
 1074HOH      O 3426   3.758   1.656   0.051
 1074HOH     H1 3427   3.686   1.641   0.112
 1074HOH     H2 3428   3.718   1.648  -0.036
 1075HOH      O 3429   1.511   2.893   1.513
 1075HOH     H1 3430   1.538   2.946   1.438
 1075HOH     H2 3431   1.540   2.943   1.589
 1076HOH      O 3432   0.508   1.397   0.068
 1076HOH     H1 3433   0.539   1.453   0.139
 1076HOH     H2 3434   0.552   1.313   0.083
 1077HOH      O 3435   1.216   3.977   1.784
 1077HOH     H1 3436   1.200   4.062   1.825
 1077HOH     H2 3437   1.210   3.914   1.856
 1078HOH      O 3438   1.930   1.490   0.202
 1078HOH     H1 3439   1.840   1.505   0.172
 1078HOH     H2 3440   1.944   1.397   0.189
 1079HOH      O 3441   0.850   0.276   0.586
 1079HOH     H1 3442   0.821   0.223   0.512
 1079HOH     H2 3443   0.769   0.313   0.622
 1080HOH      O 3444   2.085   2.273   3.004
 1080HOH     H1 3445   2.027   2.197   3.013
 1080HOH     H2 3446   2.103   2.280   2.911
 1081HOH      O 3447   3.210   1.724   0.719
 1081HOH     H1 3448   3.271   1.651   0.724
 1081HOH     H2 3449   3.212   1.751   0.627
 1082HOH      O 3450   3.560   1.052   2.105
 1082HOH     H1 3451   3.653   1.063   2.128
 1082HOH     H2 3452   3.529   0.982   2.162
 1083HOH      O 3453   3.341   1.575   3.864
 1083HOH     H1 3454   3.322   1.482   3.878
 1083HOH     H2 3455   3.260   1.620   3.890
 1084HOH      O 3456   0.001   1.632   1.072
 1084HOH     H1 3457   0.036   1.544   1.084
 1084HOH     H2 3458  -0.026   1.634   0.980
 1085HOH      O 3459   1.205   2.408   2.915
 1085HOH     H1 3460   1.166   2.450   2.839
 1085HOH     H2 3461   1.194   2.471   2.986
 1086HOH      O 3462   3.658   3.837   2.062
 1086HOH     H1 3463   3.623   3.905   2.119
 1086HOH     H2 3464   3.623   3.859   1.975
 1087HOH      O 3465   1.994   3.334   1.463
 1087HOH     H1 3466   1.935   3.385   1.407
 1087HOH     H2 3467   2.019   3.259   1.409
 1088HOH      O 3468   1.866   3.408   1.042
 1088HOH     H1 3469   1.960   3.418   1.028
 1088HOH     H2 3470   1.853   3.430   1.134
 1089HOH      O 3471   1.347   0.831   2.701
 1089HOH     H1 3472   1.383   0.765   2.642
 1089HOH     H2 3473   1.332   0.785   2.783
 1090HOH      O 3474   0.242   0.265   0.586
 1090HOH     H1 3475   0.322   0.261   0.640
 1090HOH     H2 3476   0.200   0.180   0.600
 1091HOH      O 3477   0.384   3.710   2.381
 1091HOH     H1 3478   0.462   3.763   2.368
 1091HOH     H2 3479   0.397   3.668   2.466
 1092HOH      O 3480   0.630   1.111   0.125
 1092HOH     H1 3481   0.697   1.069   0.180
 1092HOH     H2 3482   0.553   1.054   0.134
 1093HOH      O 3483   0.829   3.298   3.814
 1093HOH     H1 3484   0.780   3.359   3.759
 1093HOH     H2 3485   0.763   3.234   3.843
 1094HOH      O 3486   2.776   1.369   0.047
 1094HOH     H1 3487   2.788   1.461   0.070
 1094HOH     H2 3488   2.748   1.370  -0.044
 1095HOH      O 3489   2.826   3.644   1.734
 1095HOH     H1 3490   2.732   3.654   1.750
 1095HOH     H2 3491   2.838   3.551   1.719
 1096HOH      O 3492   2.799   3.723   0.755
 1096HOH     H1 3493   2.866   3.670   0.712
 1096HOH     H2 3494   2.839   3.750   0.837
 1097HOH      O 3495   1.489   0.993   2.480
 1097HOH     H1 3496   1.478   0.933   2.554
 1097HOH     H2 3497   1.484   1.080   2.519
 1098HOH      O 3498   0.442   3.314   3.471
 1098HOH     H1 3499   0.506   3.248   3.499
 1098HOH     H2 3500   0.369   3.264   3.436
 1099HOH      O 3501   1.069   0.127   3.955
 1099HOH     H1 3502   1.010   0.184   3.906
 1099HOH     H2 3503   1.049   0.145   4.047
 1100HOH      O 3504   1.700   1.061   1.583
 1100HOH     H1 3505   1.715   0.998   1.653
 1100HOH     H2 3506   1.678   1.008   1.506
 1101HOH      O 3507   0.662   0.704   2.372
 1101HOH     H1 3508   0.737   0.652   2.402
 1101HOH     H2 3509   0.586   0.662   2.412
 1102HOH      O 3510   0.901   3.498   0.724
 1102HOH     H1 3511   0.878   3.421   0.672
 1102HOH     H2 3512   0.865   3.480   0.810
 1103HOH      O 3513   3.550   1.520   0.232
 1103HOH     H1 3514   3.602   1.474   0.298
 1103HOH     H2 3515   3.514   1.450   0.177
 1104HOH      O 3516   1.171   1.793   0.690
 1104HOH     H1 3517   1.204   1.715   0.733
 1104HOH     H2 3518   1.153   1.855   0.762
 1105HOH      O 3519   3.443   3.093   1.225
 1105HOH     H1 3520   3.461   2.999   1.215
 1105HOH     H2 3521   3.459   3.130   1.139
 1106HOH      O 3522   1.309   3.041   3.677
 1106HOH     H1 3523   1.254   3.119   3.683
 1106HOH     H2 3524   1.362   3.043   3.756
 1107HOH      O 3525   3.216   1.303   3.904
 1107HOH     H1 3526   3.137   1.307   3.850
 1107HOH     H2 3527   3.225   1.210   3.926
 1108HOH      O 3528   1.278   2.361   3.345
 1108HOH     H1 3529   1.228   2.369   3.264
 1108HOH     H2 3530   1.239   2.425   3.404
 1109HOH      O 3531   0.126   2.503   1.624
 1109HOH     H1 3532   0.056   2.567   1.620
 1109HOH     H2 3533   0.148   2.485   1.533
 1110HOH      O 3534   1.044   1.365   2.134
 1110HOH     H1 3535   1.069   1.421   2.061
 1110HOH     H2 3536   0.967   1.409   2.172
 1111HOH      O 3537   2.679   0.373   1.516
 1111HOH     H1 3538   2.660   0.281   1.500
 1111HOH     H2 3539   2.768   0.373   1.553
 1112HOH      O 3540   1.128   1.294   0.501
 1112HOH     H1 3541   1.047   1.303   0.551
 1112HOH     H2 3542   1.103   1.313   0.411
 1113HOH      O 3543   3.099   0.916   0.006
 1113HOH     H1 3544   3.043   0.988   0.035
 1113HOH     H2 3545   3.186   0.954  -0.003
 1114HOH      O 3546   3.386   0.702   1.992
 1114HOH     H1 3547   3.321   0.685   2.061
 1114HOH     H2 3548   3.467   0.719   2.040
 1115HOH      O 3549   2.976   1.222   1.129
 1115HOH     H1 3550   2.980   1.190   1.039
 1115HOH     H2 3551   2.929   1.305   1.123
 1116HOH      O 3552   1.096   2.764   2.950
 1116HOH     H1 3553   1.016   2.779   2.900
 1116HOH     H2 3554   1.166   2.776   2.886
 1117HOH      O 3555   3.134   2.926   2.473
 1117HOH     H1 3556   3.130   2.871   2.394
 1117HOH     H2 3557   3.077   3.001   2.453
 1118HOH      O 3558   1.891   2.213   2.269
 1118HOH     H1 3559   1.842   2.191   2.189
 1118HOH     H2 3560   1.846   2.166   2.339
 1119HOH      O 3561   1.180   3.199   0.688
 1119HOH     H1 3562   1.187   3.283   0.642
 1119HOH     H2 3563   1.261   3.193   0.738
 1120HOH      O 3564   3.676   4.013   2.962
 1120HOH     H1 3565   3.606   4.028   2.898
 1120HOH     H2 3566   3.750   3.981   2.911
 1121HOH      O 3567   3.391  -0.026   2.473
 1121HOH     H1 3568   3.303  -0.027   2.512
 1121HOH     H2 3569   3.398   0.060   2.432
 1122HOH      O 3570  -0.030   3.571   3.069
 1122HOH     H1 3571   0.044   3.629   3.052
 1122HOH     H2 3572   0.002   3.512   3.136
 1123HOH      O 3573   1.546   3.988   0.987
 1123HOH     H1 3574   1.547   3.894   0.971
 1123HOH     H2 3575   1.454   4.013   0.981
 1124HOH      O 3576   1.402   3.253   3.462
 1124HOH     H1 3577   1.450   3.235   3.382
 1124HOH     H2 3578   1.400   3.170   3.509
 1125HOH      O 3579   2.514   2.302   2.975
 1125HOH     H1 3580   2.483   2.221   3.015
 1125HOH     H2 3581   2.458   2.370   3.012
 1126HOH      O 3582   3.254   1.030   1.006
 1126HOH     H1 3583   3.340   0.989   1.008
 1126HOH     H2 3584   3.206   0.982   0.938
 1127HOH      O 3585   0.616   3.748   1.206
 1127HOH     H1 3586   0.583   3.724   1.293
 1127HOH     H2 3587   0.699   3.701   1.199
 1128HOH      O 3588   0.903   2.918   1.851
 1128HOH     H1 3589   0.984   2.966   1.835
 1128HOH     H2 3590   0.930   2.827   1.864
 1129HOH      O 3591   1.844   0.665   3.248
 1129HOH     H1 3592   1.898   0.598   3.289
 1129HOH     H2 3593   1.796   0.705   3.321
 1130HOH      O 3594   2.921   0.417  -0.000
 1130HOH     H1 3595   2.918   0.347  -0.065
 1130HOH     H2 3596   2.865   0.386   0.071
 1131HOH      O 3597   3.211   0.262   1.074
 1131HOH     H1 3598   3.296   0.234   1.042
 1131HOH     H2 3599   3.173   0.184   1.115
 1132HOH      O 3600   3.374   2.702   0.441
 1132HOH     H1 3601   3.395   2.789   0.474
 1132HOH     H2 3602   3.304   2.671   0.499
 1133HOH      O 3603   2.408   2.747   0.336
 1133HOH     H1 3604   2.329   2.694   0.324
 1133HOH     H2 3605   2.480   2.687   0.318
 1134HOH      O 3606   0.659   0.481   2.722
 1134HOH     H1 3607   0.693   0.529   2.646
 1134HOH     H2 3608   0.675   0.389   2.701
 1135HOH      O 3609   2.921   1.898   2.881
 1135HOH     H1 3610   2.923   1.989   2.913
 1135HOH     H2 3611   2.852   1.857   2.932
 1136HOH      O 3612   3.723   1.558   1.250
 1136HOH     H1 3613   3.666   1.515   1.314
 1136HOH     H2 3614   3.702   1.515   1.167
 1137HOH      O 3615   2.807   3.567   0.020
 1137HOH     H1 3616   2.867   3.533   0.086
 1137HOH     H2 3617   2.853   3.555  -0.063
 1138HOH      O 3618   2.042   0.819   1.683
 1138HOH     H1 3619   2.013   0.729   1.669
 1138HOH     H2 3620   2.035   0.860   1.597
 1139HOH      O 3621   3.783   0.445   3.596
 1139HOH     H1 3622   3.699   0.491   3.601
 1139HOH     H2 3623   3.760   0.356   3.569
 1140HOH      O 3624   2.398   0.024   3.874
 1140HOH     H1 3625   2.377   0.061   3.788
 1140HOH     H2 3626   2.372   0.093   3.935
 1141HOH      O 3627   0.791   2.130   3.854
 1141HOH     H1 3628   0.737   2.174   3.788
 1141HOH     H2 3629   0.788   2.037   3.828
 1142HOH      O 3630   3.789   3.010   0.950
 1142HOH     H1 3631   3.755   2.953   1.019
 1142HOH     H2 3632   3.869   2.966   0.921
 1143HOH      O 3633   2.819   3.256   2.213
 1143HOH     H1 3634   2.804   3.303   2.132
 1143HOH     H2 3635   2.904   3.213   2.202
 1144HOH      O 3636   1.501   0.388   3.889
 1144HOH     H1 3637   1.457   0.306   3.867
 1144HOH     H2 3638   1.594   0.366   3.893
 1145HOH      O 3639   3.660   2.252   2.366
 1145HOH     H1 3640   3.646   2.230   2.458
 1145HOH     H2 3641   3.693   2.171   2.327
 1146HOH      O 3642   2.284   3.439   3.551
 1146HOH     H1 3643   2.317   3.529   3.551
 1146HOH     H2 3644   2.362   3.385   3.552
 1147HOH      O 3645   1.584   1.375   0.435
 1147HOH     H1 3646   1.542   1.290   0.450
 1147HOH     H2 3647   1.547   1.432   0.502
 1148HOH      O 3648   1.068   1.432   1.613
 1148HOH     H1 3649   1.155   1.450   1.579
 1148HOH     H2 3650   1.077   1.349   1.659
 1149HOH      O 3651   2.299   3.579   1.096
 1149HOH     H1 3652   2.314   3.653   1.154
 1149HOH     H2 3653   2.316   3.502   1.150
 1150HOH      O 3654   2.319   0.599   0.782
 1150HOH     H1 3655   2.314   0.512   0.742
 1150HOH     H2 3656   2.341   0.658   0.710
 1151HOH      O 3657   1.232   3.179   2.013
 1151HOH     H1 3658   1.321   3.159   1.984
 1151HOH     H2 3659   1.177   3.156   1.938
 1152HOH      O 3660   1.449   2.565   0.942
 1152HOH     H1 3661   1.472   2.654   0.917
 1152HOH     H2 3662   1.488   2.554   1.029
 1153HOH      O 3663   1.146   3.332   3.180
 1153HOH     H1 3664   1.215   3.397   3.167
 1153HOH     H2 3665   1.159   3.269   3.110
 1154HOH      O 3666   3.707   1.679   2.398
 1154HOH     H1 3667   3.648   1.629   2.455
 1154HOH     H2 3668   3.778   1.707   2.456
 1155HOH      O 3669   3.758   0.394   2.919
 1155HOH     H1 3670   3.719   0.377   2.833
 1155HOH     H2 3671   3.710   0.336   2.978
 1156HOH      O 3672   0.946   2.652   1.834
 1156HOH     H1 3673   0.856   2.620   1.824
 1156HOH     H2 3674   0.983   2.597   1.903
 1157HOH      O 3675   0.934   2.534   3.748
 1157HOH     H1 3676   0.881   2.599   3.794
 1157HOH     H2 3677   0.876   2.500   3.680
 1158HOH      O 3678   3.281   1.988   0.884
 1158HOH     H1 3679   3.248   1.923   0.822
 1158HOH     H2 3680   3.264   1.949   0.970
 1159HOH      O 3681   3.152   3.407   1.391
 1159HOH     H1 3682   3.108   3.329   1.357
 1159HOH     H2 3683   3.220   3.373   1.450
 1160HOH      O 3684   3.406   1.666   3.584
 1160HOH     H1 3685   3.379   1.639   3.672
 1160HOH     H2 3686   3.414   1.761   3.589
 1161HOH      O 3687   1.264   2.827   3.997
 1161HOH     H1 3688   1.342   2.882   3.983
 1161HOH     H2 3689   1.269   2.801   4.089
 1162HOH      O 3690   3.304   1.729   0.208
 1162HOH     H1 3691   3.276   1.724   0.116
 1162HOH     H2 3692   3.326   1.639   0.231
 1163HOH      O 3693   0.953   1.759   2.758
 1163HOH     H1 3694   0.978   1.684   2.812
 1163HOH     H2 3695   1.036   1.799   2.733
 1164HOH      O 3696   2.960   2.614   1.334
 1164HOH     H1 3697   2.886   2.558   1.308
 1164HOH     H2 3698   2.957   2.614   1.430
 1165HOH      O 3699   0.357   0.148   0.123
 1165HOH     H1 3700   0.375   0.141   0.029
 1165HOH     H2 3701   0.300   0.074   0.142
 1166HOH      O 3702   3.287   1.339   0.678
 1166HOH     H1 3703   3.207   1.385   0.704
 1166HOH     H2 3704   3.349   1.356   0.749
 1167HOH      O 3705   1.650   2.807   3.553
 1167HOH     H1 3706   1.556   2.800   3.571
 1167HOH     H2 3707   1.687   2.725   3.584
 1168HOH      O 3708   0.958   3.011   3.462
 1168HOH     H1 3709   1.005   3.089   3.433
 1168HOH     H2 3710   0.947   2.959   3.382
 1169HOH      O 3711   1.789   3.438   3.917
 1169HOH     H1 3712   1.845   3.360   3.923
 1169HOH     H2 3713   1.700   3.404   3.926
 1170HOH      O 3714   0.220   0.060   3.143
 1170HOH     H1 3715   0.215  -0.017   3.086
 1170HOH     H2 3716   0.254   0.129   3.087
 1171HOH      O 3717   1.779   1.433   2.068
 1171HOH     H1 3718   1.766   1.369   1.998
 1171HOH     H2 3719   1.824   1.506   2.026
 1172HOH      O 3720   0.251   0.158   0.909
 1172HOH     H1 3721   0.241   0.089   0.975
 1172HOH     H2 3722   0.206   0.233   0.947
 1173HOH      O 3723   2.033   2.676   2.292
 1173HOH     H1 3724   1.940   2.658   2.306
 1173HOH     H2 3725   2.075   2.653   2.374
 1174HOH      O 3726   1.306   1.930   3.043
 1174HOH     H1 3727   1.366   2.001   3.022
 1174HOH     H2 3728   1.360   1.867   3.090
 1175HOH      O 3729   2.284   3.275   1.978
 1175HOH     H1 3730   2.289   3.357   1.930
 1175HOH     H2 3731   2.347   3.285   2.050
 1176HOH      O 3732   3.326   2.459   0.976
 1176HOH     H1 3733   3.299   2.393   0.912
 1176HOH     H2 3734   3.364   2.408   1.048
 1177HOH      O 3735   0.501   2.956   2.410
 1177HOH     H1 3736   0.422   2.946   2.463
 1177HOH     H2 3737   0.514   3.051   2.404
 1178HOH      O 3738   2.124   1.688   1.061
 1178HOH     H1 3739   2.129   1.618   1.126
 1178HOH     H2 3740   2.035   1.681   1.026
 1179HOH      O 3741   3.558   1.546   2.559
 1179HOH     H1 3742   3.495   1.616   2.578
 1179HOH     H2 3743   3.504   1.468   2.548
 1180HOH      O 3744   2.338   0.265   4.039
 1180HOH     H1 3745   2.431   0.285   4.056
 1180HOH     H2 3746   2.307   0.340   3.988
 1181HOH      O 3747   0.776   2.008   1.058
 1181HOH     H1 3748   0.810   1.918   1.052
 1181HOH     H2 3749   0.688   2.002   1.021
 1182HOH      O 3750   1.004   0.444   0.404
 1182HOH     H1 3751   0.953   0.405   0.475
 1182HOH     H2 3752   1.088   0.397   0.406
 1183HOH      O 3753   0.956   1.058   0.018
 1183HOH     H1 3754   0.896   0.997   0.061
 1183HOH     H2 3755   0.899   1.123  -0.023
 1184HOH      O 3756   3.301   2.105   3.507
 1184HOH     H1 3757   3.224   2.154   3.538
 1184HOH     H2 3758   3.350   2.085   3.586
 1185HOH      O 3759   2.073   2.025   1.548
 1185HOH     H1 3760   2.083   2.061   1.460
 1185HOH     H2 3761   2.161   1.998   1.573
 1186HOH      O 3762   0.871   1.821   3.201
 1186HOH     H1 3763   0.851   1.868   3.120
 1186HOH     H2 3764   0.965   1.836   3.215
 1187HOH      O 3765   3.295   1.981   2.037
 1187HOH     H1 3766   3.344   2.023   2.108
 1187HOH     H2 3767   3.319   1.889   2.043
 1188HOH      O 3768   0.112   3.232   1.059
 1188HOH     H1 3769   0.151   3.284   1.128
 1188HOH     H2 3770   0.119   3.141   1.089
 1189HOH      O 3771   1.684   2.242   1.391
 1189HOH     H1 3772   1.638   2.187   1.454
 1189HOH     H2 3773   1.642   2.328   1.398
 1190HOH      O 3774   2.652   2.222   2.046
 1190HOH     H1 3775   2.707   2.296   2.020
 1190HOH     H2 3776   2.670   2.212   2.140
 1191HOH      O 3777   2.134   2.636   2.819
 1191HOH     H1 3778   2.129   2.691   2.897
 1191HOH     H2 3779   2.067   2.569   2.832
 1192HOH      O 3780   3.931   0.681   0.008
 1192HOH     H1 3781   3.851   0.673  -0.045
 1192HOH     H2 3782   3.899   0.702   0.096
 1193HOH      O 3783   3.153   2.919   3.920
 1193HOH     H1 3784   3.073   2.892   3.875
 1193HOH     H2 3785   3.186   2.992   3.867
 1194HOH      O 3786   4.045   3.272   1.913
 1194HOH     H1 3787   4.013   3.315   1.833
 1194HOH     H2 3788   3.966   3.248   1.961
 1195HOH      O 3789   2.788   2.353   1.588
 1195HOH     H1 3790   2.828   2.310   1.663
 1195HOH     H2 3791   2.696   2.364   1.613
 1196HOH      O 3792   1.003   1.894   3.805
 1196HOH     H1 3793   0.910   1.874   3.801
 1196HOH     H2 3794   1.026   1.917   3.714
 1197HOH      O 3795   3.617   2.564   0.611
 1197HOH     H1 3796   3.664   2.500   0.557
 1197HOH     H2 3797   3.542   2.589   0.558
 1198HOH      O 3798   0.882   3.222   0.653
 1198HOH     H1 3799   0.963   3.173   0.673
 1198HOH     H2 3800   0.814   3.155   0.651
 1199HOH      O 3801   0.661   2.599   1.283
 1199HOH     H1 3802   0.583   2.563   1.324
 1199HOH     H2 3803   0.629   2.673   1.231
 1200HOH      O 3804   2.657   0.226   0.744
 1200HOH     H1 3805   2.614   0.234   0.658
 1200HOH     H2 3806   2.603   0.162   0.791
 1201HOH      O 3807   2.918   2.665   3.408
 1201HOH     H1 3808   2.829   2.631   3.403
 1201HOH     H2 3809   2.948   2.639   3.496
 1202HOH      O 3810   2.526   3.360   2.547
 1202HOH     H1 3811   2.585   3.428   2.514
 1202HOH     H2 3812   2.575   3.317   2.617
 1203HOH      O 3813   2.536   0.378   3.815
 1203HOH     H1 3814   2.580   0.296   3.796
 1203HOH     H2 3815   2.476   0.390   3.742
 1204HOH      O 3816   2.701   2.172   2.336
 1204HOH     H1 3817   2.781   2.223   2.349
 1204HOH     H2 3818   2.650   2.187   2.416
 1205HOH      O 3819   3.140   2.044   3.136
 1205HOH     H1 3820   3.130   1.973   3.072
 1205HOH     H2 3821   3.233   2.063   3.136
 1206HOH      O 3822   2.128   2.547   2.017
 1206HOH     H1 3823   2.103   2.533   2.108
 1206HOH     H2 3824   2.218   2.515   2.011
 1207HOH      O 3825   0.222   1.802   2.504
 1207HOH     H1 3826   0.273   1.721   2.496
 1207HOH     H2 3827   0.282   1.871   2.475
 1208HOH      O 3828   0.996   0.293   2.799
 1208HOH     H1 3829   1.083   0.261   2.822
 1208HOH     H2 3830   1.012   0.372   2.747
 1209HOH      O 3831   0.706   1.180   3.912
 1209HOH     H1 3832   0.634   1.136   3.956
 1209HOH     H2 3833   0.718   1.261   3.960
 1210HOH      O 3834   2.225   1.157   3.970
 1210HOH     H1 3835   2.279   1.219   4.018
 1210HOH     H2 3836   2.286   1.088   3.944
 1211HOH      O 3837   0.395   1.920   0.253
 1211HOH     H1 3838   0.300   1.933   0.251
 1211HOH     H2 3839   0.405   1.826   0.264
 1212HOH      O 3840   1.062   0.057   2.106
 1212HOH     H1 3841   1.085   0.121   2.174
 1212HOH     H2 3842   0.966   0.058   2.104
 1213HOH      O 3843   0.794   1.636   2.553
 1213HOH     H1 3844   0.801   1.557   2.607
 1213HOH     H2 3845   0.865   1.693   2.583
 1214HOH      O 3846   2.377   1.194   0.553
 1214HOH     H1 3847   2.352   1.113   0.598
 1214HOH     H2 3848   2.304   1.212   0.494
 1215HOH      O 3849   1.555   2.615   1.205
 1215HOH     H1 3850   1.530   2.628   1.297
 1215HOH     H2 3851   1.650   2.599   1.209
 1216HOH      O 3852   0.459   2.299   0.509
 1216HOH     H1 3853   0.545   2.332   0.485
 1216HOH     H2 3854   0.469   2.204   0.509
 1217HOH      O 3855   0.399   2.709   1.463
 1217HOH     H1 3856   0.455   2.668   1.529
 1217HOH     H2 3857   0.340   2.765   1.513
 1218HOH      O 3858   0.193   0.647   2.663
 1218HOH     H1 3859   0.175   0.719   2.603
 1218HOH     H2 3860   0.121   0.649   2.726
 1219HOH      O 3861   2.799   0.951   3.824
 1219HOH     H1 3862   2.879   0.991   3.790
 1219HOH     H2 3863   2.807   0.858   3.801
 1220HOH      O 3864   0.260   3.092   1.434
 1220HOH     H1 3865   0.169   3.112   1.411
 1220HOH     H2 3866   0.259   2.999   1.457
 1221HOH      O 3867   3.486   2.117   2.190
 1221HOH     H1 3868   3.563   2.170   2.209
 1221HOH     H2 3869   3.516   2.051   2.128
 1222HOH      O 3870   1.146   0.204   0.253
 1222HOH     H1 3871   1.190   0.252   0.323
 1222HOH     H2 3872   1.156   0.112   0.278
 1223HOH      O 3873   3.165   0.848   3.791
 1223HOH     H1 3874   3.124   0.865   3.876
 1223HOH     H2 3875   3.243   0.904   3.791
 1224HOH      O 3876   3.342   2.206   3.919
 1224HOH     H1 3877   3.250   2.224   3.901
 1224HOH     H2 3878   3.357   2.241   4.007
 1225HOH      O 3879   3.944   3.500   0.291
 1225HOH     H1 3880   4.001   3.437   0.335
 1225HOH     H2 3881   3.869   3.447   0.263
 1226HOH      O 3882   0.301   1.685   1.339
 1226HOH     H1 3883   0.233   1.730   1.289
 1226HOH     H2 3884   0.269   1.595   1.348
 1227HOH      O 3885   2.517   2.174   3.629
 1227HOH     H1 3886   2.440   2.145   3.678
 1227HOH     H2 3887   2.483   2.237   3.566
 1228HOH      O 3888   2.892   0.447   0.696
 1228HOH     H1 3889   2.827   0.431   0.764
 1228HOH     H2 3890   2.974   0.459   0.744
 1229HOH      O 3891   2.235   1.199   1.841
 1229HOH     H1 3892   2.192   1.113   1.844
 1229HOH     H2 3893   2.323   1.180   1.808
 1230HOH      O 3894   0.103   1.012   3.121
 1230HOH     H1 3895   0.011   1.034   3.108
 1230HOH     H2 3896   0.123   1.045   3.209
 1231HOH      O 3897   1.485   2.102   1.528
 1231HOH     H1 3898   1.436   2.182   1.546
 1231HOH     H2 3899   1.508   2.068   1.615
 1232HOH      O 3900   1.800   3.995   1.675
 1232HOH     H1 3901   1.789   4.089   1.662
 1232HOH     H2 3902   1.712   3.963   1.696
 1233HOH      O 3903   0.363   2.921   2.681
 1233HOH     H1 3904   0.317   2.889   2.759
 1233HOH     H2 3905   0.455   2.920   2.706
 1234HOH      O 3906   3.628   0.903   4.049
 1234HOH     H1 3907   3.657   0.826   3.999
 1234HOH     H2 3908   3.659   0.977   3.997
 1235HOH      O 3909   1.723   1.332   3.992
 1235HOH     H1 3910   1.705   1.384   4.070
 1235HOH     H2 3911   1.731   1.242   4.024
 1236HOH      O 3912   3.690   1.850   1.337
 1236HOH     H1 3913   3.676   1.841   1.432
 1236HOH     H2 3914   3.713   1.763   1.308
 1237HOH      O 3915   3.773   1.421   3.333
 1237HOH     H1 3916   3.839   1.490   3.329
 1237HOH     H2 3917   3.812   1.349   3.283
 1238HOH      O 3918   3.612   0.312   0.569
 1238HOH     H1 3919   3.536   0.287   0.516
 1238HOH     H2 3920   3.668   0.235   0.569
 1239HOH      O 3921   2.418   1.778   3.937
 1239HOH     H1 3922   2.452   1.727   4.010
 1239HOH     H2 3923   2.325   1.754   3.932
 1240HOH      O 3924   2.629   3.893   2.887
 1240HOH     H1 3925   2.683   3.971   2.898
 1240HOH     H2 3926   2.543   3.917   2.922
 1241HOH      O 3927   1.366   2.717   0.637
 1241HOH     H1 3928   1.438   2.761   0.592
 1241HOH     H2 3929   1.309   2.788   0.666
 1242HOH      O 3930   3.630   1.907   3.746
 1242HOH     H1 3931   3.721   1.896   3.775
 1242HOH     H2 3932   3.637   1.950   3.661
 1243HOH      O 3933   1.303   3.442   3.780
 1243HOH     H1 3934   1.258   3.517   3.740
 1243HOH     H2 3935   1.259   3.365   3.742
 1244HOH      O 3936   0.876   1.853   1.944
 1244HOH     H1 3937   0.963   1.819   1.928
 1244HOH     H2 3938   0.890   1.932   1.996
 1245HOH      O 3939   1.730   2.419   2.287
 1245HOH     H1 3940   1.798   2.355   2.263
 1245HOH     H2 3941   1.749   2.441   2.378
 1246HOH      O 3942   3.699   0.764   1.811
 1246HOH     H1 3943   3.619   0.792   1.768
 1246HOH     H2 3944   3.770   0.797   1.756
 1247HOH      O 3945   2.825   2.090   3.485
 1247HOH     H1 3946   2.783   2.121   3.405
 1247HOH     H2 3947   2.906   2.049   3.455
 1248HOH      O 3948   2.012   0.531   1.099
 1248HOH     H1 3949   2.074   0.597   1.069
 1248HOH     H2 3950   1.993   0.479   1.022
 1249HOH      O 3951   4.051   2.604   0.505
 1249HOH     H1 3952   4.058   2.509   0.497
 1249HOH     H2 3953   3.961   2.619   0.533
 1250HOH      O 3954   2.347   0.377   1.959
 1250HOH     H1 3955   2.312   0.418   1.880
 1250HOH     H2 3956   2.431   0.419   1.972
 1251HOH      O 3957   1.642   2.515   2.065
 1251HOH     H1 3958   1.663   2.481   2.152
 1251HOH     H2 3959   1.709   2.581   2.047
 1252HOH      O 3960   1.032   1.676   0.458
 1252HOH     H1 3961   1.109   1.690   0.403
 1252HOH     H2 3962   1.066   1.677   0.548
 1253HOH      O 3963   0.229   3.498   2.680
 1253HOH     H1 3964   0.276   3.557   2.739
 1253HOH     H2 3965   0.138   3.505   2.707
 1254HOH      O 3966   0.670   1.864   2.467
 1254HOH     H1 3967   0.694   1.778   2.500
 1254HOH     H2 3968   0.714   1.871   2.382
 1255HOH      O 3969   0.555   3.579   2.587
 1255HOH     H1 3970   0.636   3.592   2.537
 1255HOH     H2 3971   0.584   3.537   2.669
 1256HOH      O 3972   3.198   3.511   0.311
 1256HOH     H1 3973   3.140   3.571   0.357
 1256HOH     H2 3974   3.222   3.445   0.376
 1257HOH      O 3975   3.254   2.797   3.370
 1257HOH     H1 3976   3.161   2.810   3.389
 1257HOH     H2 3977   3.285   2.882   3.340
 1258HOH      O 3978   1.354   3.507   3.083
 1258HOH     H1 3979   1.349   3.599   3.106
 1258HOH     H2 3980   1.435   3.499   3.033
 1259HOH      O 3981   1.798   3.151   3.733
 1259HOH     H1 3982   1.734   3.212   3.695
 1259HOH     H2 3983   1.869   3.207   3.763
 1260HOH      O 3984   2.326   3.822   3.747
 1260HOH     H1 3985   2.239   3.861   3.743
 1260HOH     H2 3986   2.383   3.892   3.778
 1261HOH      O 3987   3.215   3.484   1.076
 1261HOH     H1 3988   3.177   3.407   1.033
 1261HOH     H2 3989   3.255   3.450   1.156
 1262HOH      O 3990   1.852   0.943   0.942
 1262HOH     H1 3991   1.792   0.870   0.959
 1262HOH     H2 3992   1.794   1.018   0.926
 1263HOH      O 3993   1.177   1.323   2.378
 1263HOH     H1 3994   1.146   1.233   2.374
 1263HOH     H2 3995   1.148   1.361   2.295
 1264HOH      O 3996   1.154   1.796   2.035
 1264HOH     H1 3997   1.109   1.791   2.119
 1264HOH     H2 3998   1.247   1.796   2.058
 1265HOH      O 3999   1.490   2.850   0.884
 1265HOH     H1 4000   1.541   2.834   0.804
 1265HOH     H2 4001   1.417   2.905   0.855
 1266HOH      O 4002   3.917   0.967   3.977
 1266HOH     H1 4003   3.919   0.872   3.991
 1266HOH     H2 4004   3.837   0.996   4.021
 1267HOH      O 4005   0.813   0.021   1.991
 1267HOH     H1 4006   0.843  -0.024   1.912
 1267HOH     H2 4007   0.769   0.099   1.959
 1268HOH      O 4008   0.680   1.480   2.985
 1268HOH     H1 4009   0.695   1.567   2.949
 1268HOH     H2 4010   0.695   1.421   2.911
 1269HOH      O 4011   1.993   0.217   0.688
 1269HOH     H1 4012   1.961   0.249   0.604
 1269HOH     H2 4013   1.945   0.135   0.703
 1270HOH      O 4014   3.947   2.378   0.122
 1270HOH     H1 4015   3.992   2.350   0.043
 1270HOH     H2 4016   3.957   2.305   0.183
 1271HOH      O 4017   0.385   1.536   3.693
 1271HOH     H1 4018   0.474   1.566   3.710
 1271HOH     H2 4019   0.369   1.469   3.759
 1272HOH      O 4020   1.933   1.775   0.699
 1272HOH     H1 4021   1.956   1.691   0.738
 1272HOH     H2 4022   1.907   1.829   0.773
 1273HOH      O 4023   2.718   1.348   3.827
 1273HOH     H1 4024   2.720   1.253   3.817
 1273HOH     H2 4025   2.653   1.378   3.763
 1274HOH      O 4026   2.012   1.616   1.738
 1274HOH     H1 4027   2.064   1.563   1.799
 1274HOH     H2 4028   2.077   1.654   1.678
 1275HOH      O 4029   1.207   2.422   1.603
 1275HOH     H1 4030   1.175   2.504   1.564
 1275HOH     H2 4031   1.219   2.364   1.528
 1276HOH      O 4032   0.333   1.535   3.416
 1276HOH     H1 4033   0.360   1.517   3.506
 1276HOH     H2 4034   0.383   1.474   3.363
 1277HOH      O 4035   2.823   0.680   1.016
 1277HOH     H1 4036   2.890   0.618   1.043
 1277HOH     H2 4037   2.776   0.635   0.945
 1278HOH      O 4038  -0.012   1.835   0.448
 1278HOH     H1 4039   0.048   1.823   0.374
 1278HOH     H2 4040  -0.014   1.751   0.492
 1279HOH      O 4041   0.798   0.303   3.602
 1279HOH     H1 4042   0.823   0.283   3.512
 1279HOH     H2 4043   0.727   0.368   3.593
 1280HOH      O 4044   3.449   2.688   3.551
 1280HOH     H1 4045   3.396   2.719   3.477
 1280HOH     H2 4046   3.507   2.762   3.571
 1281HOH      O 4047   1.047   1.704   0.024
 1281HOH     H1 4048   1.084   1.792   0.019
 1281HOH     H2 4049   0.955   1.719   0.046
 1282HOH      O 4050   3.440   0.700   0.534
 1282HOH     H1 4051   3.490   0.649   0.598
 1282HOH     H2 4052   3.446   0.790   0.565
 1283HOH      O 4053   3.710   1.811   2.883
 1283HOH     H1 4054   3.773   1.863   2.935
 1283HOH     H2 4055   3.647   1.780   2.948
 1284HOH      O 4056   0.318   0.063   3.560
 1284HOH     H1 4057   0.341   0.001   3.492
 1284HOH     H2 4058   0.275   0.135   3.514
 1285HOH      O 4059   0.677   1.253   3.610
 1285HOH     H1 4060   0.698   1.189   3.678
 1285HOH     H2 4061   0.623   1.319   3.654
 1286HOH      O 4062   1.198   0.031   3.275
 1286HOH     H1 4063   1.176   0.075   3.192
 1286HOH     H2 4064   1.114  -0.004   3.305
 1287HOH      O 4065   2.769   0.623   3.854
 1287HOH     H1 4066   2.830   0.576   3.911
 1287HOH     H2 4067   2.683   0.584   3.872
 1288HOH      O 4068   0.102   3.885   1.476
 1288HOH     H1 4069   0.095   3.826   1.551
 1288HOH     H2 4070   0.018   3.877   1.432
 1289HOH      O 4071   1.693   1.764   0.533
 1289HOH     H1 4072   1.646   1.739   0.612
 1289HOH     H2 4073   1.786   1.761   0.557
 1290HOH      O 4074   1.230   0.939   1.252
 1290HOH     H1 4075   1.304   0.897   1.297
 1290HOH     H2 4076   1.222   1.024   1.294
 1291HOH      O 4077   1.838   0.970   2.083
 1291HOH     H1 4078   1.859   0.955   2.175
 1291HOH     H2 4079   1.888   0.903   2.036
 1292HOH      O 4080   2.146   3.407   3.296
 1292HOH     H1 4081   2.166   3.500   3.293
 1292HOH     H2 4082   2.175   3.379   3.382
 1293HOH      O 4083   0.715   1.235   0.443
 1293HOH     H1 4084   0.747   1.263   0.528
 1293HOH     H2 4085   0.763   1.288   0.380
 1294HOH      O 4086   2.711   2.370   0.372
 1294HOH     H1 4087   2.625   2.331   0.380
 1294HOH     H2 4088   2.695   2.456   0.333
 1295HOH      O 4089   3.021   2.090   1.052
 1295HOH     H1 4090   2.985   2.173   1.084
 1295HOH     H2 4091   3.076   2.059   1.123
 1296HOH      O 4092   2.577   1.178   1.037
 1296HOH     H1 4093   2.591   1.176   0.942
 1296HOH     H2 4094   2.564   1.087   1.061
 1297HOH      O 4095   1.246   2.822   2.710
 1297HOH     H1 4096   1.217   2.842   2.621
 1297HOH     H2 4097   1.318   2.760   2.699
 1298HOH      O 4098   2.589   0.876   3.190
 1298HOH     H1 4099   2.551   0.837   3.111
 1298HOH     H2 4100   2.682   0.855   3.184
 1299HOH      O 4101   1.435   1.786   2.226
 1299HOH     H1 4102   1.509   1.782   2.286
 1299HOH     H2 4103   1.358   1.777   2.282
 1300HOH      O 4104   0.657   2.958   2.675
 1300HOH     H1 4105   0.708   2.978   2.597
 1300HOH     H2 4106   0.673   3.032   2.734
 1301HOH      O 4107   0.051   2.796   2.462
 1301HOH     H1 4108   0.120   2.861   2.452
 1301HOH     H2 4109  -0.030   2.845   2.442
 1302HOH      O 4110   0.178   0.471   3.222
 1302HOH     H1 4111   0.166   0.416   3.144
 1302HOH     H2 4112   0.137   0.555   3.198
 1303HOH      O 4113   1.588   3.462   3.249
 1303HOH     H1 4114   1.575   3.369   3.233
 1303HOH     H2 4115   1.656   3.488   3.187
 1304HOH      O 4116   1.153   3.797   2.460
 1304HOH     H1 4117   1.071   3.803   2.510
 1304HOH     H2 4118   1.126   3.813   2.369
 1305HOH      O 4119   0.663   3.128   3.594
 1305HOH     H1 4120   0.743   3.080   3.573
 1305HOH     H2 4121   0.659   3.128   3.690
 1306HOH      O 4122   0.656   3.231   2.240
 1306HOH     H1 4123   0.623   3.315   2.207
 1306HOH     H2 4124   0.615   3.222   2.326
 1307HOH      O 4125   1.896   1.575   3.229
 1307HOH     H1 4126   1.841   1.643   3.270
 1307HOH     H2 4127   1.853   1.559   3.145
 1308HOH      O 4128   3.406   2.502   2.743
 1308HOH     H1 4129   3.414   2.444   2.818
 1308HOH     H2 4130   3.401   2.590   2.781
 1309HOH      O 4131   1.494   0.231   0.615
 1309HOH     H1 4132   1.589   0.240   0.623
 1309HOH     H2 4133   1.478   0.137   0.619
 1310HOH      O 4134   2.705   1.060   3.497
 1310HOH     H1 4135   2.655   0.993   3.544
 1310HOH     H2 4136   2.660   1.142   3.517
 1311HOH      O 4137   1.596   3.473   1.098
 1311HOH     H1 4138   1.666   3.423   1.057
 1311HOH     H2 4139   1.579   3.544   1.037
 1312HOH      O 4140   0.325   2.251   2.424
 1312HOH     H1 4141   0.376   2.258   2.343
 1312HOH     H2 4142   0.326   2.158   2.445
 1313HOH      O 4143   1.327   0.682   0.554
 1313HOH     H1 4144   1.385   0.664   0.628
 1313HOH     H2 4145   1.371   0.642   0.479
 1314HOH      O 4146   0.947   0.300   1.281
 1314HOH     H1 4147   0.944   0.208   1.307
 1314HOH     H2 4148   0.884   0.343   1.339
 1315HOH      O 4149   0.061   1.132   2.391
 1315HOH     H1 4150  -0.008   1.165   2.332
 1315HOH     H2 4151   0.116   1.077   2.335
 1316HOH      O 4152   1.133   1.884   3.237
 1316HOH     H1 4153   1.172   1.920   3.158
 1316HOH     H2 4154   1.154   1.947   3.306
 1317HOH      O 4155   0.453   3.802   1.685
 1317HOH     H1 4156   0.481   3.859   1.613
 1317HOH     H2 4157   0.368   3.838   1.712
 1318HOH      O 4158   2.928   2.729   2.765
 1318HOH     H1 4159   2.959   2.639   2.767
 1318HOH     H2 4160   3.007   2.782   2.756
 1319HOH      O 4161   3.270   0.050   0.079
 1319HOH     H1 4162   3.344   0.057   0.019
 1319HOH     H2 4163   3.269   0.134   0.125
 1320HOH      O 4164   2.458   0.764   2.957
 1320HOH     H1 4165   2.422   0.843   2.915
 1320HOH     H2 4166   2.383   0.726   3.002
 1321HOH      O 4167   3.998   3.650   0.068
 1321HOH     H1 4168   3.977   3.591   0.140
 1321HOH     H2 4169   3.943   3.619  -0.005
 1322HOH      O 4170   0.990   2.889   3.947
 1322HOH     H1 4171   1.084   2.896   3.963
 1322HOH     H2 4172   0.983   2.870   3.854
 1323HOH      O 4173   3.530   1.202   1.867
 1323HOH     H1 4174   3.534   1.290   1.906
 1323HOH     H2 4175   3.541   1.143   1.942
 1324HOH      O 4176   2.685   3.819   1.385
 1324HOH     H1 4177   2.624   3.865   1.444
 1324HOH     H2 4178   2.632   3.750   1.346
 1325HOH      O 4179   1.554   3.182   3.260
 1325HOH     H1 4180   1.607   3.124   3.316
 1325HOH     H2 4181   1.565   3.147   3.172
 1326HOH      O 4182   2.047   0.513   1.668
 1326HOH     H1 4183   2.135   0.531   1.700
 1326HOH     H2 4184   2.059   0.494   1.574
 1327HOH      O 4185   3.650   1.111   2.927
 1327HOH     H1 4186   3.708   1.066   2.864
 1327HOH     H2 4187   3.605   1.177   2.874
 1328HOH      O 4188   3.059   2.173   2.684
 1328HOH     H1 4189   3.095   2.259   2.708
 1328HOH     H2 4190   2.967   2.177   2.710
 1329HOH      O 4191   1.839   2.598   1.239
 1329HOH     H1 4192   1.884   2.661   1.182
 1329HOH     H2 4193   1.875   2.615   1.326
 1330HOH      O 4194   0.864   3.494   1.674
 1330HOH     H1 4195   0.782   3.531   1.707
 1330HOH     H2 4196   0.876   3.413   1.723
 1331HOH      O 4197   3.631   3.974   1.465
 1331HOH     H1 4198   3.644   3.890   1.510
 1331HOH     H2 4199   3.570   3.955   1.394
 1332HOH      O 4200   3.304   2.072   2.835
 1332HOH     H1 4201   3.358   2.034   2.766
 1332HOH     H2 4202   3.281   1.997   2.890
 1333HOH      O 4203   1.407   0.599   0.309
 1333HOH     H1 4204   1.464   0.582   0.234
 1333HOH     H2 4205   1.330   0.642   0.272
 1334HOH      O 4206   3.339   3.491   2.113
 1334HOH     H1 4207   3.267   3.458   2.059
 1334HOH     H2 4208   3.306   3.573   2.149
 1335HOH      O 4209   1.371   2.813   3.573
 1335HOH     H1 4210   1.357   2.901   3.609
 1335HOH     H2 4211   1.284   2.773   3.576
 1336HOH      O 4212   3.864   2.572   1.130
 1336HOH     H1 4213   3.874   2.522   1.049
 1336HOH     H2 4214   3.797   2.638   1.111
 1337HOH      O 4215   0.540   2.726   2.878
 1337HOH     H1 4216   0.521   2.703   2.788
 1337HOH     H2 4217   0.493   2.808   2.893
 1338HOH      O 4218   1.282   3.493   3.451
 1338HOH     H1 4219   1.251   3.505   3.541
 1338HOH     H2 4220   1.317   3.404   3.450
 1339HOH      O 4221   1.928   1.173   2.484
 1339HOH     H1 4222   1.897   1.234   2.417
 1339HOH     H2 4223   1.900   1.087   2.453
 1340HOH      O 4224   0.275   0.812   2.435
 1340HOH     H1 4225   0.289   0.906   2.423
 1340HOH     H2 4226   0.222   0.786   2.360
 1341HOH      O 4227   0.433   2.350   3.939
 1341HOH     H1 4228   0.526   2.372   3.940
 1341HOH     H2 4229   0.414   2.319   4.027
 1342HOH      O 4230   3.125   2.673   0.977
 1342HOH     H1 4231   3.031   2.676   0.964
 1342HOH     H2 4232   3.151   2.586   0.948
 1343HOH      O 4233   3.310   3.649   3.208
 1343HOH     H1 4234   3.268   3.699   3.139
 1343HOH     H2 4235   3.237   3.610   3.257
 1344HOH      O 4236   2.985   2.049   2.154
 1344HOH     H1 4237   2.982   2.081   2.245
 1344HOH     H2 4238   3.001   1.955   2.163
 1345HOH      O 4239   0.242   3.082   0.806
 1345HOH     H1 4240   0.206   3.171   0.801
 1345HOH     H2 4241   0.168   3.028   0.832
 1346HOH      O 4242   2.476   1.156   1.709
 1346HOH     H1 4243   2.415   1.084   1.692
 1346HOH     H2 4244   2.557   1.130   1.664
 1347HOH      O 4245   1.146   2.715   2.186
 1347HOH     H1 4246   1.136   2.810   2.190
 1347HOH     H2 4247   1.059   2.681   2.206
 1348HOH      O 4248   3.778   1.327   2.689
 1348HOH     H1 4249   3.812   1.381   2.617
 1348HOH     H2 4250   3.851   1.321   2.750
 1349HOH      O 4251   4.055   1.160   0.725
 1349HOH     H1 4252   4.000   1.088   0.756
 1349HOH     H2 4253   3.993   1.231   0.708
 1350HOH      O 4254   1.688   3.307   0.722
 1350HOH     H1 4255   1.707   3.354   0.641
 1350HOH     H2 4256   1.715   3.217   0.705
 1351HOH      O 4257   2.145   1.980   0.882
 1351HOH     H1 4258   2.125   1.943   0.967
 1351HOH     H2 4259   2.059   1.999   0.843
 1352HOH      O 4260   3.376   2.017   3.273
 1352HOH     H1 4261   3.375   1.922   3.261
 1352HOH     H2 4262   3.347   2.030   3.363
 1353HOH      O 4263   2.428   2.029   3.057
 1353HOH     H1 4264   2.361   1.965   3.032
 1353HOH     H2 4265   2.413   2.043   3.151
 1354HOH      O 4266   1.750   2.618   1.734
 1354HOH     H1 4267   1.674   2.674   1.748
 1354HOH     H2 4268   1.818   2.657   1.788
 1355HOH      O 4269   0.893   0.055   2.901
 1355HOH     H1 4270   0.932   0.138   2.870
 1355HOH     H2 4271   0.956   0.022   2.964
 1356HOH      O 4272   1.168   1.628   3.793
 1356HOH     H1 4273   1.130   1.647   3.707
 1356HOH     H2 4274   1.106   1.666   3.855
 1357HOH      O 4275   2.610   3.051   0.245
 1357HOH     H1 4276   2.651   3.136   0.263
 1357HOH     H2 4277   2.519   3.063   0.271
 1358HOH      O 4278   2.741   0.601   1.768
 1358HOH     H1 4279   2.736   0.507   1.783
 1358HOH     H2 4280   2.772   0.609   1.677
 1359HOH      O 4281   2.825   0.343   0.244
 1359HOH     H1 4282   2.854   0.430   0.274
 1359HOH     H2 4283   2.849   0.284   0.316
 1360HOH      O 4284   0.096   1.729   3.645
 1360HOH     H1 4285   0.180   1.737   3.690
 1360HOH     H2 4286   0.119   1.717   3.553
 1361HOH      O 4287   1.071   2.075   0.519
 1361HOH     H1 4288   1.038   1.987   0.534
 1361HOH     H2 4289   1.161   2.074   0.553
 1362HOH      O 4290   1.445   3.044   3.911
 1362HOH     H1 4291   1.522   2.988   3.920
 1362HOH     H2 4292   1.464   3.119   3.968
 1363HOH      O 4293   4.027   2.147   2.855
 1363HOH     H1 4294   4.028   2.230   2.903
 1363HOH     H2 4295   4.049   2.081   2.920
 1364HOH      O 4296   3.884   2.860   1.317
 1364HOH     H1 4297   3.806   2.815   1.349
 1364HOH     H2 4298   3.853   2.911   1.242
 1365HOH      O 4299   3.230   4.024   3.298
 1365HOH     H1 4300   3.252   4.108   3.338
 1365HOH     H2 4301   3.271   3.958   3.354
 1366HOH      O 4302   3.503   3.344   2.270
 1366HOH     H1 4303   3.469   3.420   2.223
 1366HOH     H2 4304   3.431   3.317   2.327
 1367HOH      O 4305   0.999   1.752   2.273
 1367HOH     H1 4306   0.996   1.656   2.270
 1367HOH     H2 4307   0.908   1.779   2.263
 1368HOH      O 4308   3.788   0.993   2.712
 1368HOH     H1 4309   3.879   1.008   2.686
 1368HOH     H2 4310   3.736   1.038   2.645
 1369HOH      O 4311   1.541   1.415   2.983
 1369HOH     H1 4312   1.624   1.450   2.952
 1369HOH     H2 4313   1.560   1.384   3.072
 1370HOH      O 4314   0.772   2.926   0.597
 1370HOH     H1 4315   0.699   2.876   0.561
 1370HOH     H2 4316   0.838   2.860   0.619
 1371HOH      O 4317   3.993   2.867   0.820
 1371HOH     H1 4318   4.063   2.803   0.808
 1371HOH     H2 4319   3.924   2.839   0.759
 1372HOH      O 4320   3.522   0.301   1.340
 1372HOH     H1 4321   3.464   0.227   1.355
 1372HOH     H2 4322   3.472   0.359   1.283
 1373HOH      O 4323   3.351   2.852   1.444
 1373HOH     H1 4324   3.293   2.829   1.517
 1373HOH     H2 4325   3.338   2.780   1.381
 1374HOH      O 4326   2.740   3.255   1.268
 1374HOH     H1 4327   2.757   3.349   1.269
 1374HOH     H2 4328   2.697   3.237   1.351
 1375HOH      O 4329   0.287   1.095   2.221
 1375HOH     H1 4330   0.216   1.037   2.192
 1375HOH     H2 4331   0.259   1.183   2.194
 1376HOH      O 4332   1.737   3.909   3.402
 1376HOH     H1 4333   1.652   3.916   3.357
 1376HOH     H2 4334   1.732   3.826   3.449
 1377HOH      O 4335   1.105   3.581   3.633
 1377HOH     H1 4336   1.040   3.546   3.571
 1377HOH     H2 4337   1.054   3.600   3.712
 1378HOH      O 4338   3.794   0.751   1.014
 1378HOH     H1 4339   3.881   0.788   1.002
 1378HOH     H2 4340   3.809   0.672   1.067
 1379HOH      O 4341   2.880   1.493   1.100
 1379HOH     H1 4342   2.806   1.504   1.041
 1379HOH     H2 4343   2.842   1.495   1.187
 1380HOH      O 4344   2.375   1.767   2.661
 1380HOH     H1 4345   2.380   1.837   2.726
 1380HOH     H2 4346   2.402   1.809   2.579
 1381HOH      O 4347   2.328   2.179   3.812
 1381HOH     H1 4348   2.259   2.112   3.817
 1381HOH     H2 4349   2.354   2.194   3.903
 1382HOH      O 4350   3.942   0.398   0.939
 1382HOH     H1 4351   3.953   0.321   0.883
 1382HOH     H2 4352   3.893   0.366   1.014
 1383HOH      O 4353   0.981   0.698   3.726
 1383HOH     H1 4354   0.914   0.725   3.788
 1383HOH     H2 4355   0.936   0.642   3.664
 1384HOH      O 4356   0.417   3.454   1.726
 1384HOH     H1 4357   0.359   3.489   1.659
 1384HOH     H2 4358   0.411   3.359   1.715
 1385HOH      O 4359   0.617   3.151   0.602
 1385HOH     H1 4360   0.626   3.056   0.600
 1385HOH     H2 4361   0.540   3.169   0.548
 1386HOH      O 4362   1.713   2.171   2.049
 1386HOH     H1 4363   1.667   2.246   2.010
 1386HOH     H2 4364   1.654   2.097   2.035
 1387HOH      O 4365   0.895   2.657   2.315
 1387HOH     H1 4366   0.824   2.604   2.280
 1387HOH     H2 4367   0.883   2.655   2.410
 1388HOH      O 4368   3.413   0.458   2.763
 1388HOH     H1 4369   3.384   0.396   2.830
 1388HOH     H2 4370   3.453   0.404   2.696
 1389HOH      O 4371   3.763   2.652   3.445
 1389HOH     H1 4372   3.849   2.616   3.423
 1389HOH     H2 4373   3.721   2.585   3.498
 1390HOH      O 4374   2.637   2.940   3.619
 1390HOH     H1 4375   2.575   2.888   3.568
 1390HOH     H2 4376   2.684   2.993   3.554
 1391HOH      O 4377   2.160   1.914   3.260
 1391HOH     H1 4378   2.068   1.919   3.286
 1391HOH     H2 4379   2.206   1.969   3.324
 1392HOH      O 4380   3.379   4.006   0.623
 1392HOH     H1 4381   3.368   4.006   0.528
 1392HOH     H2 4382   3.473   4.014   0.637
 1393HOH      O 4383   2.494   3.450   3.222
 1393HOH     H1 4384   2.457   3.520   3.276
 1393HOH     H2 4385   2.525   3.495   3.143
 1394HOH      O 4386   0.206   3.057   2.463
 1394HOH     H1 4387   0.240   3.015   2.542
 1394HOH     H2 4388   0.191   3.148   2.489
 1395HOH      O 4389   3.416   0.434   1.908
 1395HOH     H1 4390   3.395   0.527   1.919
 1395HOH     H2 4391   3.458   0.429   1.822
 1396HOH      O 4392   1.570   1.782   3.982
 1396HOH     H1 4393   1.489   1.732   3.990
 1396HOH     H2 4394   1.615   1.769   4.066
 1397HOH      O 4395   1.279   4.008   0.872
 1397HOH     H1 4396   1.267   3.938   0.936
 1397HOH     H2 4397   1.222   4.078   0.902
 1398HOH      O 4398   1.834   4.018   3.693
 1398HOH     H1 4399   1.823   3.927   3.720
 1398HOH     H2 4400   1.922   4.041   3.722
 1399HOH      O 4401   3.677   2.931   3.839
 1399HOH     H1 4402   3.633   2.849   3.860
 1399HOH     H2 4403   3.682   2.932   3.743
 1400HOH      O 4404   2.179   2.170   1.327
 1400HOH     H1 4405   2.153   2.109   1.259
 1400HOH     H2 4406   2.220   2.243   1.280
 1401HOH      O 4407   3.201   1.301   2.139
 1401HOH     H1 4408   3.146   1.264   2.209
 1401HOH     H2 4409   3.141   1.355   2.087
 1402HOH      O 4410   1.506   0.592   2.780
 1402HOH     H1 4411   1.529   0.591   2.873
 1402HOH     H2 4412   1.543   0.510   2.746
 1403HOH      O 4413   3.131   3.209   1.086
 1403HOH     H1 4414   3.103   3.203   1.177
 1403HOH     H2 4415   3.096   3.130   1.045
 1404HOH      O 4416   3.891   2.968   2.383
 1404HOH     H1 4417   3.845   2.891   2.350
 1404HOH     H2 4418   3.867   3.038   2.323
 1405HOH      O 4419   1.424   1.955   1.305
 1405HOH     H1 4420   1.473   1.981   1.227
 1405HOH     H2 4421   1.458   2.011   1.375
 1406HOH      O 4422   3.755   3.923   3.197
 1406HOH     H1 4423   3.737   3.832   3.173
 1406HOH     H2 4424   3.734   3.973   3.117
 1407HOH      O 4425   2.383   2.075   0.293
 1407HOH     H1 4426   2.418   1.992   0.326
 1407HOH     H2 4427   2.460   2.132   0.287
 1408HOH      O 4428   2.156   0.337   2.445
 1408HOH     H1 4429   2.178   0.429   2.464
 1408HOH     H2 4430   2.163   0.329   2.350
 1409HOH      O 4431   2.256   3.110   0.963
 1409HOH     H1 4432   2.228   3.038   0.907
 1409HOH     H2 4433   2.341   3.137   0.927
 1410HOH      O 4434   3.263   3.716   2.691
 1410HOH     H1 4435   3.296   3.774   2.760
 1410HOH     H2 4436   3.249   3.632   2.735
 1411HOH      O 4437   1.649   1.482   0.184
 1411HOH     H1 4438   1.601   1.565   0.195
 1411HOH     H2 4439   1.624   1.430   0.260
 1412HOH      O 4440   3.982   3.055   2.658
 1412HOH     H1 4441   3.968   3.053   2.564
 1412HOH     H2 4442   4.055   2.995   2.673
 1413HOH      O 4443   1.569   1.687   2.853
 1413HOH     H1 4444   1.476   1.688   2.829
 1413HOH     H2 4445   1.614   1.667   2.771
 1414HOH      O 4446   0.279   1.379   2.756
 1414HOH     H1 4447   0.364   1.336   2.752
 1414HOH     H2 4448   0.239   1.363   2.671
 1415HOH      O 4449   1.280   1.086   0.763
 1415HOH     H1 4450   1.358   1.128   0.725
 1415HOH     H2 4451   1.250   1.026   0.695
 1416HOH      O 4452   1.598   0.726   2.000
 1416HOH     H1 4453   1.634   0.643   2.032
 1416HOH     H2 4454   1.567   0.770   2.079
 1417HOH      O 4455   3.971   2.032   1.164
 1417HOH     H1 4456   3.893   1.981   1.184
 1417HOH     H2 4457   3.939   2.123   1.161
 1418HOH      O 4458   1.175   2.117   3.389
 1418HOH     H1 4459   1.215   2.204   3.388
 1418HOH     H2 4460   1.088   2.130   3.350
 1419HOH      O 4461   2.601   0.240   3.389
 1419HOH     H1 4462   2.510   0.259   3.408
 1419HOH     H2 4463   2.616   0.277   3.302
 1420HOH      O 4464   2.266   2.237   0.832
 1420HOH     H1 4465   2.257   2.142   0.835
 1420HOH     H2 4466   2.324   2.253   0.757
 1421HOH      O 4467   3.966   3.720   1.082
 1421HOH     H1 4468   3.946   3.634   1.119
 1421HOH     H2 4469   3.944   3.712   0.989
 1422HOH      O 4470   2.693   2.774   1.119
 1422HOH     H1 4471   2.635   2.816   1.056
 1422HOH     H2 4472   2.748   2.716   1.066
 1423HOH      O 4473   1.463   0.543   0.047
 1423HOH     H1 4474   1.464   0.484  -0.029
 1423HOH     H2 4475   1.454   0.630   0.009
 1424HOH      O 4476   2.011   1.932   3.999
 1424HOH     H1 4477   2.092   1.966   4.037
 1424HOH     H2 4478   2.010   1.839   4.024
 1425HOH      O 4479   0.826   0.508   2.418
 1425HOH     H1 4480   0.888   0.544   2.354
 1425HOH     H2 4481   0.796   0.426   2.380
 1426HOH      O 4482   1.990   1.820   3.535
 1426HOH     H1 4483   1.922   1.858   3.478
 1426HOH     H2 4484   1.967   1.727   3.540
 1427HOH      O 4485   2.929   2.486   0.184
 1427HOH     H1 4486   2.858   2.542   0.151
 1427HOH     H2 4487   3.005   2.510   0.130
 1428HOH      O 4488   0.253   2.608   1.856
 1428HOH     H1 4489   0.211   2.581   1.775
 1428HOH     H2 4490   0.182   2.610   1.921
 1429HOH      O 4491   0.206   0.738   3.928
 1429HOH     H1 4492   0.269   0.677   3.966
 1429HOH     H2 4493   0.145   0.756   3.999
 1430HOH      O 4494   0.451   2.640   2.621
 1430HOH     H1 4495   0.418   2.715   2.571
 1430HOH     H2 4496   0.527   2.610   2.572
 1431HOH      O 4497   3.982   4.040   3.364
 1431HOH     H1 4498   4.045   3.978   3.401
 1431HOH     H2 4499   3.925   3.987   3.309
 1432HOH      O 4500   1.151   0.744   1.026
 1432HOH     H1 4501   1.244   0.720   1.022
 1432HOH     H2 4502   1.148   0.816   1.089
 1433HOH      O 4503   2.722   0.691   0.357
 1433HOH     H1 4504   2.668   0.637   0.299
 1433HOH     H2 4505   2.793   0.633   0.384
 1434HOH      O 4506   0.980   2.054   3.000
 1434HOH     H1 4507   1.014   1.979   2.952
 1434HOH     H2 4508   1.045   2.123   2.986
 1435HOH      O 4509   1.679   3.675   1.440
 1435HOH     H1 4510   1.601   3.729   1.456
 1435HOH     H2 4511   1.736   3.693   1.514
 1436HOH      O 4512   0.558   3.749   3.797
 1436HOH     H1 4513   0.474   3.794   3.803
 1436HOH     H2 4514   0.582   3.732   3.888
 1437HOH      O 4515   0.552   1.115   1.425
 1437HOH     H1 4516   0.516   1.053   1.489
 1437HOH     H2 4517   0.498   1.194   1.435
 1438HOH      O 4518   1.607   2.988   2.347
 1438HOH     H1 4519   1.565   3.033   2.421
 1438HOH     H2 4520   1.656   3.057   2.302
 1439HOH      O 4521   3.189   0.325   0.484
 1439HOH     H1 4522   3.099   0.294   0.489
 1439HOH     H2 4523   3.194   0.395   0.550
 1440HOH      O 4524   3.677   0.230   2.698
 1440HOH     H1 4525   3.602   0.200   2.647
 1440HOH     H2 4526   3.745   0.165   2.680
 1441HOH      O 4527   2.104   3.836   3.988
 1441HOH     H1 4528   2.138   3.917   3.951
 1441HOH     H2 4529   2.182   3.786   4.013
 1442HOH      O 4530   0.983   2.781   0.651
 1442HOH     H1 4531   1.056   2.839   0.631
 1442HOH     H2 4532   1.021   2.711   0.705
 1443HOH      O 4533   3.603   1.087   0.425
 1443HOH     H1 4534   3.693   1.056   0.434
 1443HOH     H2 4535   3.564   1.030   0.359
 1444HOH      O 4536   0.474   3.225   2.458
 1444HOH     H1 4537   0.462   3.234   2.553
 1444HOH     H2 4538   0.447   3.309   2.423
 1445HOH      O 4539   1.698   0.198   1.647
 1445HOH     H1 4540   1.761   0.269   1.658
 1445HOH     H2 4541   1.671   0.204   1.555
 1446HOH      O 4542   2.488   2.000   3.352
 1446HOH     H1 4543   2.530   1.955   3.425
 1446HOH     H2 4544   2.419   2.052   3.393
 1447HOH      O 4545   3.609   1.619   3.865
 1447HOH     H1 4546   3.516   1.621   3.886
 1447HOH     H2 4547   3.621   1.691   3.802
 1448HOH      O 4548   2.688   3.729   3.514
 1448HOH     H1 4549   2.624   3.799   3.499
 1448HOH     H2 4550   2.650   3.676   3.584
 1449HOH      O 4551   2.054   0.281   1.897
 1449HOH     H1 4552   1.974   0.332   1.909
 1449HOH     H2 4553   2.125   0.343   1.916
 1450HOH      O 4554   2.993   2.384   1.077
 1450HOH     H1 4555   3.027   2.379   0.988
 1450HOH     H2 4556   2.926   2.452   1.073
 1451HOH      O 4557   2.259   1.463   2.152
 1451HOH     H1 4558   2.341   1.487   2.109
 1451HOH     H2 4559   2.278   1.380   2.197
 1452HOH      O 4560   3.539   1.673   2.180
 1452HOH     H1 4561   3.542   1.758   2.135
 1452HOH     H2 4562   3.604   1.681   2.250
 1453HOH      O 4563   3.697   0.508   2.412
 1453HOH     H1 4564   3.791   0.489   2.411
 1453HOH     H2 4565   3.668   0.492   2.322
 1454HOH      O 4566   3.266   1.474   1.587
 1454HOH     H1 4567   3.270   1.384   1.620
 1454HOH     H2 4568   3.179   1.505   1.612
 1455HOH      O 4569   2.096   1.574   2.341
 1455HOH     H1 4570   2.133   1.487   2.332
 1455HOH     H2 4571   2.120   1.620   2.261
 1456HOH      O 4572   0.188   2.883   2.925
 1456HOH     H1 4573   0.176   2.796   2.964
 1456HOH     H2 4574   0.100   2.917   2.915
 1457HOH      O 4575   0.330   3.692   3.270
 1457HOH     H1 4576   0.419   3.677   3.239
 1457HOH     H2 4577   0.289   3.606   3.269
 1458HOH      O 4578   3.151   1.460   1.249
 1458HOH     H1 4579   3.148   1.377   1.296
 1458HOH     H2 4580   3.061   1.473   1.219
 1459HOH      O 4581   0.443   2.500   2.368
 1459HOH     H1 4582   0.421   2.421   2.320
 1459HOH     H2 4583   0.359   2.534   2.399
 1460HOH      O 4584   0.666   3.503   2.821
 1460HOH     H1 4585   0.627   3.526   2.906
 1460HOH     H2 4586   0.754   3.539   2.825
 1461HOH      O 4587   0.170   1.188   3.642
 1461HOH     H1 4588   0.140   1.124   3.707
 1461HOH     H2 4589   0.122   1.268   3.664
 1462HOH      O 4590   0.563   3.757   0.062
 1462HOH     H1 4591   0.485   3.766   0.007
 1462HOH     H2 4592   0.529   3.741   0.150
 1463HOH      O 4593   3.746   1.292   0.305
 1463HOH     H1 4594   3.693   1.303   0.226
 1463HOH     H2 4595   3.694   1.236   0.362
 1464HOH      O 4596   2.571   1.998   1.370
 1464HOH     H1 4597   2.629   1.971   1.441
 1464HOH     H2 4598   2.524   2.074   1.405
 1465HOH      O 4599   1.460   1.404   0.902
 1465HOH     H1 4600   1.433   1.349   0.976
 1465HOH     H2 4601   1.520   1.349   0.851
 1466HOH      O 4602   3.208   3.755   2.968
 1466HOH     H1 4603   3.140   3.762   2.901
 1466HOH     H2 4604   3.203   3.838   3.016
 1467HOH      O 4605   1.792   2.894   0.278
 1467HOH     H1 4606   1.812   2.929   0.191
 1467HOH     H2 4607   1.874   2.852   0.306
 1468HOH      O 4608   4.027   0.126   2.952
 1468HOH     H1 4609   4.033   0.172   3.037
 1468HOH     H2 4610   4.035   0.196   2.887
 1469HOH      O 4611   0.472   1.610   2.502
 1469HOH     H1 4612   0.553   1.613   2.553
 1469HOH     H2 4613   0.437   1.522   2.516
 1470HOH      O 4614   0.156   1.093   1.113
 1470HOH     H1 4615   0.185   1.041   1.038
 1470HOH     H2 4616   0.078   1.138   1.081
 1471HOH      O 4617   1.071   0.540   0.100
 1471HOH     H1 4618   1.113   0.456   0.117
 1471HOH     H2 4619   1.088   0.591   0.179
 1472HOH      O 4620   2.024   2.974   3.919
 1472HOH     H1 4621   1.979   2.957   3.836
 1472HOH     H2 4622   2.111   3.004   3.894
 1473HOH      O 4623   0.777   1.420   3.222
 1473HOH     H1 4624   0.868   1.421   3.193
 1473HOH     H2 4625   0.726   1.403   3.143
 1474HOH      O 4626   2.310   3.650   0.798
 1474HOH     H1 4627   2.296   3.605   0.881
 1474HOH     H2 4628   2.376   3.717   0.817
 1475HOH      O 4629   3.383   1.235   1.113
 1475HOH     H1 4630   3.334   1.317   1.113
 1475HOH     H2 4631   3.324   1.171   1.074
 1476HOH      O 4632   2.835   2.865   0.848
 1476HOH     H1 4633   2.840   2.903   0.761
 1476HOH     H2 4634   2.775   2.922   0.896
 1477HOH      O 4635   0.863   2.387   2.394
 1477HOH     H1 4636   0.784   2.387   2.448
 1477HOH     H2 4637   0.845   2.324   2.324
 1478HOH      O 4638   1.056   2.251   2.506
 1478HOH     H1 4639   1.041   2.223   2.597
 1478HOH     H2 4640   0.982   2.308   2.486
 1479HOH      O 4641   0.695   2.140   2.429
 1479HOH     H1 4642   0.738   2.162   2.346
 1479HOH     H2 4643   0.655   2.054   2.414
 1480HOH      O 4644   2.481   1.592   1.587
 1480HOH     H1 4645   2.447   1.516   1.540
 1480HOH     H2 4646   2.558   1.618   1.536
 1481HOH      O 4647   1.316   3.319   1.075
 1481HOH     H1 4648   1.238   3.312   1.130
 1481HOH     H2 4649   1.358   3.400   1.103
 1482HOH      O 4650   3.244   3.098   2.252
 1482HOH     H1 4651   3.287   3.032   2.197
 1482HOH     H2 4652   3.165   3.121   2.204
 1483HOH      O 4653   0.075   3.824   3.456
 1483HOH     H1 4654   0.140   3.757   3.436
 1483HOH     H2 4655  -0.004   3.775   3.478
 1484HOH      O 4656   2.535   2.027   2.767
 1484HOH     H1 4657   2.558   2.037   2.859
 1484HOH     H2 4658   2.589   2.092   2.722
 1485HOH      O 4659   2.201   0.062   1.952
 1485HOH     H1 4660   2.202   0.060   2.048
 1485HOH     H2 4661   2.162   0.147   1.931
 1486HOH      O 4662   0.583   2.092   2.099
 1486HOH     H1 4663   0.531   2.012   2.089
 1486HOH     H2 4664   0.591   2.127   2.010
 1487HOH      O 4665   1.486   1.678   3.104
 1487HOH     H1 4666   1.440   1.595   3.087
 1487HOH     H2 4667   1.552   1.683   3.035
 1488HOH      O 4668   3.961   3.381   2.337
 1488HOH     H1 4669   3.984   3.440   2.266
 1488HOH     H2 4670   4.039   3.380   2.394
 1489HOH      O 4671   2.380   0.761   0.587
 1489HOH     H1 4672   2.460   0.727   0.547
 1489HOH     H2 4673   2.337   0.811   0.518
 1490HOH      O 4674   3.339   3.452   3.765
 1490HOH     H1 4675   3.251   3.450   3.803
 1490HOH     H2 4676   3.342   3.375   3.709
 1491HOH      O 4677   2.986   0.697   1.613
 1491HOH     H1 4678   2.970   0.729   1.702
 1491HOH     H2 4679   3.057   0.634   1.623
 1492HOH      O 4680   3.717   2.323   1.926
 1492HOH     H1 4681   3.627   2.336   1.955
 1492HOH     H2 4682   3.745   2.409   1.895
 1493HOH      O 4683   3.936   2.497   3.045
 1493HOH     H1 4684   3.843   2.512   3.062
 1493HOH     H2 4685   3.952   2.408   3.077
 1494HOH      O 4686   2.348   0.359   0.681
 1494HOH     H1 4687   2.423   0.323   0.635
 1494HOH     H2 4688   2.310   0.285   0.728
 1495HOH      O 4689   0.637   0.908   1.907
 1495HOH     H1 4690   0.668   0.992   1.872
 1495HOH     H2 4691   0.598   0.930   1.991
 1496HOH      O 4692   3.957   3.073   1.504
 1496HOH     H1 4693   3.945   3.016   1.429
 1496HOH     H2 4694   3.939   3.016   1.580
 1497HOH      O 4695   2.706   1.529   0.852
 1497HOH     H1 4696   2.623   1.533   0.805
 1497HOH     H2 4697   2.733   1.437   0.846
 1498HOH      O 4698   2.697   0.780   1.403
 1498HOH     H1 4699   2.756   0.852   1.427
 1498HOH     H2 4700   2.754   0.703   1.399
 1499HOH      O 4701   2.019   0.738   1.396
 1499HOH     H1 4702   1.947   0.682   1.424
 1499HOH     H2 4703   1.976   0.815   1.358
 1500HOH      O 4704   3.732   0.691   3.871
 1500HOH     H1 4705   3.668   0.627   3.901
 1500HOH     H2 4706   3.753   0.664   3.782
 1501HOH      O 4707   0.325   3.487   0.067
 1501HOH     H1 4708   0.283   3.416   0.019
 1501HOH     H2 4709   0.413   3.454   0.088
 1502HOH      O 4710   3.308   3.280   3.527
 1502HOH     H1 4711   3.219   3.253   3.504
 1502HOH     H2 4712   3.346   3.309   3.444
 1503HOH      O 4713   0.779   1.763   0.378
 1503HOH     H1 4714   0.755   1.837   0.433
 1503HOH     H2 4715   0.872   1.748   0.397
 1504HOH      O 4716   0.845   2.622   0.458
 1504HOH     H1 4717   0.904   2.656   0.525
 1504HOH     H2 4718   0.849   2.687   0.388
 1505HOH      O 4719   2.599   1.688   3.760
 1505HOH     H1 4720   2.535   1.749   3.799
 1505HOH     H2 4721   2.663   1.674   3.830
 1506HOH      O 4722   3.189   2.628   2.026
 1506HOH     H1 4723   3.169   2.541   1.994
 1506HOH     H2 4724   3.274   2.650   1.988
 1507HOH      O 4725   1.423   2.215   3.769
 1507HOH     H1 4726   1.488   2.212   3.698
 1507HOH     H2 4727   1.471   2.184   3.846
 1508HOH      O 4728   2.206   2.922   0.769
 1508HOH     H1 4729   2.267   2.917   0.695
 1508HOH     H2 4730   2.134   2.865   0.743
 1509HOH      O 4731   0.566   3.548   3.397
 1509HOH     H1 4732   0.602   3.588   3.477
 1509HOH     H2 4733   0.512   3.477   3.429
 1510HOH      O 4734   2.637   2.351   2.524
 1510HOH     H1 4735   2.638   2.333   2.618
 1510HOH     H2 4736   2.652   2.445   2.517
 1511HOH      O 4737   2.039   1.675   0.035
 1511HOH     H1 4738   2.129   1.649   0.051
 1511HOH     H2 4739   1.988   1.623   0.097
 1512HOH      O 4740   1.291   3.393   2.147
 1512HOH     H1 4741   1.330   3.448   2.079
 1512HOH     H2 4742   1.266   3.312   2.101
 1513HOH      O 4743   2.965   3.031   2.983
 1513HOH     H1 4744   2.887   3.015   2.930
 1513HOH     H2 4745   2.934   3.029   3.073
 1514HOH      O 4746   4.004   2.245   3.124
 1514HOH     H1 4747   4.051   2.187   3.184
 1514HOH     H2 4748   3.912   2.226   3.141
 1515HOH      O 4749   0.443   2.957   2.975
 1515HOH     H1 4750   0.356   2.943   3.012
 1515HOH     H2 4751   0.487   3.014   3.039
 1516HOH      O 4752   0.974   1.506   2.869
 1516HOH     H1 4753   0.924   1.425   2.856
 1516HOH     H2 4754   1.000   1.504   2.961
 1517HOH      O 4755   3.264   1.260   1.762
 1517HOH     H1 4756   3.325   1.194   1.793
 1517HOH     H2 4757   3.195   1.211   1.718
 1518HOH      O 4758   2.402   3.274   1.515
 1518HOH     H1 4759   2.373   3.186   1.536
 1518HOH     H2 4760   2.352   3.330   1.575
 1519HOH      O 4761   2.059   3.911   0.311
 1519HOH     H1 4762   2.047   3.816   0.305
 1519HOH     H2 4763   2.047   3.942   0.221
 1520HOH      O 4764   3.626   3.364   2.848
 1520HOH     H1 4765   3.604   3.402   2.763
 1520HOH     H2 4766   3.548   3.377   2.901
 1521HOH      O 4767   1.555   2.351   3.135
 1521HOH     H1 4768   1.546   2.348   3.230
 1521HOH     H2 4769   1.525   2.438   3.111
 1522HOH      O 4770   1.756   3.669   3.767
 1522HOH     H1 4771   1.756   3.668   3.863
 1522HOH     H2 4772   1.810   3.594   3.742
 1523HOH      O 4773   1.472   2.027   2.642
 1523HOH     H1 4774   1.424   2.103   2.610
 1523HOH     H2 4775   1.420   1.952   2.613
 1524HOH      O 4776   3.085   1.061   1.694
 1524HOH     H1 4777   3.014   1.100   1.744
 1524HOH     H2 4778   3.141   1.018   1.759
 1525HOH      O 4779   3.107   2.254   3.633
 1525HOH     H1 4780   3.043   2.294   3.574
 1525HOH     H2 4781   3.062   2.246   3.717
 1526HOH      O 4782   1.022   1.131   3.090
 1526HOH     H1 4783   1.092   1.084   3.045
 1526HOH     H2 4784   0.943   1.081   3.069
 1527HOH      O 4785   2.668   1.382   3.451
 1527HOH     H1 4786   2.709   1.343   3.374
 1527HOH     H2 4787   2.648   1.472   3.425
 1528HOH      O 4788   3.316   3.098   1.667
 1528HOH     H1 4789   3.393   3.112   1.611
 1528HOH     H2 4790   3.282   3.013   1.640
 1529HOH      O 4791   0.101   0.711   3.117
 1529HOH     H1 4792   0.018   0.678   3.084
 1529HOH     H2 4793   0.086   0.804   3.132
 1530HOH      O 4794   2.693   3.548   2.454
 1530HOH     H1 4795   2.639   3.597   2.392
 1530HOH     H2 4796   2.703   3.606   2.529
 1531HOH      O 4797   3.949   3.417   3.725
 1531HOH     H1 4798   4.022   3.397   3.667
 1531HOH     H2 4799   3.872   3.386   3.677
 1532HOH      O 4800   3.717   2.759   0.298
 1532HOH     H1 4801   3.627   2.776   0.328
 1532HOH     H2 4802   3.737   2.832   0.239
 1533HOH      O 4803   1.673   0.960   1.293
 1533HOH     H1 4804   1.658   0.994   1.205
 1533HOH     H2 4805   1.768   0.965   1.305
 1534HOH      O 4806   3.773   3.791   1.789
 1534HOH     H1 4807   3.856   3.760   1.754
 1534HOH     H2 4808   3.774   3.765   1.881
 1535HOH      O 4809   3.485   1.580   1.776
 1535HOH     H1 4810   3.392   1.567   1.755
 1535HOH     H2 4811   3.530   1.572   1.692
 1536HOH      O 4812   0.852   2.655   1.479
 1536HOH     H1 4813   0.828   2.744   1.507
 1536HOH     H2 4814   0.794   2.637   1.405
 1537HOH      O 4815   0.417   0.102   2.682
 1537HOH     H1 4816   0.440   0.111   2.775
 1537HOH     H2 4817   0.462   0.174   2.639
 1538HOH      O 4818   1.791   2.384   0.916
 1538HOH     H1 4819   1.732   2.314   0.887
 1538HOH     H2 4820   1.793   2.375   1.011
 1539HOH      O 4821   0.624   2.173   3.585
 1539HOH     H1 4822   0.618   2.140   3.495
 1539HOH     H2 4823   0.609   2.096   3.640
 1540HOH      O 4824   3.704   2.811   2.609
 1540HOH     H1 4825   3.767   2.808   2.682
 1540HOH     H2 4826   3.714   2.899   2.573
 1541HOH      O 4827   0.102   1.962   0.795
 1541HOH     H1 4828   0.016   2.003   0.794
 1541HOH     H2 4829   0.160   2.027   0.835
 1542HOH      O 4830   1.413   1.571   2.025
 1542HOH     H1 4831   1.459   1.507   2.079
 1542HOH     H2 4832   1.402   1.647   2.081
 1543HOH      O 4833   0.496   2.575   1.705
 1543HOH     H1 4834   0.409   2.600   1.736
 1543HOH     H2 4835   0.481   2.495   1.654
 1544HOH      O 4836   0.220   3.167   3.334
 1544HOH     H1 4837   0.143   3.215   3.306
 1544HOH     H2 4838   0.192   3.076   3.337
 1545HOH      O 4839   1.117   2.497   0.312
 1545HOH     H1 4840   1.101   2.455   0.228
 1545HOH     H2 4841   1.031   2.529   0.339
 1546HOH      O 4842   1.893   2.730   1.477
 1546HOH     H1 4843   1.874   2.824   1.480
 1546HOH     H2 4844   1.843   2.693   1.550
 1547HOH      O 4845   0.219   2.453   3.496
 1547HOH     H1 4846   0.247   2.385   3.435
 1547HOH     H2 4847   0.289   2.457   3.562
 1548HOH      O 4848   0.889   1.437   0.357
 1548HOH     H1 4849   0.933   1.446   0.273
 1548HOH     H2 4850   0.921   1.510   0.410
 1549HOH      O 4851   0.827   0.707   2.874
 1549HOH     H1 4852   0.789   0.636   2.823
 1549HOH     H2 4853   0.909   0.671   2.908
 1550HOH      O 4854   3.156   2.881   1.631
 1550HOH     H1 4855   3.105   2.868   1.711
 1550HOH     H2 4856   3.091   2.905   1.564
 1551HOH      O 4857   3.098   0.427   1.428
 1551HOH     H1 4858   3.060   0.352   1.474
 1551HOH     H2 4859   3.148   0.473   1.496
 1552HOH      O 4860   0.149   1.548   1.591
 1552HOH     H1 4861   0.103   1.577   1.512
 1552HOH     H2 4862   0.146   1.452   1.587
 1553HOH      O 4863   1.208   3.472   1.719
 1553HOH     H1 4864   1.171   3.544   1.770
 1553HOH     H2 4865   1.303   3.485   1.724
 1554HOH      O 4866   0.426   3.611   0.759
 1554HOH     H1 4867   0.468   3.682   0.710
 1554HOH     H2 4868   0.437   3.534   0.703
 1555HOH      O 4869   1.135   0.846   3.037
 1555HOH     H1 4870   1.089   0.840   3.120
 1555HOH     H2 4871   1.131   0.758   3.000
 1556HOH      O 4872   0.464   0.142   0.732
 1556HOH     H1 4873   0.524   0.088   0.784
 1556HOH     H2 4874   0.382   0.141   0.782
 1557HOH      O 4875   2.604   2.909   1.964
 1557HOH     H1 4876   2.555   2.979   1.921
 1557HOH     H2 4877   2.538   2.863   2.017
 1558HOH      O 4878   0.167   1.634   0.508
 1558HOH     H1 4879   0.162   1.575   0.432
 1558HOH     H2 4880   0.259   1.658   0.513
 1559HOH      O 4881   0.196   0.782   3.572
 1559HOH     H1 4882   0.225   0.702   3.527
 1559HOH     H2 4883   0.108   0.761   3.604
 1560HOH      O 4884   0.141   1.579   2.076
 1560HOH     H1 4885   0.094   1.602   1.997
 1560HOH     H2 4886   0.162   1.663   2.118
 1561HOH      O 4887   3.953   1.962   1.612
 1561HOH     H1 4888   4.013   1.932   1.544
 1561HOH     H2 4889   4.010   1.994   1.682
 1562HOH      O 4890   1.121   2.977   2.176
 1562HOH     H1 4891   1.028   2.995   2.191
 1562HOH     H2 4892   1.151   3.048   2.119
 1563HOH      O 4893   2.477   1.322   3.206
 1563HOH     H1 4894   2.414   1.265   3.162
 1563HOH     H2 4895   2.557   1.271   3.211
 1564HOH      O 4896   2.456   0.890   1.436
 1564HOH     H1 4897   2.407   0.824   1.386
 1564HOH     H2 4898   2.547   0.875   1.411
 1565HOH      O 4899   0.961   2.805   1.150
 1565HOH     H1 4900   0.994   2.779   1.236
 1565HOH     H2 4901   0.915   2.888   1.167
 1566HOH      O 4902   0.365   1.826   0.962
 1566HOH     H1 4903   0.438   1.764   0.958
 1566HOH     H2 4904   0.321   1.805   1.045
 1567HOH      O 4905   1.801   1.551   2.979
 1567HOH     H1 4906   1.759   1.627   2.939
 1567HOH     H2 4907   1.850   1.510   2.908
 1568HOH      O 4908   3.118   1.532   3.267
 1568HOH     H1 4909   3.060   1.595   3.224
 1568HOH     H2 4910   3.139   1.469   3.199
 1569HOH      O 4911   2.135   3.383   0.947
 1569HOH     H1 4912   2.158   3.462   0.997
 1569HOH     H2 4913   2.193   3.315   0.981
 1570HOH      O 4914   2.070   0.655   3.634
 1570HOH     H1 4915   2.105   0.742   3.616
 1570HOH     H2 4916   2.023   0.664   3.717
 1571HOH      O 4917   1.032   2.247   3.904
 1571HOH     H1 4918   0.947   2.210   3.882
 1571HOH     H2 4919   1.072   2.267   3.820
 1572HOH      O 4920   1.667   2.066   2.370
 1572HOH     H1 4921   1.594   2.112   2.327
 1572HOH     H2 4922   1.637   1.976   2.379
 1573HOH      O 4923   2.533   3.611   0.520
 1573HOH     H1 4924   2.557   3.634   0.610
 1573HOH     H2 4925   2.448   3.653   0.507
 1574HOH      O 4926   1.195   2.591   3.781
 1574HOH     H1 4927   1.197   2.641   3.863
 1574HOH     H2 4928   1.103   2.564   3.773
 1575HOH      O 4929   3.483   2.798   2.273
 1575HOH     H1 4930   3.497   2.760   2.359
 1575HOH     H2 4931   3.506   2.891   2.283
 1576HOH      O 4932   1.452   3.565   2.014
 1576HOH     H1 4933   1.447   3.569   1.918
 1576HOH     H2 4934   1.538   3.599   2.035
 1577HOH      O 4935   1.431   1.777   1.576
 1577HOH     H1 4936   1.458   1.843   1.640
 1577HOH     H2 4937   1.378   1.825   1.512
 1578HOH      O 4938   2.676   0.633   3.380
 1578HOH     H1 4939   2.654   0.555   3.430
 1578HOH     H2 4940   2.596   0.653   3.331
 1579HOH      O 4941   1.048   3.264   3.424
 1579HOH     H1 4942   1.101   3.299   3.353
 1579HOH     H2 4943   0.970   3.320   3.425
 1580HOH      O 4944   3.524   3.046   1.489
 1580HOH     H1 4945   3.494   3.104   1.418
 1580HOH     H2 4946   3.478   2.964   1.474
 1581HOH      O 4947   0.195   0.652   1.517
 1581HOH     H1 4948   0.154   0.639   1.431
 1581HOH     H2 4949   0.137   0.714   1.562
 1582HOH      O 4950   3.055   3.286   3.739
 1582HOH     H1 4951   2.990   3.225   3.703
 1582HOH     H2 4952   3.007   3.368   3.749
 1583HOH      O 4953   1.843   0.498   1.331
 1583HOH     H1 4954   1.906   0.522   1.263
 1583HOH     H2 4955   1.886   0.426   1.378
 1584HOH      O 4956   3.737   0.437   0.082
 1584HOH     H1 4957   3.675   0.461   0.012
 1584HOH     H2 4958   3.800   0.379   0.039
 1585HOH      O 4959   1.886   0.498   1.970
 1585HOH     H1 4960   1.948   0.570   1.965
 1585HOH     H2 4961   1.862   0.494   2.063
 1586HOH      O 4962   3.735   3.933   0.005
 1586HOH     H1 4963   3.830   3.943   0.010
 1586HOH     H2 4964   3.702   3.985   0.079
 1587HOH      O 4965   2.668   1.065   2.383
 1587HOH     H1 4966   2.607   1.043   2.453
 1587HOH     H2 4967   2.735   0.997   2.387
 1588HOH      O 4968   2.728   2.459   1.361
 1588HOH     H1 4969   2.688   2.387   1.312
 1588HOH     H2 4970   2.760   2.419   1.441
 1589HOH      O 4971   3.847   3.728   2.442
 1589HOH     H1 4972   3.934   3.698   2.466
 1589HOH     H2 4973   3.861   3.779   2.362
 1590HOH      O 4974   1.411   3.503   2.368
 1590HOH     H1 4975   1.468   3.435   2.405
 1590HOH     H2 4976   1.376   3.464   2.288
 1591HOH      O 4977   2.907   1.428   2.064
 1591HOH     H1 4978   2.891   1.352   2.120
 1591HOH     H2 4979   2.888   1.503   2.119
 1592HOH      O 4980   3.424   0.382   1.630
 1592HOH     H1 4981   3.465   0.456   1.585
 1592HOH     H2 4982   3.420   0.313   1.563
 1593HOH      O 4983   1.805   3.679   0.362
 1593HOH     H1 4984   1.758   3.635   0.292
 1593HOH     H2 4985   1.795   3.772   0.343
 1594HOH      O 4986   2.109   0.930   0.901
 1594HOH     H1 4987   2.017   0.947   0.922
 1594HOH     H2 4988   2.150   1.016   0.899
 1595HOH      O 4989   1.679   1.508   2.347
 1595HOH     H1 4990   1.706   1.481   2.259
 1595HOH     H2 4991   1.598   1.459   2.363
 1596HOH      O 4992   2.130   0.427   0.295
 1596HOH     H1 4993   2.121   0.435   0.200
 1596HOH     H2 4994   2.090   0.507   0.329
 1597HOH      O 4995   2.028   0.533   0.059
 1597HOH     H1 4996   1.979   0.477  -0.002
 1597HOH     H2 4997   1.963   0.596   0.091
 1598HOH      O 4998   2.144   3.146   1.257
 1598HOH     H1 4999   2.209   3.082   1.228
 1598HOH     H2 5000   2.078   3.094   1.303
 1599HOH      O 5001   3.304   0.737   0.864
 1599HOH     H1 5002   3.214   0.755   0.892
 1599HOH     H2 5003   3.313   0.642   0.871
 1600HOH      O 5004   1.770   2.654   0.560
 1600HOH     H1 5005   1.761   2.735   0.510
 1600HOH     H2 5006   1.715   2.591   0.513
 1601HOH      O 5007   2.231   1.216   1.222
 1601HOH     H1 5008   2.251   1.194   1.313
 1601HOH     H2 5009   2.137   1.234   1.223
 1602HOH      O 5010   3.531   2.637   0.865
 1602HOH     H1 5011   3.564   2.606   0.781
 1602HOH     H2 5012   3.469   2.570   0.893
 1603HOH      O 5013   2.978   0.290   1.620
 1603HOH     H1 5014   2.966   0.199   1.647
 1603HOH     H2 5015   2.981   0.339   1.702
 1604HOH      O 5016   0.307   2.244   0.170
 1604HOH     H1 5017   0.236   2.209   0.115
 1604HOH     H2 5018   0.320   2.178   0.237
 1605HOH      O 5019   0.164   3.327   3.944
 1605HOH     H1 5020   0.098   3.390   3.915
 1605HOH     H2 5021   0.113   3.249   3.968
 1606HOH      O 5022   2.886   0.605   1.341
 1606HOH     H1 5023   2.950   0.546   1.381
 1606HOH     H2 5024   2.932   0.643   1.266
 1607HOH      O 5025   0.877   0.633   1.986
 1607HOH     H1 5026   0.920   0.651   1.903
 1607HOH     H2 5027   0.793   0.679   1.980
 1608HOH      O 5028   0.667   2.573   2.183
 1608HOH     H1 5029   0.677   2.486   2.146
 1608HOH     H2 5030   0.592   2.566   2.242
 1609HOH      O 5031   1.481   1.234   2.615
 1609HOH     H1 5032   1.393   1.236   2.652
 1609HOH     H2 5033   1.539   1.219   2.690
 1610HOH      O 5034   1.754   2.087   2.637
 1610HOH     H1 5035   1.806   2.007   2.644
 1610HOH     H2 5036   1.708   2.078   2.554
 1611HOH      O 5037   1.555   2.073   0.303
 1611HOH     H1 5038   1.627   2.066   0.240
 1611HOH     H2 5039   1.489   2.126   0.258
 1612HOH      O 5040   3.190   2.748   2.686
 1612HOH     H1 5041   3.236   2.800   2.753
 1612HOH     H2 5042   3.163   2.812   2.620
 1613HOH      O 5043   0.741   0.971   2.896
 1613HOH     H1 5044   0.668   0.944   2.841
 1613HOH     H2 5045   0.797   0.893   2.902
 1614HOH      O 5046   0.305   1.667   2.862
 1614HOH     H1 5047   0.297   1.630   2.950
 1614HOH     H2 5048   0.320   1.592   2.805
 1615HOH      O 5049   0.797   1.778   0.083
 1615HOH     H1 5050   0.742   1.855   0.076
 1615HOH     H2 5051   0.793   1.754   0.176
 1616HOH      O 5052   2.903   2.377   2.880
 1616HOH     H1 5053   2.960   2.420   2.816
 1616HOH     H2 5054   2.959   2.364   2.957
 1617HOH      O 5055   0.245   0.380   3.694
 1617HOH     H1 5056   0.266   0.428   3.614
 1617HOH     H2 5057   0.178   0.433   3.737
 1618HOH      O 5058   2.236   2.553   0.770
 1618HOH     H1 5059   2.254   2.459   0.765
 1618HOH     H2 5060   2.322   2.593   0.778
 1619HOH      O 5061   2.935   1.051   3.330
 1619HOH     H1 5062   2.980   1.077   3.411
 1619HOH     H2 5063   2.875   0.981   3.358
 1620HOH      O 5064   1.346   2.214   1.815
 1620HOH     H1 5065   1.268   2.252   1.775
 1620HOH     H2 5066   1.371   2.275   1.884
 1621HOH      O 5067   3.663   3.681   2.640
 1621HOH     H1 5068   3.703   3.679   2.727
 1621HOH     H2 5069   3.736   3.696   2.580
 1622HOH      O 5070   0.331   3.233   3.744
 1622HOH     H1 5071   0.307   3.140   3.739
 1622HOH     H2 5072   0.281   3.266   3.819
 1623HOH      O 5073   2.207   0.294   2.193
 1623HOH     H1 5074   2.272   0.330   2.132
 1623HOH     H2 5075   2.226   0.200   2.193
 1624HOH      O 5076   0.280   2.967   3.666
 1624HOH     H1 5077   0.367   2.934   3.689
 1624HOH     H2 5078   0.287   2.991   3.574
 1625HOH      O 5079   3.598   1.292   0.723
 1625HOH     H1 5080   3.611   1.228   0.794
 1625HOH     H2 5081   3.557   1.241   0.653
 1626HOH      O 5082   0.612   1.254   2.127
 1626HOH     H1 5083   0.546   1.320   2.108
 1626HOH     H2 5084   0.585   1.177   2.077
 1627HOH      O 5085   2.371   0.887   0.072
 1627HOH     H1 5086   2.448   0.944   0.063
 1627HOH     H2 5087   2.360   0.849  -0.015
 1628HOH      O 5088   3.296   0.478   1.233
 1628HOH     H1 5089   3.245   0.444   1.160
 1628HOH     H2 5090   3.233   0.484   1.305
 1629HOH      O 5091   0.891   3.934   0.261
 1629HOH     H1 5092   0.843   3.904   0.338
 1629HOH     H2 5093   0.893   4.029   0.268
 1630HOH      O 5094   1.343   0.497   2.484
 1630HOH     H1 5095   1.290   0.499   2.404
 1630HOH     H2 5096   1.412   0.562   2.469
 1631HOH      O 5097   2.509   1.609   3.107
 1631HOH     H1 5098   2.493   1.519   3.135
 1631HOH     H2 5099   2.453   1.620   3.030
 1632HOH      O 5100   3.473   3.754   2.418
 1632HOH     H1 5101   3.446   3.839   2.451
 1632HOH     H2 5102   3.554   3.734   2.467
 1633HOH      O 5103   2.596   1.267   2.885
 1633HOH     H1 5104   2.653   1.273   2.963
 1633HOH     H2 5105   2.617   1.346   2.835
 1634HOH      O 5106   1.069   2.443   0.051
 1634HOH     H1 5107   1.064   2.360   0.004
 1634HOH     H2 5108   0.982   2.482   0.039
 1635HOH      O 5109   2.998   0.965   3.625
 1635HOH     H1 5110   3.072   0.914   3.658
 1635HOH     H2 5111   2.930   0.900   3.609
 1636HOH      O 5112   3.981   2.203   2.336
 1636HOH     H1 5113   3.916   2.142   2.368
 1636HOH     H2 5114   4.013   2.249   2.414
 1637HOH      O 5115   3.065   1.028   0.424
 1637HOH     H1 5116   3.023   1.112   0.443
 1637HOH     H2 5117   3.003   0.983   0.367
 1638HOH      O 5118   3.213   4.016   2.748
 1638HOH     H1 5119   3.174   3.998   2.662
 1638HOH     H2 5120   3.149   3.980   2.810
 1639HOH      O 5121   0.571   1.594   2.175
 1639HOH     H1 5122   0.538   1.597   2.265
 1639HOH     H2 5123   0.523   1.523   2.135
 1640HOH      O 5124   1.182   3.078   3.053
 1640HOH     H1 5125   1.275   3.089   3.031
 1640HOH     H2 5126   1.140   3.055   2.970
 1641HOH      O 5127   3.237   2.599   3.766
 1641HOH     H1 5128   3.285   2.668   3.722
 1641HOH     H2 5129   3.280   2.518   3.738
 1642HOH      O 5130   2.057   2.831   2.622
 1642HOH     H1 5131   2.089   2.763   2.681
 1642HOH     H2 5132   1.965   2.809   2.607
 1643HOH      O 5133   0.062   1.812   2.801
 1643HOH     H1 5134   0.040   1.776   2.887
 1643HOH     H2 5135   0.134   1.757   2.769
 1644HOH      O 5136   2.676   2.672   1.826
 1644HOH     H1 5137   2.640   2.752   1.863
 1644HOH     H2 5138   2.743   2.702   1.764
 1645HOH      O 5139   1.535   3.223   0.155
 1645HOH     H1 5140   1.470   3.289   0.128
 1645HOH     H2 5141   1.502   3.191   0.239
 1646HOH      O 5142   2.673   1.156   3.211
 1646HOH     H1 5143   2.621   1.075   3.207
 1646HOH     H2 5144   2.750   1.132   3.262
 1647HOH      O 5145   2.960   2.875   1.199
 1647HOH     H1 5146   3.041   2.830   1.225
 1647HOH     H2 5147   2.907   2.807   1.159
 1648HOH      O 5148   0.321   3.952   1.319
 1648HOH     H1 5149   0.392   3.957   1.383
 1648HOH     H2 5150   0.252   3.903   1.363
 1649HOH      O 5151   1.995   1.532   3.535
 1649HOH     H1 5152   1.900   1.532   3.534
 1649HOH     H2 5153   2.018   1.523   3.627
 1650HOH      O 5154   0.132   3.408   0.660
 1650HOH     H1 5155   0.134   3.451   0.745
 1650HOH     H2 5156   0.224   3.396   0.637
 1651HOH      O 5157   2.509   2.331   1.171
 1651HOH     H1 5158   2.470   2.296   1.252
 1651HOH     H2 5159   2.446   2.395   1.140
 1652HOH      O 5160   3.367   3.031   1.926
 1652HOH     H1 5161   3.399   3.102   1.981
 1652HOH     H2 5162   3.356   3.071   1.839
 1653HOH      O 5163   3.754   3.290   3.148
 1653HOH     H1 5164   3.790   3.278   3.060
 1653HOH     H2 5165   3.812   3.354   3.190
 1654HOH      O 5166   0.822   0.297   2.232
 1654HOH     H1 5167   0.842   0.240   2.307
 1654HOH     H2 5168   0.906   0.310   2.188
 1655HOH      O 5169   1.133   3.588   1.127
 1655HOH     H1 5170   1.097   3.518   1.181
 1655HOH     H2 5171   1.112   3.668   1.174
 1656HOH      O 5172   0.838   3.668   0.040
 1656HOH     H1 5173   0.749   3.691   0.068
 1656HOH     H2 5174   0.859   3.590   0.091
 1657HOH      O 5175   0.884   2.157   3.413
 1657HOH     H1 5176   0.908   2.249   3.429
 1657HOH     H2 5177   0.848   2.157   3.325
 1658HOH      O 5178   3.154   0.067   0.735
 1658HOH     H1 5179   3.093   0.035   0.668
 1658HOH     H2 5180   3.235   0.020   0.718
 1659HOH      O 5181   1.507   2.636   3.038
 1659HOH     H1 5182   1.593   2.672   3.013
 1659HOH     H2 5183   1.472   2.700   3.099
 1660HOH      O 5184   3.663   4.002   3.434
 1660HOH     H1 5185   3.699   3.981   3.348
 1660HOH     H2 5186   3.574   3.965   3.432
 1661HOH      O 5187   0.010   0.805   0.921
 1661HOH     H1 5188  -0.021   0.783   0.833
 1661HOH     H2 5189   0.102   0.778   0.921
 1662HOH      O 5190   1.170   0.008   0.571
 1662HOH     H1 5191   1.107   0.040   0.636
 1662HOH     H2 5192   1.245  -0.021   0.623
 1663HOH      O 5193   3.794   3.381   1.366
 1663HOH     H1 5194   3.863   3.315   1.374
 1663HOH     H2 5195   3.806   3.418   1.279
 1664HOH      O 5196   2.495   0.058   0.885
 1664HOH     H1 5197   2.403   0.064   0.908
 1664HOH     H2 5198   2.516  -0.035   0.890
 1665HOH      O 5199   3.487   4.025   2.724
 1665HOH     H1 5200   3.480   4.009   2.629
 1665HOH     H2 5201   3.401   4.001   2.758
 1666HOH      O 5202   2.134   3.872   0.681
 1666HOH     H1 5203   2.188   3.814   0.735
 1666HOH     H2 5204   2.090   3.813   0.620
 1667HOH      O 5205   4.026   2.681   1.909
 1667HOH     H1 5206   4.009   2.775   1.915
 1667HOH     H2 5207   3.955   2.647   1.855
 1668HOH      O 5208   1.205   2.573   1.976
 1668HOH     H1 5209   1.181   2.634   2.046
 1668HOH     H2 5210   1.203   2.627   1.896
 1669HOH      O 5211   0.235   2.793   3.224
 1669HOH     H1 5212   0.175   2.747   3.165
 1669HOH     H2 5213   0.179   2.849   3.277
 1670HOH      O 5214   1.888   1.675   1.956
 1670HOH     H1 5215   1.864   1.767   1.948
 1670HOH     H2 5216   1.927   1.652   1.872
 1671HOH      O 5217   2.226   2.500   0.259
 1671HOH     H1 5218   2.155   2.436   0.256
 1671HOH     H2 5219   2.218   2.549   0.177
 1672HOH      O 5220   1.908   2.797   1.004
 1672HOH     H1 5221   1.852   2.875   0.998
 1672HOH     H2 5222   1.873   2.738   0.936
 1673HOH      O 5223   1.338   0.914   0.386
 1673HOH     H1 5224   1.328   0.843   0.449
 1673HOH     H2 5225   1.288   0.886   0.310
 1674HOH      O 5226   3.441   1.517   2.961
 1674HOH     H1 5227   3.455   1.457   2.889
 1674HOH     H2 5228   3.477   1.471   3.038
 1675HOH      O 5229   2.190   1.214   0.348
 1675HOH     H1 5230   2.124   1.145   0.341
 1675HOH     H2 5231   2.201   1.245   0.258
 1676HOH      O 5232   3.151   3.644   3.558
 1676HOH     H1 5233   3.091   3.717   3.547
 1676HOH     H2 5234   3.123   3.580   3.493
 1677HOH      O 5235   2.650   0.558   2.898
 1677HOH     H1 5236   2.561   0.592   2.889
 1677HOH     H2 5237   2.705   0.636   2.897
 1678HOH      O 5238   3.291   1.721   2.057
 1678HOH     H1 5239   3.279   1.646   1.999
 1678HOH     H2 5240   3.351   1.690   2.124
 1679HOH      O 5241   0.357   2.347   1.885
 1679HOH     H1 5242   0.281   2.305   1.926
 1679HOH     H2 5243   0.321   2.427   1.846
 1680HOH      O 5244   1.350   0.733   3.568
 1680HOH     H1 5245   1.292   0.713   3.495
 1680HOH     H2 5246   1.324   0.672   3.637
 1681HOH      O 5247   0.293   3.109   2.151
 1681HOH     H1 5248   0.265   3.104   2.243
 1681HOH     H2 5249   0.319   3.020   2.129
 1682HOH      O 5250   0.602   2.205   1.848
 1682HOH     H1 5251   0.514   2.243   1.850
 1682HOH     H2 5252   0.604   2.153   1.768
 1683HOH      O 5253   0.694   2.864   2.253
 1683HOH     H1 5254   0.636   2.897   2.321
 1683HOH     H2 5255   0.676   2.770   2.250
 1684HOH      O 5256   3.638   0.573   0.679
 1684HOH     H1 5257   3.722   0.580   0.725
 1684HOH     H2 5258   3.635   0.482   0.649
 1685HOH      O 5259   0.504   2.867   0.136
 1685HOH     H1 5260   0.484   2.788   0.085
 1685HOH     H2 5261   0.596   2.884   0.119
 1686HOH      O 5262   2.456   4.002   1.481
 1686HOH     H1 5263   2.488   3.973   1.567
 1686HOH     H2 5264   2.386   4.065   1.502
 1687HOH      O 5265   3.058   1.855   1.904
 1687HOH     H1 5266   3.117   1.837   1.977
 1687HOH     H2 5267   2.998   1.921   1.937
 1688HOH      O 5268   3.849   0.571   1.964
 1688HOH     H1 5269   3.857   0.633   1.891
 1688HOH     H2 5270   3.758   0.543   1.961
 1689HOH      O 5271   0.138   0.360   1.044
 1689HOH     H1 5272   0.182   0.442   1.023
 1689HOH     H2 5273   0.053   0.367   0.999
 1690HOH      O 5274   2.981   3.388   0.744
 1690HOH     H1 5275   2.901   3.368   0.792
 1690HOH     H2 5276   2.964   3.473   0.704
 1691HOH      O 5277   0.713   0.204   1.818
 1691HOH     H1 5278   0.623   0.228   1.838
 1691HOH     H2 5279   0.767   0.263   1.871
 1692HOH      O 5280   3.506   1.490   1.456
 1692HOH     H1 5281   3.489   1.396   1.443
 1692HOH     H2 5282   3.425   1.524   1.493
 1693HOH      O 5283   0.133   0.262   1.325
 1693HOH     H1 5284   0.101   0.191   1.270
 1693HOH     H2 5285   0.114   0.342   1.275
 1694HOH      O 5286   1.016   1.817   1.416
 1694HOH     H1 5287   1.000   1.908   1.439
 1694HOH     H2 5288   1.020   1.771   1.500
 1695HOH      O 5289   0.279   0.366   1.672
 1695HOH     H1 5290   0.291   0.460   1.688
 1695HOH     H2 5291   0.312   0.352   1.584
 1696HOH      O 5292   0.949   1.086   1.432
 1696HOH     H1 5293   0.924   1.098   1.524
 1696HOH     H2 5294   0.911   1.162   1.387
 1697HOH      O 5295   1.054   1.101   2.454
 1697HOH     H1 5296   1.114   1.032   2.427
 1697HOH     H2 5297   0.999   1.061   2.521
 1698HOH      O 5298   1.333   2.695   0.235
 1698HOH     H1 5299   1.404   2.666   0.178
 1698HOH     H2 5300   1.277   2.618   0.245
 1699HOH      O 5301   1.331   1.557   1.716
 1699HOH     H1 5302   1.377   1.562   1.799
 1699HOH     H2 5303   1.370   1.627   1.663
 1700HOH      O 5304   0.467   1.929   1.274
 1700HOH     H1 5305   0.557   1.934   1.241
 1700HOH     H2 5306   0.454   1.836   1.296
 1701HOH      O 5307   1.410   1.271   1.136
 1701HOH     H1 5308   1.490   1.310   1.171
 1701HOH     H2 5309   1.347   1.276   1.208
 1702HOH      O 5310   3.639   3.137   0.772
 1702HOH     H1 5311   3.700   3.101   0.837
 1702HOH     H2 5312   3.553   3.132   0.815
 1703HOH      O 5313   2.937   3.485   2.970
 1703HOH     H1 5314   2.895   3.417   2.918
 1703HOH     H2 5315   2.870   3.552   2.980
 1704HOH      O 5316   0.665   0.048   3.609
 1704HOH     H1 5317   0.723   0.122   3.629
 1704HOH     H2 5318   0.577   0.086   3.608
 1705HOH      O 5319   2.786   2.783   3.826
 1705HOH     H1 5320   2.785   2.836   3.905
 1705HOH     H2 5321   2.707   2.809   3.779
 1706HOH      O 5322   4.072   0.646   1.289
 1706HOH     H1 5323   4.049   0.730   1.250
 1706HOH     H2 5324   3.988   0.601   1.301
 1707HOH      O 5325   0.957   3.404   0.029
 1707HOH     H1 5326   0.895   3.347   0.073
 1707HOH     H2 5327   0.956   3.374  -0.062
 1708HOH      O 5328   0.021   2.015   1.876
 1708HOH     H1 5329   0.060   2.095   1.842
 1708HOH     H2 5330  -0.039   2.045   1.945
 1709HOH      O 5331   2.944   3.501   1.230
 1709HOH     H1 5332   2.995   3.456   1.297
 1709HOH     H2 5333   3.009   3.552   1.181
 1710HOH      O 5334   2.664   1.947   1.634
 1710HOH     H1 5335   2.712   1.873   1.669
 1710HOH     H2 5336   2.616   1.983   1.709
 1711HOH      O 5337   2.130   3.200   0.687
 1711HOH     H1 5338   2.076   3.172   0.612
 1711HOH     H2 5339   2.159   3.118   0.726
 1712HOH      O 5340   2.281   1.984   0.028
 1712HOH     H1 5341   2.361   1.937   0.005
 1712HOH     H2 5342   2.304   2.037   0.105
 1713HOH      O 5343   2.357   2.431   3.690
 1713HOH     H1 5344   2.345   2.337   3.700
 1713HOH     H2 5345   2.276   2.469   3.726
 1714HOH      O 5346   3.810   0.819   2.951
 1714HOH     H1 5347   3.801   0.861   2.865
 1714HOH     H2 5348   3.753   0.742   2.945
 1715HOH      O 5349   3.535   0.936   1.633
 1715HOH     H1 5350   3.535   1.020   1.679
 1715HOH     H2 5351   3.453   0.935   1.583
 1716HOH      O 5352   3.815   2.904   3.545
 1716HOH     H1 5353   3.797   2.818   3.506
 1716HOH     H2 5354   3.898   2.893   3.591
 1717HOH      O 5355   1.168   0.201   1.866
 1717HOH     H1 5356   1.175   0.287   1.906
 1717HOH     H2 5357   1.120   0.148   1.930
 1718HOH      O 5358   1.068   0.747   2.487
 1718HOH     H1 5359   1.038   0.693   2.414
 1718HOH     H2 5360   1.124   0.814   2.446
 1719HOH      O 5361   2.188   0.493   1.401
 1719HOH     H1 5362   2.266   0.544   1.423
 1719HOH     H2 5363   2.159   0.530   1.317
 1720HOH      O 5364   1.565   0.595   3.450
 1720HOH     H1 5365   1.552   0.506   3.417
 1720HOH     H2 5366   1.488   0.612   3.505
 1721HOH      O 5367   2.178   3.393   1.639
 1721HOH     H1 5368   2.111   3.392   1.571
 1721HOH     H2 5369   2.131   3.410   1.720
 1722HOH      O 5370   2.559   3.820   0.816
 1722HOH     H1 5371   2.634   3.791   0.765
 1722HOH     H2 5372   2.592   3.829   0.905
 1723HOH      O 5373   3.218   1.014   2.755
 1723HOH     H1 5374   3.178   1.090   2.798
 1723HOH     H2 5375   3.197   0.940   2.812
 1724HOH      O 5376   1.824   0.746   0.673
 1724HOH     H1 5377   1.809   0.836   0.646
 1724HOH     H2 5378   1.918   0.741   0.690
 1725HOH      O 5379   2.002   2.809   0.100
 1725HOH     H1 5380   2.043   2.860   0.170
 1725HOH     H2 5381   1.993   2.870   0.027
 1726HOH      O 5382   2.288   1.360   3.420
 1726HOH     H1 5383   2.300   1.431   3.484
 1726HOH     H2 5384   2.360   1.371   3.358
 1727HOH      O 5385   2.567   3.495   3.951
 1727HOH     H1 5386   2.563   3.408   3.990
 1727HOH     H2 5387   2.639   3.538   3.998
 1728HOH      O 5388   1.880   3.053   2.575
 1728HOH     H1 5389   1.886   3.064   2.481
 1728HOH     H2 5390   1.940   2.981   2.596
 1729HOH      O 5391   0.789   2.977   3.164
 1729HOH     H1 5392   0.879   2.949   3.148
 1729HOH     H2 5393   0.741   2.895   3.179
 1730HOH      O 5394   2.474   3.793   0.203
 1730HOH     H1 5395   2.419   3.782   0.280
 1730HOH     H2 5396   2.415   3.780   0.129
 1731HOH      O 5397   3.129   0.474   0.861
 1731HOH     H1 5398   3.192   0.402   0.867
 1731HOH     H2 5399   3.141   0.508   0.772
 1732HOH      O 5400   3.549   2.134   0.946
 1732HOH     H1 5401   3.612   2.066   0.921
 1732HOH     H2 5402   3.463   2.095   0.929
 1733HOH      O 5403   0.409   1.942   2.780
 1733HOH     H1 5404   0.333   2.001   2.774
 1733HOH     H2 5405   0.370   1.855   2.784
 1734HOH      O 5406   3.414   2.331   2.956
 1734HOH     H1 5407   3.355   2.362   3.024
 1734HOH     H2 5408   3.386   2.240   2.939
 1735HOH      O 5409   2.348   2.138   2.586
 1735HOH     H1 5410   2.366   2.132   2.680
 1735HOH     H2 5411   2.254   2.150   2.580
 1736HOH      O 5412   2.204   2.681   3.114
 1736HOH     H1 5413   2.115   2.662   3.145
 1736HOH     H2 5414   2.213   2.776   3.124
 1737HOH      O 5415   0.693   2.392   3.994
 1737HOH     H1 5416   0.737   2.472   4.025
 1737HOH     H2 5417   0.762   2.325   3.995
 1738HOH      O 5418   2.685   2.536   3.417
 1738HOH     H1 5419   2.682   2.452   3.464
 1738HOH     H2 5420   2.695   2.511   3.325
 1739HOH      O 5421   2.452   3.187   3.089
 1739HOH     H1 5422   2.464   3.278   3.062
 1739HOH     H2 5423   2.426   3.192   3.181
 1740HOH      O 5424   1.966   3.896   1.014
 1740HOH     H1 5425   1.945   3.956   0.942
 1740HOH     H2 5426   1.889   3.899   1.070
 1741HOH      O 5427   0.898   0.362   1.925
 1741HOH     H1 5428   0.891   0.447   1.968
 1741HOH     H2 5429   0.992   0.348   1.915
 1742HOH      O 5430   1.374   3.205   1.510
 1742HOH     H1 5431   1.358   3.267   1.439
 1742HOH     H2 5432   1.314   3.133   1.493
 1743HOH      O 5433   1.514   2.712   1.900
 1743HOH     H1 5434   1.563   2.638   1.935
 1743HOH     H2 5435   1.494   2.766   1.976
 1744HOH      O 5436   2.068   3.459   0.650
 1744HOH     H1 5437   2.086   3.482   0.740
 1744HOH     H2 5438   2.071   3.363   0.648
 1745HOH      O 5439   2.772   0.088   1.144
 1745HOH     H1 5440   2.763  -0.003   1.116
 1745HOH     H2 5441   2.807   0.134   1.068
 1746HOH      O 5442   3.471   3.566   0.745
 1746HOH     H1 5443   3.490   3.475   0.722
 1746HOH     H2 5444   3.444   3.606   0.662
 1747HOH      O 5445   3.345   1.735   3.328
 1747HOH     H1 5446   3.376   1.719   3.417
 1747HOH     H2 5447   3.282   1.664   3.311
 1748HOH      O 5448   0.790   1.601   0.822
 1748HOH     H1 5449   0.729   1.537   0.859
 1748HOH     H2 5450   0.874   1.556   0.820
 1749HOH      O 5451   3.722   0.180   1.518
 1749HOH     H1 5452   3.680   0.237   1.453
 1749HOH     H2 5453   3.697   0.092   1.492
 1750HOH      O 5454   3.091   3.221   3.993
 1750HOH     H1 5455   3.169   3.191   4.041
 1750HOH     H2 5456   3.124   3.243   3.906
 1751HOH      O 5457   1.316   3.793   3.551
 1751HOH     H1 5458   1.307   3.801   3.646
 1751HOH     H2 5459   1.231   3.760   3.522
 1752HOH      O 5460   1.930   3.479   3.632
 1752HOH     H1 5461   1.857   3.419   3.642
 1752HOH     H2 5462   1.941   3.489   3.537
 1753HOH      O 5463   1.948   0.990   3.414
 1753HOH     H1 5464   2.034   0.949   3.415
 1753HOH     H2 5465   1.887   0.917   3.404
 1754HOH      O 5466   0.710   0.809   3.418
 1754HOH     H1 5467   0.649   0.820   3.492
 1754HOH     H2 5468   0.752   0.895   3.409
 1755HOH      O 5469   0.637   0.199   3.976
 1755HOH     H1 5470   0.557   0.176   3.929
 1755HOH     H2 5471   0.662   0.119   4.022
 1756HOH      O 5472   2.969   1.973   0.802
 1756HOH     H1 5473   2.963   1.885   0.838
 1756HOH     H2 5474   3.005   2.027   0.873
 1757HOH      O 5475   3.665   2.741   3.202
 1757HOH     H1 5476   3.695   2.730   3.292
 1757HOH     H2 5477   3.571   2.728   3.206
 1758HOH      O 5478   0.502   2.958   1.762
 1758HOH     H1 5479   0.555   2.902   1.818
 1758HOH     H2 5480   0.412   2.928   1.777
 1759HOH      O 5481   2.155   2.790   1.601
 1759HOH     H1 5482   2.206   2.732   1.544
 1759HOH     H2 5483   2.065   2.782   1.569
 1760HOH      O 5484   0.492   0.088   1.196
 1760HOH     H1 5485   0.498   0.052   1.108
 1760HOH     H2 5486   0.441   0.024   1.245
 1761HOH      O 5487   1.936   1.384   1.005
 1761HOH     H1 5488   1.947   1.478   1.018
 1761HOH     H2 5489   1.948   1.371   0.911
 1762HOH      O 5490   2.235   0.484   3.931
 1762HOH     H1 5491   2.253   0.545   3.860
 1762HOH     H2 5492   2.179   0.533   3.991
 1763HOH      O 5493   3.259   2.070   1.313
 1763HOH     H1 5494   3.257   2.012   1.389
 1763HOH     H2 5495   3.207   2.146   1.339
 1764HOH      O 5496   0.193   2.405   0.411
 1764HOH     H1 5497   0.267   2.345   0.397
 1764HOH     H2 5498   0.192   2.418   0.506
 1765HOH      O 5499   1.655   3.099   2.992
 1765HOH     H1 5500   1.702   3.017   3.004
 1765HOH     H2 5501   1.582   3.076   2.934
 1766HOH      O 5502   2.516   3.436   0.298
 1766HOH     H1 5503   2.515   3.513   0.354
 1766HOH     H2 5504   2.439   3.386   0.325
 1767HOH      O 5505   2.381   2.380   3.326
 1767HOH     H1 5506   2.376   2.418   3.239
 1767HOH     H2 5507   2.356   2.451   3.385
 1768HOH      O 5508   0.052   0.081   2.263
 1768HOH     H1 5509   0.124   0.098   2.323
 1768HOH     H2 5510  -0.024   0.122   2.305
 1769HOH      O 5511   2.351   1.244   2.288
 1769HOH     H1 5512   2.436   1.206   2.267
 1769HOH     H2 5513   2.291   1.170   2.288
 1770HOH      O 5514   2.284   3.124   0.336
 1770HOH     H1 5515   2.231   3.105   0.259
 1770HOH     H2 5516   2.268   3.217   0.354
 1771HOH      O 5517   2.985   2.553   1.642
 1771HOH     H1 5518   2.917   2.493   1.610
 1771HOH     H2 5519   3.045   2.497   1.692
 1772HOH      O 5520   3.942   2.676   2.774
 1772HOH     H1 5521   3.966   2.593   2.815
 1772HOH     H2 5522   3.948   2.658   2.680
 1773HOH      O 5523   3.796   3.659   2.881
 1773HOH     H1 5524   3.857   3.608   2.935
 1773HOH     H2 5525   3.757   3.722   2.942
 1774HOH      O 5526   2.579   2.686   1.383
 1774HOH     H1 5527   2.617   2.598   1.374
 1774HOH     H2 5528   2.637   2.743   1.333
 1775HOH      O 5529   3.443   3.808   3.458
 1775HOH     H1 5530   3.397   3.748   3.400
 1775HOH     H2 5531   3.459   3.756   3.537
 1776HOH      O 5532   3.143   3.609   3.961
 1776HOH     H1 5533   3.086   3.589   3.888
 1776HOH     H2 5534   3.163   3.702   3.952
 1777HOH      O 5535   2.553   2.966   1.640
 1777HOH     H1 5536   2.462   2.968   1.610
 1777HOH     H2 5537   2.555   3.028   1.713
 1778HOH      O 5538   3.428   3.647   0.459
 1778HOH     H1 5539   3.337   3.660   0.485
 1778HOH     H2 5540   3.422   3.598   0.376
 1779HOH      O 5541   2.701   3.750   0.346
 1779HOH     H1 5542   2.655   3.709   0.419
 1779HOH     H2 5543   2.634   3.763   0.279
 1780HOH      O 5544   1.154   3.538   0.818
 1780HOH     H1 5545   1.141   3.553   0.911
 1780HOH     H2 5546   1.066   3.518   0.785
 1781HOH      O 5547   2.940   3.769   1.511
 1781HOH     H1 5548   2.864   3.749   1.457
 1781HOH     H2 5549   2.908   3.765   1.601
 1782HOH      O 5550   3.625   2.000   3.172
 1782HOH     H1 5551   3.535   2.024   3.198
 1782HOH     H2 5552   3.618   1.909   3.142
 1783HOH      O 5553   1.956   0.003   3.310
 1783HOH     H1 5554   1.871  -0.039   3.327
 1783HOH     H2 5555   1.948   0.090   3.349
 1784HOH      O 5556   2.119   1.456   0.448
 1784HOH     H1 5557   2.106   1.517   0.375
 1784HOH     H2 5558   2.152   1.376   0.408
 1785HOH      O 5559   0.775   2.285   1.600
 1785HOH     H1 5560   0.705   2.318   1.544
 1785HOH     H2 5561   0.805   2.363   1.648
 1786HOH      O 5562   1.245   3.161   2.352
 1786HOH     H1 5563   1.157   3.151   2.317
 1786HOH     H2 5564   1.279   3.240   2.311
 1787HOH      O 5565   2.190   0.922   3.743
 1787HOH     H1 5566   2.120   0.957   3.799
 1787HOH     H2 5567   2.211   0.994   3.683
 1788HOH      O 5568   0.144   2.271   1.321
 1788HOH     H1 5569   0.187   2.350   1.290
 1788HOH     H2 5570   0.052   2.282   1.297
 1789HOH      O 5571   1.263   1.200   1.358
 1789HOH     H1 5572   1.187   1.254   1.339
 1789HOH     H2 5573   1.319   1.256   1.412
 1790HOH      O 5574   3.642   1.059   0.887
 1790HOH     H1 5575   3.586   1.010   0.827
 1790HOH     H2 5576   3.635   1.011   0.970
 1791HOH      O 5577   3.906   2.339   1.250
 1791HOH     H1 5578   3.908   2.431   1.222
 1791HOH     H2 5579   3.822   2.329   1.293
 1792HOH      O 5580   3.172   0.296   3.366
 1792HOH     H1 5581   3.261   0.332   3.358
 1792HOH     H2 5582   3.163   0.275   3.459
 1793HOH      O 5583   3.640   3.086   2.563
 1793HOH     H1 5584   3.669   3.175   2.544
 1793HOH     H2 5585   3.568   3.097   2.625
 1794HOH      O 5586   0.325   2.545   0.208
 1794HOH     H1 5587   0.271   2.471   0.235
 1794HOH     H2 5588   0.312   2.610   0.277
 1795HOH      O 5589   0.607   0.700   0.206
 1795HOH     H1 5590   0.557   0.742   0.136
 1795HOH     H2 5591   0.670   0.644   0.160
 1796HOH      O 5592   1.118   3.327   1.289
 1796HOH     H1 5593   1.146   3.399   1.346
 1796HOH     H2 5594   1.085   3.260   1.350
 1797HOH      O 5595   0.654   1.577   3.834
 1797HOH     H1 5596   0.694   1.512   3.893
 1797HOH     H2 5597   0.715   1.582   3.760
 1798HOH      O 5598   1.610   1.795   2.405
 1798HOH     H1 5599   1.569   1.777   2.489
 1798HOH     H2 5600   1.669   1.721   2.390
 1799HOH      O 5601   2.493   1.624   0.704
 1799HOH     H1 5602   2.480   1.686   0.775
 1799HOH     H2 5603   2.408   1.620   0.659
 1800HOH      O 5604   2.161   2.751   1.074
 1800HOH     H1 5605   2.194   2.778   0.988
 1800HOH     H2 5606   2.067   2.745   1.062
 1801HOH      O 5607   0.843   1.310   1.226
 1801HOH     H1 5608   0.797   1.366   1.163
 1801HOH     H2 5609   0.800   1.329   1.310
 1802HOH      O 5610   3.590   3.121   0.239
 1802HOH     H1 5611   3.603   3.096   0.331
 1802HOH     H2 5612   3.654   3.068   0.191
 1803HOH      O 5613   0.718   1.716   2.853
 1803HOH     H1 5614   0.790   1.752   2.801
 1803HOH     H2 5615   0.665   1.792   2.877
 1804HOH      O 5616   1.113   0.293   1.591
 1804HOH     H1 5617   1.027   0.253   1.582
 1804HOH     H2 5618   1.154   0.247   1.664
 1805HOH      O 5619   3.957   1.202   2.165
 1805HOH     H1 5620   3.930   1.111   2.165
 1805HOH     H2 5621   3.876   1.251   2.181
 1806HOH      O 5622   0.524   1.848   3.147
 1806HOH     H1 5623   0.584   1.880   3.079
 1806HOH     H2 5624   0.573   1.779   3.192
 1807HOH      O 5625   3.332   1.192   0.348
 1807HOH     H1 5626   3.255   1.148   0.383
 1807HOH     H2 5627   3.406   1.143   0.384
 1808HOH      O 5628   1.338   2.849   1.184
 1808HOH     H1 5629   1.417   2.902   1.168
 1808HOH     H2 5630   1.370   2.760   1.197
 1809HOH      O 5631   0.717   2.540   3.026
 1809HOH     H1 5632   0.639   2.563   2.975
 1809HOH     H2 5633   0.754   2.464   2.981
 1810HOH      O 5634   0.103   0.062   2.619
 1810HOH     H1 5635   0.084   0.100   2.705
 1810HOH     H2 5636   0.195   0.084   2.603
 1811HOH      O 5637   2.129   2.732   3.479
 1811HOH     H1 5638   2.065   2.783   3.429
 1811HOH     H2 5639   2.119   2.643   3.447
 1812HOH      O 5640   3.830   1.814   3.465
 1812HOH     H1 5641   3.885   1.758   3.410
 1812HOH     H2 5642   3.847   1.784   3.554
 1813HOH      O 5643   3.016   2.783   1.863
 1813HOH     H1 5644   3.073   2.739   1.926
 1813HOH     H2 5645   2.994   2.716   1.799
 1814HOH      O 5646   2.767   1.259   2.223
 1814HOH     H1 5647   2.696   1.321   2.240
 1814HOH     H2 5648   2.735   1.176   2.258
 1815HOH      O 5649   0.247   2.205   1.557
 1815HOH     H1 5650   0.234   2.115   1.526
 1815HOH     H2 5651   0.205   2.259   1.491
 1816HOH      O 5652   3.545   3.137   3.046
 1816HOH     H1 5653   3.524   3.157   2.955
 1816HOH     H2 5654   3.628   3.182   3.062
 1817HOH      O 5655   0.704   3.213   2.838
 1817HOH     H1 5656   0.633   3.277   2.836
 1817HOH     H2 5657   0.725   3.203   2.930
 1818HOH      O 5658   3.947   2.833   3.243
 1818HOH     H1 5659   3.855   2.806   3.252
 1818HOH     H2 5660   3.951   2.878   3.159
 1819HOH      O 5661   0.112   2.413   2.792
 1819HOH     H1 5662   0.151   2.342   2.843
 1819HOH     H2 5663   0.112   2.381   2.702
 1820HOH      O 5664   2.835   0.477   2.600
 1820HOH     H1 5665   2.835   0.505   2.691
 1820HOH     H2 5666   2.754   0.427   2.590
 1821HOH      O 5667   0.515   2.636   0.503
 1821HOH     H1 5668   0.428   2.640   0.463
 1821HOH     H2 5669   0.499   2.607   0.593
 1822HOH      O 5670   3.560   1.003   3.201
 1822HOH     H1 5671   3.546   1.066   3.130
 1822HOH     H2 5672   3.496   1.027   3.268
 1823HOH      O 5673   0.116   3.072   0.236
 1823HOH     H1 5674   0.091   3.161   0.262
 1823HOH     H2 5675   0.102   3.019   0.315
 1824HOH      O 5676   2.951   1.827   3.788
 1824HOH     H1 5677   2.927   1.781   3.707
 1824HOH     H2 5678   3.021   1.887   3.762
 1825HOH      O 5679   1.793   1.002   3.706
 1825HOH     H1 5680   1.851   1.022   3.633
 1825HOH     H2 5681   1.850   1.000   3.783
 1826HOH      O 5682   0.609   0.388   0.815
 1826HOH     H1 5683   0.589   0.361   0.905
 1826HOH     H2 5684   0.544   0.341   0.761
 1827HOH      O 5685   0.854   3.685   1.941
 1827HOH     H1 5686   0.776   3.696   1.887
 1827HOH     H2 5687   0.820   3.683   2.031
 1828HOH      O 5688   3.355   1.873   1.526
 1828HOH     H1 5689   3.320   1.905   1.609
 1828HOH     H2 5690   3.441   1.837   1.549
 1829HOH      O 5691   0.764   3.200   0.147
 1829HOH     H1 5692   0.754   3.189   0.242
 1829HOH     H2 5693   0.739   3.115   0.111
 1830HOH      O 5694   0.419   1.662   0.514
 1830HOH     H1 5695   0.502   1.620   0.534
 1830HOH     H2 5696   0.417   1.739   0.572
 1831HOH      O 5697   1.117   0.454   1.101
 1831HOH     H1 5698   1.037   0.426   1.057
 1831HOH     H2 5699   1.124   0.548   1.081
 1832HOH      O 5700   2.143   3.928   3.501
 1832HOH     H1 5701   2.059   3.957   3.466
 1832HOH     H2 5702   2.165   3.850   3.450
 1833HOH      O 5703   1.509   4.045   3.625
 1833HOH     H1 5704   1.417   4.063   3.647
 1833HOH     H2 5705   1.543   4.003   3.704
 1834HOH      O 5706   0.130   3.837   3.087
 1834HOH     H1 5707   0.047   3.874   3.118
 1834HOH     H2 5708   0.176   3.810   3.166
 1835HOH      O 5709   2.948   0.381   3.599
 1835HOH     H1 5710   2.991   0.460   3.631
 1835HOH     H2 5711   3.012   0.312   3.611
 1836HOH      O 5712   2.443   2.258   0.012
 1836HOH     H1 5713   2.485   2.336  -0.024
 1836HOH     H2 5714   2.510   2.219   0.069
 1837HOH      O 5715   1.770   3.224   0.306
 1837HOH     H1 5716   1.808   3.254   0.224
 1837HOH     H2 5717   1.707   3.156   0.280
 1838HOH      O 5718   0.870   2.631   0.036
 1838HOH     H1 5719   0.815   2.628   0.114
 1838HOH     H2 5720   0.885   2.724   0.021
 1839HOH      O 5721   1.129   3.689   3.343
 1839HOH     H1 5722   1.170   3.608   3.375
 1839HOH     H2 5723   1.194   3.725   3.282
 1840HOH      O 5724   0.806   3.522   2.203
 1840HOH     H1 5725   0.881   3.481   2.160
 1840HOH     H2 5726   0.730   3.494   2.151
 1841HOH      O 5727   2.234   2.899   3.671
 1841HOH     H1 5728   2.210   2.850   3.592
 1841HOH     H2 5729   2.196   2.986   3.657
 1842HOH      O 5730   3.703   3.493   3.531
 1842HOH     H1 5731   3.644   3.561   3.564
 1842HOH     H2 5732   3.646   3.418   3.514
 1843HOH      O 5733   1.218   1.269   2.683
 1843HOH     H1 5734   1.161   1.215   2.738
 1843HOH     H2 5735   1.169   1.278   2.600
 1844HOH      O 5736   0.102   0.276   1.880
 1844HOH     H1 5737   0.034   0.209   1.873
 1844HOH     H2 5738   0.141   0.279   1.792
 1845HOH      O 5739   1.568   3.856   3.837
 1845HOH     H1 5740   1.616   3.774   3.831
 1845HOH     H2 5741   1.476   3.831   3.829
 1846HOH      O 5742   1.999   3.267   3.911
 1846HOH     H1 5743   2.065   3.199   3.898
 1846HOH     H2 5744   2.048   3.349   3.908
 1847HOH      O 5745   1.152   2.160   2.757
 1847HOH     H1 5746   1.229   2.166   2.813
 1847HOH     H2 5747   1.141   2.066   2.741
 1848HOH      O 5748   0.509   2.843   0.716
 1848HOH     H1 5749   0.540   2.778   0.779
 1848HOH     H2 5750   0.466   2.909   0.770
 1849HOH      O 5751   2.929   4.032   3.543
 1849HOH     H1 5752   2.961   3.958   3.491
 1849HOH     H2 5753   2.836   4.036   3.525
 1850HOH      O 5754   1.291   3.873   1.122
 1850HOH     H1 5755   1.207   3.864   1.168
 1850HOH     H2 5756   1.342   3.798   1.151
 1851HOH      O 5757   0.009   0.967   2.657
 1851HOH     H1 5758   0.048   1.021   2.588
 1851HOH     H2 5759   0.078   0.959   2.722
 1852HOH      O 5760   0.128   1.838   1.199
 1852HOH     H1 5761   0.082   1.766   1.156
 1852HOH     H2 5762   0.072   1.915   1.184
 1853HOH      O 5763   0.565   1.001   2.640
 1853HOH     H1 5764   0.544   0.908   2.640
 1853HOH     H2 5765   0.605   1.016   2.554
 1854HOH      O 5766   3.027   0.498   1.096
 1854HOH     H1 5767   3.055   0.495   1.005
 1854HOH     H2 5768   3.047   0.411   1.131
 1855HOH      O 5769   1.072   0.624   1.347
 1855HOH     H1 5770   1.115   0.647   1.429
 1855HOH     H2 5771   1.032   0.706   1.317
 1856HOH      O 5772   3.410   2.671   0.148
 1856HOH     H1 5773   3.420   2.751   0.097
 1856HOH     H2 5774   3.382   2.700   0.234
 1857HOH      O 5775   0.483   0.063   1.674
 1857HOH     H1 5776   0.406   0.008   1.690
 1857HOH     H2 5777   0.492   0.115   1.754
 1858HOH      O 5778   3.409   3.086   2.728
 1858HOH     H1 5779   3.416   2.991   2.717
 1858HOH     H2 5780   3.331   3.098   2.782
 1859HOH      O 5781   2.725   2.102   0.895
 1859HOH     H1 5782   2.815   2.071   0.891
 1859HOH     H2 5783   2.695   2.076   0.982
 1860HOH      O 5784   2.534   2.119   1.816
 1860HOH     H1 5785   2.455   2.169   1.836
 1860HOH     H2 5786   2.596   2.145   1.885
 1861HOH      O 5787   3.437   0.921   2.317
 1861HOH     H1 5788   3.415   0.944   2.407
 1861HOH     H2 5789   3.431   0.825   2.314
 1862HOH      O 5790   1.427   1.161   0.518
 1862HOH     H1 5791   1.414   1.083   0.466
 1862HOH     H2 5792   1.344   1.209   0.512
 1863HOH      O 5793   2.178   0.704   3.033
 1863HOH     H1 5794   2.150   0.795   3.045
 1863HOH     H2 5795   2.097   0.656   3.020
 1864HOH      O 5796   0.792   2.195   3.148
 1864HOH     H1 5797   0.846   2.151   3.082
 1864HOH     H2 5798   0.813   2.288   3.137
 1865HOH      O 5799   1.749   2.717   2.968
 1865HOH     H1 5800   1.813   2.647   2.949
 1865HOH     H2 5801   1.797   2.798   2.955
 1866HOH      O 5802   2.957   0.530   2.317
 1866HOH     H1 5803   3.040   0.489   2.343
 1866HOH     H2 5804   2.899   0.514   2.391
 1867HOH      O 5805   1.974   3.137   0.481
 1867HOH     H1 5806   2.025   3.088   0.415
 1867HOH     H2 5807   1.895   3.164   0.435
 1868HOH      O 5808   2.337   0.219   0.320
 1868HOH     H1 5809   2.283   0.296   0.341
 1868HOH     H2 5810   2.348   0.224   0.225
 1869HOH      O 5811   2.224   2.992   3.062
 1869HOH     H1 5812   2.309   3.004   3.021
 1869HOH     H2 5813   2.184   3.079   3.061
 1870HOH      O 5814   0.697   1.629   1.718
 1870HOH     H1 5815   0.625   1.657   1.774
 1870HOH     H2 5816   0.749   1.708   1.703
 1871HOH      O 5817   3.468   1.014   2.647
 1871HOH     H1 5818   3.511   0.981   2.726
 1871HOH     H2 5819   3.375   1.013   2.668
 1872HOH      O 5820   1.768   0.254   4.001
 1872HOH     H1 5821   1.722   0.262   4.084
 1872HOH     H2 5822   1.717   0.189   3.951
 1873HOH      O 5823   3.672   2.421   0.041
 1873HOH     H1 5824   3.767   2.430   0.047
 1873HOH     H2 5825   3.656   2.389  -0.048
 1874HOH      O 5826   1.230   0.086   3.601
 1874HOH     H1 5827   1.140   0.055   3.602
 1874HOH     H2 5828   1.252   0.102   3.693
 1875HOH      O 5829   3.409   3.440   2.983
 1875HOH     H1 5830   3.395   3.526   3.023
 1875HOH     H2 5831   3.338   3.432   2.918
 1876HOH      O 5832   0.143   1.043   1.384
 1876HOH     H1 5833   0.173   1.077   1.300
 1876HOH     H2 5834   0.060   0.999   1.364
 1877HOH      O 5835   0.686   2.542   0.704
 1877HOH     H1 5836   0.750   2.471   0.712
 1877HOH     H2 5837   0.700   2.577   0.616
 1878HOH      O 5838   2.255   3.149   3.877
 1878HOH     H1 5839   2.264   3.168   3.783
 1878HOH     H2 5840   2.338   3.107   3.901
 1879HOH      O 5841   2.868   2.614   0.922
 1879HOH     H1 5842   2.850   2.695   0.876
 1879HOH     H2 5843   2.809   2.550   0.882
 1880HOH      O 5844   1.932   0.995   1.347
 1880HOH     H1 5845   1.952   1.064   1.284
 1880HOH     H2 5846   1.926   1.041   1.431
 1881HOH      O 5847   3.842   0.862   1.601
 1881HOH     H1 5848   3.851   0.924   1.529
 1881HOH     H2 5849   3.929   0.857   1.639
 1882HOH      O 5850   1.754   1.081   0.059
 1882HOH     H1 5851   1.680   1.080   0.119
 1882HOH     H2 5852   1.741   1.004   0.003
 1883HOH      O 5853   0.800   3.988   0.813
 1883HOH     H1 5854   0.850   3.911   0.788
 1883HOH     H2 5855   0.859   4.062   0.798
 1884HOH      O 5856   0.196   1.022   0.539
 1884HOH     H1 5857   0.161   0.934   0.530
 1884HOH     H2 5858   0.136   1.066   0.600
 1885HOH      O 5859   2.618   2.557   0.161
 1885HOH     H1 5860   2.537   2.509   0.179
 1885HOH     H2 5861   2.629   2.551   0.066
 1886HOH      O 5862   3.176   0.553   0.603
 1886HOH     H1 5863   3.158   0.645   0.584
 1886HOH     H2 5864   3.271   0.549   0.608
 1887HOH      O 5865   2.462   2.279   0.634
 1887HOH     H1 5866   2.524   2.328   0.689
 1887HOH     H2 5867   2.486   2.188   0.646
 1888HOH      O 5868   3.166   1.836   0.437
 1888HOH     H1 5869   3.234   1.791   0.387
 1888HOH     H2 5870   3.209   1.916   0.469
 1889HOH      O 5871   3.312   1.632   1.052
 1889HOH     H1 5872   3.349   1.710   1.093
 1889HOH     H2 5873   3.266   1.587   1.123
 1890HOH      O 5874   3.080   3.200   1.757
 1890HOH     H1 5875   3.031   3.122   1.786
 1890HOH     H2 5876   3.166   3.166   1.732
 1891HOH      O 5877   1.174   2.560   3.496
 1891HOH     H1 5878   1.094   2.606   3.469
 1891HOH     H2 5879   1.180   2.576   3.590
 1892HOH      O 5880   2.615   3.061   2.614
 1892HOH     H1 5881   2.559   3.100   2.546
 1892HOH     H2 5882   2.704   3.087   2.590
 1893HOH      O 5883   3.422   0.971   3.779
 1893HOH     H1 5884   3.438   0.960   3.685
 1893HOH     H2 5885   3.504   1.006   3.813
 1894HOH      O 5886   3.569   3.201   3.829
 1894HOH     H1 5887   3.650   3.153   3.814
 1894HOH     H2 5888   3.574   3.231   3.920
 1895HOH      O 5889   0.440   3.781   0.971
 1895HOH     H1 5890   0.507   3.741   1.025
 1895HOH     H2 5891   0.410   3.711   0.913
 1896HOH      O 5892   1.496   0.885   2.196
 1896HOH     H1 5893   1.416   0.910   2.151
 1896HOH     H2 5894   1.565   0.930   2.148
 1897HOH      O 5895   0.998   2.147   2.019
 1897HOH     H1 5896   0.998   2.196   1.937
 1897HOH     H2 5897   1.090   2.127   2.035
 1898HOH      O 5898   2.786   2.604   2.562
 1898HOH     H1 5899   2.871   2.583   2.524
 1898HOH     H2 5900   2.803   2.678   2.620
 1899HOH      O 5901   3.528   1.768   0.738
 1899HOH     H1 5902   3.501   1.853   0.772
 1899HOH     H2 5903   3.519   1.776   0.643
 1900HOH      O 5904   2.255   2.099   3.485
 1900HOH     H1 5905   2.206   2.078   3.564
 1900HOH     H2 5906   2.195   2.154   3.434
 1901HOH      O 5907   3.063   2.405   0.790
 1901HOH     H1 5908   3.143   2.359   0.766
 1901HOH     H2 5909   3.030   2.439   0.707
 1902HOH      O 5910   3.543   0.969   3.544
 1902HOH     H1 5911   3.631   0.954   3.579
 1902HOH     H2 5912   3.538   0.914   3.466
 1903HOH      O 5913   2.527   0.580   4.018
 1903HOH     H1 5914   2.499   0.642   3.950
 1903HOH     H2 5915   2.531   0.495   3.973
 1904HOH      O 5916   0.606   0.200   0.489
 1904HOH     H1 5917   0.547   0.181   0.562
 1904HOH     H2 5918   0.585   0.133   0.423
 1905HOH      O 5919   2.038   2.165   0.599
 1905HOH     H1 5920   2.128   2.182   0.571
 1905HOH     H2 5921   2.011   2.244   0.645
 1906HOH      O 5922   3.760   2.397   3.788
 1906HOH     H1 5923   3.799   2.483   3.771
 1906HOH     H2 5924   3.830   2.346   3.829
 1907HOH      O 5925   0.503   1.360   1.760
 1907HOH     H1 5926   0.481   1.357   1.667
 1907HOH     H2 5927   0.585   1.409   1.764
 1908HOH      O 5928   2.684   1.921   2.233
 1908HOH     H1 5929   2.752   1.880   2.286
 1908HOH     H2 5930   2.669   2.006   2.274
 1909HOH      O 5931   1.225   2.042   2.457
 1909HOH     H1 5932   1.166   2.115   2.476
 1909HOH     H2 5933   1.282   2.073   2.387
 1910HOH      O 5934   0.032   2.260   1.755
 1910HOH     H1 5935  -0.033   2.327   1.732
 1910HOH     H2 5936   0.110   2.284   1.706
 1911HOH      O 5937   0.384   3.416   0.567
 1911HOH     H1 5938   0.443   3.476   0.521
 1911HOH     H2 5939   0.418   3.329   0.547
 1912HOH      O 5940   2.947   2.360   3.448
 1912HOH     H1 5941   2.992   2.405   3.377
 1912HOH     H2 5942   2.883   2.304   3.405
 1913HOH      O 5943   1.314   0.454   0.937
 1913HOH     H1 5944   1.395   0.428   0.982
 1913HOH     H2 5945   1.244   0.436   1.000
 1914HOH      O 5946   1.639   0.808   2.650
 1914HOH     H1 5947   1.595   0.746   2.708
 1914HOH     H2 5948   1.709   0.846   2.703
 1915HOH      O 5949   3.739   1.998   0.806
 1915HOH     H1 5950   3.728   1.968   0.716
 1915HOH     H2 5951   3.774   2.087   0.797
 1916HOH      O 5952   2.970   1.160   4.024
 1916HOH     H1 5953   2.930   1.241   4.055
 1916HOH     H2 5954   2.944   1.154   3.932
 1917HOH      O 5955   3.901   3.313   1.679
 1917HOH     H1 5956   3.850   3.234   1.694
 1917HOH     H2 5957   3.960   3.291   1.607
 1918HOH      O 5958   1.792   2.430   2.545
 1918HOH     H1 5959   1.840   2.386   2.615
 1918HOH     H2 5960   1.762   2.512   2.584
 1919HOH      O 5961   1.162   3.873   2.050
 1919HOH     H1 5962   1.139   3.959   2.085
 1919HOH     H2 5963   1.235   3.844   2.105
 1920HOH      O 5964   3.739   1.584   1.640
 1920HOH     H1 5965   3.741   1.520   1.570
 1920HOH     H2 5966   3.791   1.546   1.710
 1921HOH      O 5967   0.604   3.411   0.073
 1921HOH     H1 5968   0.633   3.321   0.091
 1921HOH     H2 5969   0.594   3.413  -0.022
 1922HOH      O 5970   1.321   1.837   3.475
 1922HOH     H1 5971   1.254   1.774   3.498
 1922HOH     H2 5972   1.363   1.859   3.558
 1923HOH      O 5973   2.192   3.192   3.596
 1923HOH     H1 5974   2.256   3.162   3.532
 1923HOH     H2 5975   2.195   3.287   3.591
 1924HOH      O 5976   1.020   0.810   1.831
 1924HOH     H1 5977   1.021   0.786   1.738
 1924HOH     H2 5978   0.987   0.900   1.832
 1925HOH      O 5979   0.999   0.960   0.364
 1925HOH     H1 5980   0.984   1.055   0.361
 1925HOH     H2 5981   1.035   0.944   0.451
 1926HOH      O 5982   0.119   1.261   1.555
 1926HOH     H1 5983   0.122   1.180   1.504
 1926HOH     H2 5984   0.031   1.263   1.593
 1927HOH      O 5985   3.688   2.390   1.002
 1927HOH     H1 5986   3.680   2.296   0.987
 1927HOH     H2 5987   3.651   2.405   1.089
 1928HOH      O 5988   2.256   1.429   0.855
 1928HOH     H1 5989   2.267   1.496   0.788
 1928HOH     H2 5990   2.337   1.433   0.907
 1929HOH      O 5991   2.260   2.173   1.719
 1929HOH     H1 5992   2.284   2.263   1.698
 1929HOH     H2 5993   2.167   2.177   1.737
 1930HOH      O 5994   3.561   3.048   2.308
 1930HOH     H1 5995   3.551   3.133   2.264
 1930HOH     H2 5996   3.596   3.069   2.394
 1931HOH      O 5997   2.857   3.097   2.457
 1931HOH     H1 5998   2.833   3.007   2.435
 1931HOH     H2 5999   2.820   3.149   2.386
 1932HOH      O 6000   1.251   1.947   0.202
 1932HOH     H1 6001   1.302   1.885   0.151
 1932HOH     H2 6002   1.174   1.966   0.148
 1933HOH      O 6003   0.706   2.487   1.869
 1933HOH     H1 6004   0.702   2.392   1.882
 1933HOH     H2 6005   0.628   2.507   1.817
 1934HOH      O 6006   1.140   3.024   1.758
 1934HOH     H1 6007   1.145   3.065   1.672
 1934HOH     H2 6008   1.221   2.974   1.766
 1935HOH      O 6009   3.670   1.347   3.820
 1935HOH     H1 6010   3.656   1.364   3.727
 1935HOH     H2 6011   3.649   1.430   3.864
 1936HOH      O 6012   2.416   2.209   1.461
 1936HOH     H1 6013   2.406   2.227   1.554
 1936HOH     H2 6014   2.327   2.206   1.427
 1937HOH      O 6015   3.632   2.674   3.930
 1937HOH     H1 6016   3.539   2.695   3.926
 1937HOH     H2 6017   3.639   2.604   3.995
 1938HOH      O 6018   0.336   1.883   0.668
 1938HOH     H1 6019   0.346   1.857   0.759
 1938HOH     H2 6020   0.241   1.886   0.655
 1939HOH      O 6021   0.067   1.342   0.101
 1939HOH     H1 6022   0.031   1.378   0.182
 1939HOH     H2 6023   0.134   1.281   0.131
 1940HOH      O 6024   1.749   3.440   0.516
 1940HOH     H1 6025   1.803   3.518   0.504
 1940HOH     H2 6026   1.761   3.390   0.436
 1941HOH      O 6027   3.019   3.799   1.855
 1941HOH     H1 6028   2.943   3.758   1.813
 1941HOH     H2 6029   3.069   3.836   1.782
 1942HOH      O 6030   2.104   1.427   1.942
 1942HOH     H1 6031   2.142   1.460   2.023
 1942HOH     H2 6032   2.165   1.360   1.912
 1943HOH      O 6033   0.635   3.617   1.750
 1943HOH     H1 6034   0.598   3.705   1.762
 1943HOH     H2 6035   0.559   3.561   1.739
 1944HOH      O 6036   3.810   1.388   3.015
 1944HOH     H1 6037   3.773   1.311   2.972
 1944HOH     H2 6038   3.865   1.429   2.949
 1945HOH      O 6039   1.031   0.813   3.289
 1945HOH     H1 6040   0.987   0.843   3.369
 1945HOH     H2 6041   1.065   0.726   3.312
 1946HOH      O 6042   0.951   0.804   0.838
 1946HOH     H1 6043   0.878   0.832   0.893
 1946HOH     H2 6044   1.014   0.765   0.898
 1947HOH      O 6045   0.894   0.559   3.429
 1947HOH     H1 6046   0.886   0.482   3.374
 1947HOH     H2 6047   0.818   0.613   3.406
 1948HOH      O 6048   0.560   1.004   1.160
 1948HOH     H1 6049   0.478   0.956   1.174
 1948HOH     H2 6050   0.591   1.024   1.249
 1949HOH      O 6051   0.529   3.942   1.457
 1949HOH     H1 6052   0.612   3.894   1.459
 1949HOH     H2 6053   0.534   4.002   1.531
 1950HOH      O 6054   1.702   1.666   3.771
 1950HOH     H1 6055   1.777   1.615   3.801
 1950HOH     H2 6056   1.656   1.690   3.852
 1951HOH      O 6057   3.774   0.319   1.162
 1951HOH     H1 6058   3.791   0.406   1.199
 1951HOH     H2 6059   3.682   0.302   1.182
 1952HOH      O 6060   3.707   3.327   2.082
 1952HOH     H1 6061   3.650   3.328   2.158
 1952HOH     H2 6062   3.756   3.409   2.087
 1953HOH      O 6063   1.440   1.693   2.587
 1953HOH     H1 6064   1.461   1.607   2.552
 1953HOH     H2 6065   1.358   1.717   2.543
 1954HOH      O 6066   0.098   0.347   0.065
 1954HOH     H1 6067   0.055   0.387  -0.011
 1954HOH     H2 6068   0.145   0.272   0.029
 1955HOH      O 6069   0.818   3.917   3.798
 1955HOH     H1 6070   0.794   3.949   3.885
 1955HOH     H2 6071   0.744   3.941   3.742
 1956HOH      O 6072   3.526   3.809   1.044
 1956HOH     H1 6073   3.456   3.800   0.979
 1956HOH     H2 6074   3.583   3.877   1.008
 1957HOH      O 6075   0.864   0.163   0.287
 1957HOH     H1 6076   0.942   0.217   0.269
 1957HOH     H2 6077   0.791   0.217   0.257
 1958HOH      O 6078   1.227   0.209   1.236
 1958HOH     H1 6079   1.322   0.203   1.230
 1958HOH     H2 6080   1.196   0.121   1.216
 1959HOH      O 6081   1.870   1.984   3.280
 1959HOH     H1 6082   1.793   1.985   3.337
 1959HOH     H2 6083   1.845   2.039   3.206
 1960HOH      O 6084   0.956   3.183   2.286
 1960HOH     H1 6085   0.959   3.148   2.375
 1960HOH     H2 6086   0.867   3.162   2.256
 1961HOH      O 6087   3.092   0.951   2.489
 1961HOH     H1 6088   3.134   1.009   2.553
 1961HOH     H2 6089   3.129   0.864   2.508
 1962HOH      O 6090   0.575   0.848   1.636
 1962HOH     H1 6091   0.499   0.902   1.615
 1962HOH     H2 6092   0.583   0.856   1.731
 1963HOH      O 6093   3.359   3.058   3.710
 1963HOH     H1 6094   3.420   3.119   3.752
 1963HOH     H2 6095   3.309   3.112   3.650
 1964HOH      O 6096   2.893   0.040   1.730
 1964HOH     H1 6097   2.905   0.006   1.819
 1964HOH     H2 6098   2.804   0.015   1.707
 1965HOH      O 6099   0.293   1.310   0.224
 1965HOH     H1 6100   0.383   1.327   0.197
 1965HOH     H2 6101   0.292   1.328   0.318
 1966HOH      O 6102   0.568   3.531   3.118
 1966HOH     H1 6103   0.595   3.615   3.081
 1966HOH     H2 6104   0.599   3.533   3.208
 1967HOH      O 6105   2.087   2.009   3.675
 1967HOH     H1 6106   2.036   1.997   3.755
 1967HOH     H2 6107   2.057   1.939   3.617
 1968HOH      O 6108   0.755   2.117   0.180
 1968HOH     H1 6109   0.691   2.155   0.240
 1968HOH     H2 6110   0.702   2.064   0.120
 1969HOH      O 6111   1.227   3.476   2.568
 1969HOH     H1 6112   1.177   3.453   2.490
 1969HOH     H2 6113   1.307   3.515   2.534
 1970HOH      O 6114   0.559   1.812   3.503
 1970HOH     H1 6115   0.556   1.736   3.445
 1970HOH     H2 6116   0.651   1.838   3.504
 1971HOH      O 6117   2.320   1.887   1.910
 1971HOH     H1 6118   2.407   1.894   1.871
 1971HOH     H2 6119   2.265   1.945   1.858
 1972HOH      O 6120   1.175   0.828   0.194
 1972HOH     H1 6121   1.099   0.854   0.246
 1972HOH     H2 6122   1.171   0.882   0.116
 1973HOH      O 6123   3.506   0.603   3.301
 1973HOH     H1 6124   3.554   0.659   3.240
 1973HOH     H2 6125   3.433   0.657   3.331
 1974HOH      O 6126   2.074   0.965   3.059
 1974HOH     H1 6127   2.026   1.043   3.086
 1974HOH     H2 6128   2.091   0.980   2.965
 1975HOH      O 6129   0.708   0.363   0.195
 1975HOH     H1 6130   0.742   0.428   0.133
 1975HOH     H2 6131   0.613   0.371   0.188
 1976HOH      O 6132   0.571   1.959   0.041
 1976HOH     H1 6133   0.522   1.947   0.122
 1976HOH     H2 6134   0.507   1.940  -0.028
 1977HOH      O 6135   0.445   1.546   3.102
 1977HOH     H1 6136   0.526   1.518   3.060
 1977HOH     H2 6137   0.469   1.624   3.151
 1978HOH      O 6138   1.057   2.529   2.726
 1978HOH     H1 6139   1.066   2.492   2.638
 1978HOH     H2 6140   0.992   2.599   2.716
 1979HOH      O 6141   2.596   2.362   0.861
 1979HOH     H1 6142   2.553   2.364   0.947
 1979HOH     H2 6143   2.643   2.278   0.860
 1980HOH      O 6144   3.876   3.244   2.896
 1980HOH     H1 6145   3.910   3.196   2.821
 1980HOH     H2 6146   3.795   3.285   2.864
 1981HOH      O 6147   2.919   0.222   3.851
 1981HOH     H1 6148   2.952   0.132   3.855
 1981HOH     H2 6149   2.904   0.239   3.758
 1982HOH      O 6150   1.202   3.045   1.384
 1982HOH     H1 6151   1.215   2.969   1.327
 1982HOH     H2 6152   1.107   3.053   1.391
 1983HOH      O 6153   3.629   1.968   3.471
 1983HOH     H1 6154   3.626   1.990   3.378
 1983HOH     H2 6155   3.702   1.906   3.479
 1984HOH      O 6156   2.632   3.181   3.813
 1984HOH     H1 6157   2.707   3.182   3.873
 1984HOH     H2 6158   2.565   3.130   3.859
 1985HOH      O 6159   1.283   2.760   1.746
 1985HOH     H1 6160   1.306   2.761   1.653
 1985HOH     H2 6161   1.363   2.730   1.790
 1986HOH      O 6162   1.475   3.427   3.990
 1986HOH     H1 6163   1.410   3.449   3.924
 1986HOH     H2 6164   1.436   3.455   4.073
 1987HOH      O 6165   0.636   2.772   1.939
 1987HOH     H1 6166   0.631   2.677   1.927
 1987HOH     H2 6167   0.697   2.784   2.011
 1988HOH      O 6168   2.014   2.319   0.183
 1988HOH     H1 6169   2.012   2.328   0.088
 1988HOH     H2 6170   2.034   2.226   0.198
 1989HOH      O 6171   1.687   1.686   1.423
 1989HOH     H1 6172   1.613   1.728   1.465
 1989HOH     H2 6173   1.763   1.713   1.475
 1990HOH      O 6174   1.100   1.206   0.946
 1990HOH     H1 6175   1.176   1.166   0.905
 1990HOH     H2 6176   1.136   1.254   1.021
 1991HOH      O 6177   1.008   1.255   3.337
 1991HOH     H1 6178   1.034   1.185   3.278
 1991HOH     H2 6179   1.015   1.335   3.285
 1992HOH      O 6180   0.724   1.140   1.818
 1992HOH     H1 6181   0.817   1.142   1.838
 1992HOH     H2 6182   0.696   1.232   1.824
 1993HOH      O 6183   0.623   1.727   1.149
 1993HOH     H1 6184   0.616   1.652   1.089
 1993HOH     H2 6185   0.717   1.742   1.158
 1994HOH      O 6186   3.907   3.125   0.606
 1994HOH     H1 6187   3.859   3.051   0.569
 1994HOH     H2 6188   3.846   3.165   0.668
 1995HOH      O 6189   1.959   2.012   2.894
 1995HOH     H1 6190   1.910   2.054   2.824
 1995HOH     H2 6191   1.905   1.937   2.919
 1996HOH      O 6192   0.958   3.769   2.662
 1996HOH     H1 6193   0.920   3.681   2.656
 1996HOH     H2 6194   0.977   3.780   2.755
 1997HOH      O 6195   3.178   3.706   1.403
 1997HOH     H1 6196   3.100   3.724   1.457
 1997HOH     H2 6197   3.190   3.612   1.410
 1998HOH      O 6198   0.121   0.973   3.821
 1998HOH     H1 6199   0.146   0.881   3.831
 1998HOH     H2 6200   0.034   0.979   3.861
 1999HOH      O 6201   3.194   0.512   1.694
 1999HOH     H1 6202   3.279   0.482   1.661
 1999HOH     H2 6203   3.181   0.464   1.775
 2000HOH      O 6204   0.180   1.764   3.377
 2000HOH     H1 6205   0.189   1.800   3.289
 2000HOH     H2 6206   0.239   1.689   3.379
 2001HOH      O 6207   3.948   2.086   3.578
 2001HOH     H1 6208   3.983   2.175   3.578
 2001HOH     H2 6209   3.871   2.090   3.522
 2002HOH      O 6210   3.131   2.484   3.270
 2002HOH     H1 6211   3.156   2.564   3.316
 2002HOH     H2 6212   3.214   2.437   3.258
 2003HOH      O 6213   2.780   1.968   3.230
 2003HOH     H1 6214   2.770   2.039   3.166
 2003HOH     H2 6215   2.698   1.970   3.280
 2004HOH      O 6216   2.913   3.021   1.909
 2004HOH     H1 6217   2.954   2.935   1.908
 2004HOH     H2 6218   2.819   3.003   1.896
 2005HOH      O 6219   2.601   1.616   3.361
 2005HOH     H1 6220   2.535   1.634   3.294
 2005HOH     H2 6221   2.601   1.694   3.416
 2006HOH      O 6222   1.535   2.902   0.351
 2006HOH     H1 6223   1.473   2.858   0.292
 2006HOH     H2 6224   1.621   2.884   0.314
 2007HOH      O 6225   2.047   2.727   0.671
 2007HOH     H1 6226   2.114   2.665   0.701
 2007HOH     H2 6227   1.971   2.708   0.726
 2008HOH      O 6228   3.707   2.138   1.287
 2008HOH     H1 6229   3.687   2.174   1.373
 2008HOH     H2 6230   3.709   2.043   1.300
 2009HOH      O 6231   3.418   3.108   0.937
 2009HOH     H1 6232   3.395   3.015   0.940
 2009HOH     H2 6233   3.343   3.150   0.896
 2010HOH      O 6234   3.414   1.866   1.154
 2010HOH     H1 6235   3.487   1.825   1.201
 2010HOH     H2 6236   3.382   1.934   1.213
 2011HOH      O 6237   2.080   1.908   2.319
 2011HOH     H1 6238   1.989   1.880   2.321
 2011HOH     H2 6239   2.116   1.864   2.241
 2012HOH      O 6240   1.232   1.006   4.020
 2012HOH     H1 6241   1.139   1.018   3.998
 2012HOH     H2 6242   1.279   1.046   3.947
 2013HOH      O 6243   0.796   3.603   2.467
 2013HOH     H1 6244   0.772   3.553   2.390
 2013HOH     H2 6245   0.811   3.692   2.435
 2014HOH      O 6246   1.264   3.805   1.491
 2014HOH     H1 6247   1.233   3.716   1.501
 2014HOH     H2 6248   1.236   3.850   1.571
 2015HOH      O 6249   3.326   3.039   3.181
 2015HOH     H1 6250   3.396   3.066   3.122
 2015HOH     H2 6251   3.370   3.019   3.264
 2016HOH      O 6252   0.978   2.091   1.520
 2016HOH     H1 6253   0.910   2.154   1.544
 2016HOH     H2 6254   1.054   2.144   1.499
 2017HOH      O 6255   3.466   2.286   1.175
 2017HOH     H1 6256   3.484   2.225   1.103
 2017HOH     H2 6257   3.457   2.230   1.252
 2018HOH      O 6258   1.853   1.666   1.027
 2018HOH     H1 6259   1.770   1.619   1.023
 2018HOH     H2 6260   1.838   1.735   1.092
 2019HOH      O 6261   3.464   2.415   2.000
 2019HOH     H1 6262   3.481   2.434   2.093
 2019HOH     H2 6263   3.369   2.409   1.994
 2020HOH      O 6264   1.851   2.286   1.187
 2020HOH     H1 6265   1.802   2.267   1.267
 2020HOH     H2 6266   1.872   2.380   1.194
 2021HOH      O 6267   1.997   0.301   1.413
 2021HOH     H1 6268   2.070   0.363   1.411
 2021HOH     H2 6269   2.039   0.215   1.415
 2022HOH      O 6270   2.334   3.451   2.835
 2022HOH     H1 6271   2.273   3.496   2.777
 2022HOH     H2 6272   2.289   3.370   2.859
 2023HOH      O 6273   3.124   0.043   1.201
 2023HOH     H1 6274   3.140  -0.051   1.206
 2023HOH     H2 6275   3.032   0.051   1.176
 2024HOH      O 6276   2.302   1.815   0.386
 2024HOH     H1 6277   2.338   1.849   0.468
 2024HOH     H2 6278   2.212   1.847   0.385
 2025HOH      O 6279   2.970   2.489   0.510
 2025HOH     H1 6280   2.963   2.395   0.527
 2025HOH     H2 6281   2.950   2.497   0.417
 2026HOH      O 6282   2.602   2.858   0.655
 2026HOH     H1 6283   2.523   2.901   0.622
 2026HOH     H2 6284   2.661   2.855   0.580
 2027HOH      O 6285   1.012   1.137   3.687
 2027HOH     H1 6286   1.022   1.072   3.756
 2027HOH     H2 6287   1.066   1.103   3.615
 2028HOH      O 6288   0.777   2.929   1.606
 2028HOH     H1 6289   0.685   2.950   1.624
 2028HOH     H2 6290   0.818   2.927   1.693
 2029HOH      O 6291   2.389   3.400   0.698
 2029HOH     H1 6292   2.305   3.359   0.678
 2029HOH     H2 6293   2.366   3.489   0.725
 2030HOH      O 6294   0.158   1.928   1.480
 2030HOH     H1 6295   0.137   1.908   1.389
 2030HOH     H2 6296   0.238   1.878   1.497
 2031HOH      O 6297   2.521   3.615   1.257
 2031HOH     H1 6298   2.481   3.528   1.260
 2031HOH     H2 6299   2.581   3.611   1.182
 2032HOH      O 6300   3.329   3.261   2.464
 2032HOH     H1 6301   3.301   3.199   2.398
 2032HOH     H2 6302   3.359   3.207   2.537
 2033HOH      O 6303   1.780   0.911   3.055
 2033HOH     H1 6304   1.716   0.972   3.093
 2033HOH     H2 6305   1.831   0.880   3.130
 2034HOH      O 6306   2.208   1.572   1.319
 2034HOH     H1 6307   2.267   1.503   1.350
 2034HOH     H2 6308   2.234   1.650   1.368
 2035HOH      O 6309   0.822   2.878   0.904
 2035HOH     H1 6310   0.871   2.954   0.873
 2035HOH     H2 6311   0.840   2.810   0.839
 2036HOH      O 6312   2.592   0.280   0.081
 2036HOH     H1 6313   2.675   0.305   0.121
 2036HOH     H2 6314   2.596   0.185   0.076
 2037HOH      O 6315   3.863   0.215   3.271
 2037HOH     H1 6316   3.916   0.145   3.310
 2037HOH     H2 6317   3.819   0.256   3.345
 2038HOH      O 6318   3.656   3.581   0.950
 2038HOH     H1 6319   3.613   3.657   0.988
 2038HOH     H2 6320   3.595   3.549   0.883
 2039HOH      O 6321   0.613   2.568   0.207
 2039HOH     H1 6322   0.569   2.600   0.287
 2039HOH     H2 6323   0.567   2.487   0.185
 2040HOH      O 6324   3.153   2.418   1.810
 2040HOH     H1 6325   3.207   2.372   1.746
 2040HOH     H2 6326   3.126   2.351   1.872
 2041HOH      O 6327   1.345   3.773   2.654
 2041HOH     H1 6328   1.387   3.857   2.675
 2041HOH     H2 6329   1.298   3.790   2.572
 2042HOH      O 6330   2.944   3.804   3.154
 2042HOH     H1 6331   3.032   3.843   3.163
 2042HOH     H2 6332   2.921   3.818   3.063
 2043HOH      O 6333   1.220   2.436   1.110
 2043HOH     H1 6334   1.144   2.494   1.121
 2043HOH     H2 6335   1.293   2.496   1.092
 2044HOH      O 6336   3.531   1.932   2.700
 2044HOH     H1 6337   3.600   1.906   2.760
 2044HOH     H2 6338   3.570   2.002   2.647
 2045HOH      O 6339   4.010   3.325   3.348
 2045HOH     H1 6340   4.055   3.351   3.428
 2045HOH     H2 6341   3.935   3.274   3.378
 2046HOH      O 6342   1.243   3.514   1.435
 2046HOH     H1 6343   1.337   3.517   1.420
 2046HOH     H2 6344   1.234   3.491   1.528
 2047HOH      O 6345   1.741   3.563   0.814
 2047HOH     H1 6346   1.727   3.472   0.790
 2047HOH     H2 6347   1.812   3.561   0.878
 2048HOH      O 6348   1.109   2.524   2.464
 2048HOH     H1 6349   1.131   2.609   2.424
 2048HOH     H2 6350   1.030   2.496   2.419
 2049HOH      O 6351   1.798   2.345   1.658
 2049HOH     H1 6352   1.728   2.398   1.620
 2049HOH     H2 6353   1.875   2.363   1.604
 2050HOH      O 6354   3.327   0.805   3.376
 2050HOH     H1 6355   3.261   0.836   3.315
 2050HOH     H2 6356   3.296   0.835   3.462
 2051HOH      O 6357   2.628   1.085   0.468
 2051HOH     H1 6358   2.547   1.130   0.490
 2051HOH     H2 6359   2.621   1.066   0.374
 2052HOH      O 6360   0.667   1.531   3.551
 2052HOH     H1 6361   0.643   1.572   3.468
 2052HOH     H2 6362   0.725   1.459   3.526
 2053HOH      O 6363   2.991   0.754   1.939
 2053HOH     H1 6364   2.938   0.826   1.973
 2053HOH     H2 6365   3.075   0.794   1.916
 2054HOH      O 6366   2.200   3.035   2.706
 2054HOH     H1 6367   2.266   3.060   2.642
 2054HOH     H2 6368   2.175   2.946   2.681
 2055HOH      O 6369   2.793   0.889   2.177
 2055HOH     H1 6370   2.848   0.960   2.144
 2055HOH     H2 6371   2.834   0.861   2.258
 2056HOH      O 6372   0.406   3.387   1.000
 2056HOH     H1 6373   0.347   3.412   1.072
 2056HOH     H2 6374   0.377   3.442   0.926
 2057HOH      O 6375   3.686   1.081   3.852
 2057HOH     H1 6376   3.735   1.044   3.778
 2057HOH     H2 6377   3.687   1.175   3.836
 2058HOH      O 6378   0.811   2.220   2.202
 2058HOH     H1 6379   0.872   2.197   2.132
 2058HOH     H2 6380   0.731   2.172   2.180
 2059HOH      O 6381   1.867   1.730   2.330
 2059HOH     H1 6382   1.940   1.669   2.342
 2059HOH     H2 6383   1.845   1.723   2.237
 2060HOH      O 6384   2.741   4.005   1.992
 2060HOH     H1 6385   2.694   4.016   2.075
 2060HOH     H2 6386   2.733   4.089   1.948
 2061HOH      O 6387   1.694   0.493   0.690
 2061HOH     H1 6388   1.614   0.509   0.739
 2061HOH     H2 6389   1.717   0.579   0.654
 2062HOH      O 6390   3.290   2.545   1.480
 2062HOH     H1 6391   3.319   2.484   1.548
 2062HOH     H2 6392   3.210   2.506   1.445
 2063HOH      O 6393   0.399   0.283   1.352
 2063HOH     H1 6394   0.307   0.275   1.327
 2063HOH     H2 6395   0.440   0.205   1.317
 2064HOH      O 6396   0.513   0.621   1.023
 2064HOH     H1 6397   0.554   0.538   1.049
 2064HOH     H2 6398   0.473   0.653   1.104
 2065HOH      O 6399   2.271   0.745   1.280
 2065HOH     H1 6400   2.249   0.743   1.187
 2065HOH     H2 6401   2.187   0.760   1.324
 2066HOH      O 6402   2.686   1.909   0.304
 2066HOH     H1 6403   2.668   1.884   0.395
 2066HOH     H2 6404   2.775   1.877   0.288
 2067HOH      O 6405   1.314   1.416   3.719
 2067HOH     H1 6406   1.263   1.485   3.760
 2067HOH     H2 6407   1.317   1.441   3.626
 2068HOH      O 6408   0.575   3.934   2.861
 2068HOH     H1 6409   0.576   4.007   2.922
 2068HOH     H2 6410   0.629   3.963   2.788
 2069HOH      O 6411   0.859   0.314   3.883
 2069HOH     H1 6412   0.834   0.315   3.790
 2069HOH     H2 6413   0.783   0.276   3.928
 2070HOH      O 6414   1.115   3.702   1.851
 2070HOH     H1 6415   1.023   3.685   1.874
 2070HOH     H2 6416   1.144   3.766   1.916
 2071HOH      O 6417   1.488   1.863   3.696
 2071HOH     H1 6418   1.453   1.886   3.783
 2071HOH     H2 6419   1.574   1.825   3.714
 2072HOH      O 6420   2.217   0.705   1.016
 2072HOH     H1 6421   2.176   0.784   0.981
 2072HOH     H2 6422   2.250   0.659   0.939
 2073HOH      O 6423   2.555   2.597   2.229
 2073HOH     H1 6424   2.544   2.691   2.243
 2073HOH     H2 6425   2.514   2.557   2.306
 2074HOH      O 6426   3.314   3.182   0.142
 2074HOH     H1 6427   3.318   3.273   0.114
 2074HOH     H2 6428   3.397   3.166   0.187
 2075HOH      O 6429   0.165   1.382   2.514
 2075HOH     H1 6430   0.123   1.302   2.481
 2075HOH     H2 6431   0.121   1.453   2.467
 2076HOH      O 6432   1.635   0.652   3.044
 2076HOH     H1 6433   1.692   0.621   3.115
 2076HOH     H2 6434   1.679   0.729   3.010
 2077HOH      O 6435   2.559   0.510   0.248
 2077HOH     H1 6436   2.588   0.421   0.230
 2077HOH     H2 6437   2.527   0.542   0.164
 2078HOH      O 6438   3.575   3.719   1.621
 2078HOH     H1 6439   3.496   3.767   1.646
 2078HOH     H2 6440   3.634   3.728   1.696
 2079HOH      O 6441   0.477   3.248   1.353
 2079HOH     H1 6442   0.442   3.159   1.358
 2079HOH     H2 6443   0.495   3.271   1.444
 2080HOH      O 6444   2.927   1.812   0.257
 2080HOH     H1 6445   2.964   1.835   0.343
 2080HOH     H2 6446   2.994   1.839   0.194
 2081HOH      O 6447   0.241   1.022   0.864
 2081HOH     H1 6448   0.320   0.969   0.876
 2081HOH     H2 6449   0.183   0.966   0.812
 2082HOH      O 6450   1.323   2.357   2.581
 2082HOH     H1 6451   1.270   2.324   2.653
 2082HOH     H2 6452   1.259   2.390   2.517
 2083HOH      O 6453   4.000   0.436   1.555
 2083HOH     H1 6454   3.981   0.344   1.576
 2083HOH     H2 6455   4.095   0.441   1.551
 2084HOH      O 6456   3.494   2.468   1.706
 2084HOH     H1 6457   3.529   2.557   1.704
 2084HOH     H2 6458   3.474   2.452   1.798
 2085HOH      O 6459   1.717   1.197   2.790
 2085HOH     H1 6460   1.719   1.108   2.825
 2085HOH     H2 6461   1.807   1.215   2.764
 2086HOH      O 6462   2.486   1.409   1.917
 2086HOH     H1 6463   2.453   1.326   1.882
 2086HOH     H2 6464   2.420   1.473   1.892
 2087HOH      O 6465   3.121   0.768   1.236
 2087HOH     H1 6466   3.161   0.704   1.176
 2087HOH     H2 6467   3.153   0.742   1.322
 2088HOH      O 6468   1.220   0.996   2.075
 2088HOH     H1 6469   1.241   1.003   1.982
 2088HOH     H2 6470   1.144   1.052   2.087
 2089HOH      O 6471   3.300   2.265   0.798
 2089HOH     H1 6472   3.375   2.253   0.740
 2089HOH     H2 6473   3.283   2.177   0.833
 2090HOH      O 6474   0.891   1.159   0.667
 2090HOH     H1 6475   0.855   1.117   0.745
 2090HOH     H2 6476   0.973   1.112   0.651
 2091HOH      O 6477   2.813   2.193   3.986
 2091HOH     H1 6478   2.745   2.247   4.026
 2091HOH     H2 6479   2.780   2.176   3.898
 2092HOH      O 6480   0.146   2.021   3.491
 2092HOH     H1 6481   0.153   1.932   3.456
 2092HOH     H2 6482   0.063   2.022   3.539
 2093HOH      O 6483   2.813   2.917   0.012
 2093HOH     H1 6484   2.783   2.952   0.095
 2093HOH     H2 6485   2.908   2.905   0.023
 2094HOH      O 6486   2.971   1.068   2.009
 2094HOH     H1 6487   2.915   1.110   1.944
 2094HOH     H2 6488   2.990   1.137   2.073
 2095HOH      O 6489   0.446   2.305   2.188
 2095HOH     H1 6490   0.418   2.325   2.099
 2095HOH     H2 6491   0.494   2.222   2.181
 2096HOH      O 6492   0.378   1.006   3.562
 2096HOH     H1 6493   0.309   0.943   3.583
 2096HOH     H2 6494   0.339   1.091   3.583
 2097HOH      O 6495   3.949   2.880   2.954
 2097HOH     H1 6496   3.950   2.816   2.882
 2097HOH     H2 6497   3.859   2.914   2.954
 2098HOH      O 6498   0.698   3.004   0.338
 2098HOH     H1 6499   0.620   2.949   0.347
 2098HOH     H2 6500   0.731   3.015   0.427
 2099HOH      O 6501   2.824   1.247   2.523
 2099HOH     H1 6502   2.791   1.205   2.443
 2099HOH     H2 6503   2.747   1.288   2.562
 2100HOH      O 6504   2.888   1.783   3.502
 2100HOH     H1 6505   2.960   1.839   3.473
 2100HOH     H2 6506   2.823   1.790   3.432
 2101HOH      O 6507   3.580   3.444   3.951
 2101HOH     H1 6508   3.543   3.435   3.864
 2101HOH     H2 6509   3.507   3.472   4.006
 2102HOH      O 6510   2.329   3.634   4.040
 2102HOH     H1 6511   2.411   3.590   4.020
 2102HOH     H2 6512   2.264   3.591   3.985
 2103HOH      O 6513   1.093   3.417   2.329
 2103HOH     H1 6514   1.048   3.339   2.295
 2103HOH     H2 6515   1.169   3.427   2.272
 2104HOH      O 6516   1.646   2.204   3.534
 2104HOH     H1 6517   1.718   2.245   3.581
 2104HOH     H2 6518   1.604   2.276   3.487
 2105HOH      O 6519   2.162   0.034   2.214
 2105HOH     H1 6520   2.097   0.070   2.274
 2105HOH     H2 6521   2.196  -0.044   2.258
 2106HOH      O 6522   1.236   1.785   2.427
 2106HOH     H1 6523   1.152   1.763   2.387
 2106HOH     H2 6524   1.232   1.880   2.440
 2107HOH      O 6525   0.968   3.554   3.101
 2107HOH     H1 6526   1.049   3.510   3.124
 2107HOH     H2 6527   0.949   3.524   3.011
 2108HOH      O 6528   3.572   1.730   3.104
 2108HOH     H1 6529   3.576   1.701   3.195
 2108HOH     H2 6530   3.539   1.654   3.056
 2109HOH      O 6531   0.908   0.298   3.337
 2109HOH     H1 6532   0.990   0.340   3.311
 2109HOH     H2 6533   0.907   0.216   3.288
   4.04076   4.04076   4.04076   0.00000   0.00000   0.00000   0.00000   0.00000   0.00000
