Generated with MDTraj, t= 31397.0
 6533
    1MOL     C1    1   2.087   3.705   2.941
    1MOL     C2    2   2.121   3.836   2.914
    1MOL     C3    3   2.169   3.918   3.020
    1MOL     C4    4   2.183   3.869   3.151
    1MOL     C5    5   2.134   3.744   3.177
    1MOL     C6    6   2.084   3.659   3.074
    1MOL     C7    7   2.217   3.960   3.272
    1MOL     C8    8   2.188   4.108   3.253
    1MOL     N1    9   2.216   4.196   3.376
    1MOL     C9   10   2.116   4.159   3.485
    1MOL    C10   11   2.174   4.331   3.332
    1MOL    C11   12   2.354   4.194   3.428
    1MOL     H1   13   2.133   4.063   3.533
    1MOL     H2   14   2.022   4.145   3.431
    1MOL     H3   15   2.101   4.243   3.553
    1MOL     H4   16   2.073   4.331   3.289
    1MOL     H5   17   2.245   4.377   3.263
    1MOL     H6   18   2.178   4.397   3.419
    1MOL     H7   19   2.389   4.093   3.447
    1MOL     H8   20   2.369   4.259   3.515
    1MOL     H9   21   2.414   4.232   3.345
    1MOL    H10   22   2.068   3.636   2.859
    1MOL    H11   23   2.121   3.875   2.813
    1MOL    H12   24   2.198   4.021   2.998
    1MOL    H13   25   2.132   3.704   3.278
    1MOL    H14   26   2.052   3.559   3.103
    1MOL    H15   27   2.170   3.930   3.366
    1MOL    H16   28   2.322   3.943   3.295
    1MOL    H17   29   2.259   4.143   3.177
    1MOL    H18   30   2.081   4.121   3.236
    2OCB     C1   31   1.503   3.398   1.729
    2OCB     C2   32   1.781   3.439   1.733
    2OCB     C3   33   1.595   3.299   1.680
    2OCB     C4   34   1.559   3.510   1.787
    2OCB     C5   35   1.694   3.532   1.785
    2OCB     C6   36   1.731   3.320   1.676
    2OCB     O1   37   1.915   3.466   1.743
    2OCB     C7   38   1.836   3.225   1.623
    2OCB     C8   39   1.970   3.404   1.868
    2OCB     O2   40   2.045   3.286   1.820
    2OCB     C9   41   1.982   3.171   1.830
    2OCB    C10   42   1.877   3.131   1.743
    2OCB    C11   43   1.811   3.014   1.766
    2OCB    C12   44   2.017   3.083   1.936
    2OCB    C13   45   1.844   2.925   1.873
    2OCB    C14   46   1.945   2.963   1.958
    2OCB     O3   47   1.983   2.892   2.062
    2OCB    C15   48   1.772   2.792   1.891
    2OCB    C16   49   1.658   2.809   1.991
    2OCB    C17   50   1.678   2.790   2.133
    2OCB    C18   51   1.889   2.888   2.171
    2OCB     O4   52   1.809   2.769   2.182
    2OCB     O5   53   1.488   3.591   1.867
    2OCB    C19   54   1.359   3.357   1.742
    2OCB    C20   55   1.330   3.282   1.873
    2OCB     O6   56   1.312   3.485   1.989
    2OCB    C21   57   1.297   3.349   1.988
    2OCB    C22   58   1.577   2.806   2.225
    2OCB    C23   59   1.453   2.849   2.182
    2OCB    C24   60   1.274   3.282   2.104
    2OCB    C25   61   1.266   3.145   2.106
    2OCB     O7   62   1.363   2.890   2.280
    2OCB     O8   63   1.246   3.096   2.235
    2OCB    C26   64   1.366   3.040   2.303
    2OCB    C27   65   1.320   3.141   1.876
    2OCB    C28   66   1.286   3.073   1.994
    2OCB    C29   67   1.530   2.854   1.952
    2OCB    C30   68   1.284   2.921   2.004
    2OCB    C31   69   1.425   2.868   2.043
    2OCB    C32   70   1.446   3.550   1.998
    2OCB    C33   71   1.734   2.723   1.759
    2OCB    C34   72   1.667   2.578   1.797
    2OCB    C35   73   1.748   2.488   1.887
    2OCB     O9   74   1.695   2.433   1.982
    2OCB    C36   75   1.795   3.155   1.491
    2OCB    C37   76   1.784   3.250   1.368
    2OCB    C38   77   1.749   3.182   1.239
    2OCB    O10   78   1.844   3.124   1.178
    2OCB    C39   79   1.294   3.293   1.616
    2OCB    C40   80   1.322   3.392   1.499
    2OCB    C41   81   1.231   3.351   1.382
    2OCB    O11   82   1.288   3.334   1.271
    2OCB    C42   83   1.225   2.854   1.877
    2OCB    C43   84   1.181   2.708   1.912
    2OCB    C44   85   1.115   2.642   1.800
    2OCB    O12   86   0.992   2.653   1.787
    2OCB    C45   87   2.061   3.497   1.945
    2OCB    C46   88   2.219   3.665   2.096
    2OCB    C47   89   2.171   3.448   2.013
    2OCB    C48   90   2.025   3.631   1.965
    2OCB    C49   91   2.110   3.719   2.033
    2OCB    C50   92   2.245   3.528   2.096
    2OCB    C51   93   1.459   3.672   2.097
    2OCB    C52   94   1.460   3.892   2.269
    2OCB    C53   95   1.374   3.678   2.211
    2OCB    C54   96   1.539   3.783   2.074
    2OCB    C55   97   1.540   3.890   2.163
    2OCB    C56   98   1.373   3.789   2.292
    2OCB    C57   99   1.362   3.084   2.449
    2OCB    C58  100   1.393   3.182   2.712
    2OCB    C59  101   1.437   3.010   2.544
    2OCB    C60  102   1.310   3.206   2.492
    2OCB    C61  103   1.323   3.253   2.621
    2OCB    C62  104   1.448   3.053   2.678
    2OCB    C63  105   1.964   2.896   2.302
    2OCB    C64  106   2.094   2.943   2.544
    2OCB    C65  107   1.926   2.820   2.422
    2OCB    C66  108   2.062   2.997   2.316
    2OCB    C67  109   2.129   3.017   2.436
    2OCB    C68  110   1.994   2.844   2.539
    2OCB    O13  111   1.619   4.003   2.142
    2OCB    O14  112   1.275   3.380   2.657
    2OCB    O15  113   1.518   2.979   2.766
    2OCB    O16  114   2.070   3.856   2.041
    2OCB    O17  115   2.354   3.479   2.169
    2OCB    O18  116   1.952   2.780   2.650
    2OCB    O19  117   2.228   3.106   2.457
    2OCB    C69  118   1.213   3.475   2.574
    2OCB    C70  119   1.093   3.664   2.414
    2OCB    C71  120   1.283   3.590   2.543
    2OCB    C72  121   1.083   3.455   2.528
    2OCB    C73  122   1.018   3.549   2.446
    2OCB    C74  123   1.225   3.690   2.460
    2OCB    O20  124   1.298   3.796   2.409
    2OCB    C75  125   1.950   3.906   2.010
    2OCB    C76  126   1.722   4.047   1.929
    2OCB    C77  127   1.948   3.964   1.883
    2OCB    C78  128   1.848   3.926   2.101
    2OCB    C79  129   1.732   3.998   2.060
    2OCB    C80  130   1.830   4.034   1.838
    2OCB    C81  131   1.605   2.871   2.738
    2OCB    C82  132   1.767   2.652   2.687
    2OCB    C83  133   1.551   2.744   2.742
    2OCB    C84  134   1.740   2.889   2.711
    2OCB    C85  135   1.821   2.777   2.678
    2OCB    C86  136   1.627   2.631   2.714
    2OCB    C87  137   1.564   2.493   2.722
    2OCB    O21  138   1.452   2.484   2.769
    2OCB    C88  139   2.616   3.054   2.164
    2OCB    O22  140   2.677   3.083   2.063
    2OCB    C89  141   1.822   4.097   1.705
    2OCB    O23  142   1.737   4.178   1.690
    2OCB    O24  143   1.865   2.458   1.863
    2OCB    O25  144   1.185   2.599   1.714
    2OCB    O26  145   1.112   3.346   1.399
    2OCB    C90  146   0.888   3.520   2.373
    2OCB    O27  147   0.856   3.402   2.373
    2OCB    O28  148   2.644   2.956   2.230
    2OCB    O29  149   1.630   2.396   2.697
    2OCB    O30  150   0.822   3.603   2.317
    2OCB    O31  151   1.900   4.074   1.613
    2OCB    O32  152   1.640   3.175   1.187
    2OCB    C91  153   2.372   3.347   2.215
    2OCB    C92  154   2.412   3.095   2.309
    2OCB    C93  155   2.282   3.295   2.309
    2OCB    C94  156   2.480   3.272   2.166
    2OCB    C95  157   2.504   3.142   2.216
    2OCB    C96  158   2.306   3.166   2.358
    2OCB    C97  159   2.167   3.377   2.364
    2OCB    C98  160   1.857   3.867   2.243
    2OCB    C99  161   1.422   3.601   2.593
    2OCB      C  162   1.800   3.038   2.708
    2OCB     H1  163   1.548   3.216   1.627
    2OCB     H2  164   1.741   3.611   1.844
    2OCB     H3  165   1.923   3.285   1.594
    2OCB     H4  166   1.891   3.375   1.938
    2OCB     H5  167   1.736   2.982   1.694
    2OCB     H6  168   2.094   3.104   2.010
    2OCB     H7  169   1.846   2.723   1.932
    2OCB     H8  170   1.831   2.982   2.168
    2OCB     H9  171   1.313   3.455   1.756
    2OCB    H10  172   1.597   2.811   2.332
    2OCB    H11  173   1.266   3.337   2.198
    2OCB    H12  174   1.454   3.079   2.251
    2OCB    H13  175   1.351   3.085   1.788
    2OCB    H14  176   1.509   2.879   1.848
    2OCB    H15  177   1.216   2.903   2.088
    2OCB    H16  178   1.505   3.465   2.037
    2OCB    H17  179   1.666   2.791   1.707
    2OCB    H18  180   1.820   2.714   1.693
    2OCB    H19  181   1.582   2.606   1.861
    2OCB    H20  182   1.631   2.526   1.708
    2OCB    H21  183   1.702   3.102   1.511
    2OCB    H22  184   1.870   3.082   1.461
    2OCB    H23  185   1.717   3.336   1.379
    2OCB    H24  186   1.879   3.303   1.357
    2OCB    H25  187   1.343   3.202   1.579
    2OCB    H26  188   1.190   3.276   1.643
    2OCB    H27  189   1.297   3.494   1.528
    2OCB    H28  190   1.425   3.389   1.462
    2OCB    H29  191   1.143   2.922   1.854
    2OCB    H30  192   1.290   2.857   1.790
    2OCB    H31  193   1.269   2.646   1.927
    2OCB    H32  194   1.125   2.700   2.005
    2OCB    H33  195   2.285   3.724   2.160
    2OCB    H34  196   2.209   3.346   2.005
    2OCB    H35  197   1.930   3.670   1.929
    2OCB    H36  198   1.477   3.976   2.336
    2OCB    H37  199   1.305   3.597   2.230
    2OCB    H38  200   1.590   3.781   1.977
    2OCB    H39  201   1.395   3.211   2.817
    2OCB    H40  202   1.487   2.921   2.508
    2OCB    H41  203   1.256   3.266   2.419
    2OCB    H42  204   2.144   2.951   2.641
    2OCB    H43  205   1.840   2.754   2.419
    2OCB    H44  206   2.086   3.058   2.229
    2OCB    H45  207   1.052   3.740   2.348
    2OCB    H46  208   1.027   3.365   2.552
    2OCB    H47  209   1.632   4.101   1.902
    2OCB    H48  210   2.031   3.961   1.812
    2OCB    H49  211   1.826   2.568   2.653
    2OCB    H50  212   1.449   2.738   2.779
    2OCB    H51  213   2.426   2.995   2.350
    2OCB    H52  214   2.551   3.321   2.099
    2OCB    H53  215   2.124   3.342   2.458
    2OCB    H54  216   2.203   3.480   2.373
    2OCB    H55  217   2.089   3.379   2.288
    2OCB    H56  218   1.821   3.764   2.248
    2OCB    H57  219   1.961   3.859   2.274
    2OCB    H58  220   1.798   3.932   2.308
    2OCB    H59  221   1.427   3.586   2.701
    2OCB    H60  222   1.467   3.511   2.550
    2OCB    H61  223   1.481   3.687   2.560
    2OCB    H62  224   1.731   3.108   2.756
    2OCB    H63  225   1.896   3.050   2.757
    2OCB    H64  226   1.825   3.077   2.609
    3Na+    Na+  227   0.569   2.950   0.665
    4Na+    Na+  228   2.483   0.453   1.629
    5Na+    Na+  229   2.297   1.176   1.296
    6Na+    Na+  230   2.239   1.718   2.605
    7Na+    Na+  231   1.533   0.212   1.607
    8Na+    Na+  232   1.068   3.368   1.172
    9Na+    Na+  233   0.993   2.133   3.493
   10HOH      O  234   2.094   1.772   3.131
   10HOH     H1  235   2.053   1.833   3.193
   10HOH     H2  236   2.036   1.696   3.130
   11HOH      O  237   3.022   2.686   1.976
   11HOH     H1  238   2.978   2.733   2.047
   11HOH     H2  239   2.951   2.644   1.928
   12HOH      O  240   0.215   1.539   3.232
   12HOH     H1  241   0.280   1.481   3.192
   12HOH     H2  242   0.133   1.491   3.226
   13HOH      O  243   1.824   3.675   3.337
   13HOH     H1  244   1.784   3.645   3.419
   13HOH     H2  245   1.823   3.598   3.281
   14HOH      O  246   2.107   2.485   3.811
   14HOH     H1  247   2.147   2.484   3.724
   14HOH     H2  248   2.058   2.567   3.814
   15HOH      O  249   2.574   3.573   0.989
   15HOH     H1  250   2.645   3.513   0.968
   15HOH     H2  251   2.502   3.517   1.019
   16HOH      O  252   0.813   0.364   3.859
   16HOH     H1  253   0.749   0.356   3.789
   16HOH     H2  254   0.814   0.457   3.880
   17HOH      O  255   3.540   3.033   2.406
   17HOH     H1  256   3.509   3.061   2.492
   17HOH     H2  257   3.460   3.021   2.354
   18HOH      O  258   3.754   1.913   1.430
   18HOH     H1  259   3.799   1.939   1.349
   18HOH     H2  260   3.825   1.898   1.492
   19HOH      O  261   0.154   0.650   0.934
   19HOH     H1  262   0.142   0.653   1.029
   19HOH     H2  263   0.125   0.735   0.903
   20HOH      O  264   2.143   0.673   3.627
   20HOH     H1  265   2.049   0.692   3.627
   20HOH     H2  266   2.181   0.744   3.574
   21HOH      O  267   0.050   0.897   1.059
   21HOH     H1  268  -0.026   0.939   1.018
   21HOH     H2  269   0.025   0.804   1.065
   22HOH      O  270  -0.012   2.966   3.912
   22HOH     H1  271   0.081   2.950   3.896
   22HOH     H2  272  -0.055   2.938   3.831
   23HOH      O  273   4.034   2.227   3.299
   23HOH     H1  274   4.073   2.307   3.264
   23HOH     H2  275   3.997   2.183   3.222
   24HOH      O  276   1.443   2.443   3.081
   24HOH     H1  277   1.353   2.411   3.091
   24HOH     H2  278   1.449   2.469   2.989
   25HOH      O  279   0.242   1.457   3.632
   25HOH     H1  280   0.264   1.385   3.573
   25HOH     H2  281   0.197   1.414   3.705
   26HOH      O  282   2.825   0.182   0.231
   26HOH     H1  283   2.903   0.144   0.270
   26HOH     H2  284   2.820   0.270   0.267
   27HOH      O  285   0.155   0.220   1.656
   27HOH     H1  286   0.158   0.269   1.574
   27HOH     H2  287   0.221   0.260   1.711
   28HOH      O  288   3.294   1.937   2.154
   28HOH     H1  289   3.253   1.941   2.067
   28HOH     H2  290   3.294   1.844   2.176
   29HOH      O  291   2.161   0.144   2.113
   29HOH     H1  292   2.224   0.118   2.181
   29HOH     H2  293   2.077   0.150   2.160
   30HOH      O  294   3.610   2.460   1.238
   30HOH     H1  295   3.586   2.525   1.172
   30HOH     H2  296   3.526   2.435   1.279
   31HOH      O  297   1.042   4.004   1.486
   31HOH     H1  298   1.058   4.034   1.396
   31HOH     H2  299   0.955   3.965   1.482
   32HOH      O  300   0.171   0.250   3.646
   32HOH     H1  301   0.198   0.208   3.565
   32HOH     H2  302   0.178   0.181   3.713
   33HOH      O  303   0.205   3.217   0.672
   33HOH     H1  304   0.188   3.232   0.580
   33HOH     H2  305   0.151   3.141   0.695
   34HOH      O  306   1.259   2.241   1.896
   34HOH     H1  307   1.301   2.292   1.827
   34HOH     H2  308   1.213   2.170   1.849
   35HOH      O  309   2.933   1.776   0.790
   35HOH     H1  310   2.994   1.842   0.756
   35HOH     H2  311   2.864   1.772   0.724
   36HOH      O  312   1.138   2.056   0.547
   36HOH     H1  313   1.128   1.995   0.474
   36HOH     H2  314   1.169   2.137   0.507
   37HOH      O  315   2.173   1.807   3.807
   37HOH     H1  316   2.214   1.740   3.752
   37HOH     H2  317   2.091   1.827   3.762
   38HOH      O  318   3.331   3.074   0.551
   38HOH     H1  319   3.317   2.982   0.528
   38HOH     H2  320   3.318   3.122   0.470
   39HOH      O  321   2.913   3.515   0.132
   39HOH     H1  322   2.953   3.601   0.125
   39HOH     H2  323   2.934   3.472   0.048
   40HOH      O  324   1.088   1.867   2.169
   40HOH     H1  325   1.022   1.902   2.229
   40HOH     H2  326   1.084   1.772   2.183
   41HOH      O  327   2.920   2.021   3.598
   41HOH     H1  328   2.931   2.089   3.531
   41HOH     H2  329   2.826   2.022   3.618
   42HOH      O  330   2.716   2.334   1.941
   42HOH     H1  331   2.654   2.333   1.869
   42HOH     H2  332   2.747   2.425   1.944
   43HOH      O  333   1.909   0.173   1.399
   43HOH     H1  334   1.923   0.116   1.475
   43HOH     H2  335   1.815   0.171   1.384
   44HOH      O  336   1.738   0.388   2.331
   44HOH     H1  337   1.749   0.363   2.240
   44HOH     H2  338   1.660   0.340   2.360
   45HOH      O  339   3.794   3.321   1.855
   45HOH     H1  340   3.780   3.387   1.787
   45HOH     H2  341   3.750   3.356   1.932
   46HOH      O  342   1.113   2.356   3.809
   46HOH     H1  343   1.078   2.355   3.898
   46HOH     H2  344   1.189   2.415   3.814
   47HOH      O  345   2.569   0.709   2.941
   47HOH     H1  346   2.538   0.784   2.991
   47HOH     H2  347   2.583   0.640   3.007
   48HOH      O  348   1.350   1.209   1.732
   48HOH     H1  349   1.358   1.276   1.799
   48HOH     H2  350   1.401   1.135   1.764
   49HOH      O  351   0.114   3.082   2.769
   49HOH     H1  352   0.144   3.114   2.854
   49HOH     H2  353   0.127   3.156   2.710
   50HOH      O  354   2.272   2.195   2.520
   50HOH     H1  355   2.193   2.247   2.538
   50HOH     H2  356   2.251   2.147   2.440
   51HOH      O  357   1.741   3.402   3.765
   51HOH     H1  358   1.818   3.381   3.818
   51HOH     H2  359   1.686   3.324   3.772
   52HOH      O  360   0.287   3.917   3.025
   52HOH     H1  361   0.219   3.858   2.993
   52HOH     H2  362   0.313   3.968   2.949
   53HOH      O  363   1.851   1.064   1.166
   53HOH     H1  364   1.882   1.151   1.142
   53HOH     H2  365   1.856   1.013   1.085
   54HOH      O  366   3.923   1.008   2.403
   54HOH     H1  367   3.852   1.010   2.339
   54HOH     H2  368   4.002   0.998   2.350
   55HOH      O  369   1.927   0.912   3.972
   55HOH     H1  370   1.929   0.974   3.900
   55HOH     H2  371   1.944   0.827   3.931
   56HOH      O  372   0.631   2.959   2.731
   56HOH     H1  373   0.590   2.963   2.818
   56HOH     H2  374   0.613   3.044   2.692
   57HOH      O  375   0.399   1.011   1.607
   57HOH     H1  376   0.425   0.923   1.580
   57HOH     H2  377   0.326   1.033   1.548
   58HOH      O  378   1.985   2.875   2.942
   58HOH     H1  379   1.970   2.826   2.862
   58HOH     H2  380   2.071   2.914   2.931
   59HOH      O  381   3.926   1.298   3.514
   59HOH     H1  382   3.864   1.280   3.585
   59HOH     H2  383   3.886   1.370   3.465
   60HOH      O  384   2.379   2.565   2.927
   60HOH     H1  385   2.296   2.586   2.884
   60HOH     H2  386   2.402   2.478   2.893
   61HOH      O  387   2.555   3.852   3.461
   61HOH     H1  388   2.619   3.803   3.512
   61HOH     H2  389   2.471   3.814   3.485
   62HOH      O  390   0.133   2.612   3.495
   62HOH     H1  391   0.102   2.584   3.582
   62HOH     H2  392   0.220   2.572   3.487
   63HOH      O  393   1.541   0.268   3.794
   63HOH     H1  394   1.572   0.272   3.885
   63HOH     H2  395   1.450   0.239   3.801
   64HOH      O  396   0.639   0.614   2.319
   64HOH     H1  397   0.550   0.626   2.286
   64HOH     H2  398   0.640   0.656   2.404
   65HOH      O  399   3.010   2.006   1.572
   65HOH     H1  400   3.097   2.044   1.587
   65HOH     H2  401   2.958   2.033   1.647
   66HOH      O  402   1.935   0.141   2.286
   66HOH     H1  403   1.911   0.049   2.302
   66HOH     H2  404   1.936   0.180   2.373
   67HOH      O  405   0.806   0.331   2.853
   67HOH     H1  406   0.841   0.394   2.789
   67HOH     H2  407   0.829   0.245   2.817
   68HOH      O  408   3.941   0.672   1.663
   68HOH     H1  409   3.909   0.759   1.685
   68HOH     H2  410   3.992   0.645   1.740
   69HOH      O  411   0.107   0.560   0.364
   69HOH     H1  412   0.102   0.629   0.298
   69HOH     H2  413   0.119   0.607   0.447
   70HOH      O  414   1.124   1.104   2.635
   70HOH     H1  415   1.102   1.096   2.542
   70HOH     H2  416   1.179   1.183   2.639
   71HOH      O  417   0.231   3.146   3.003
   71HOH     H1  418   0.197   3.235   3.015
   71HOH     H2  419   0.314   3.158   2.957
   72HOH      O  420   3.064   2.616   2.668
   72HOH     H1  421   3.042   2.577   2.752
   72HOH     H2  422   2.982   2.650   2.634
   73HOH      O  423   2.974   3.202   0.447
   73HOH     H1  424   2.979   3.192   0.542
   73HOH     H2  425   2.927   3.124   0.417
   74HOH      O  426   0.382   1.023   2.802
   74HOH     H1  427   0.292   1.035   2.833
   74HOH     H2  428   0.388   1.077   2.724
   75HOH      O  429   0.758   2.499   0.992
   75HOH     H1  430   0.710   2.561   1.047
   75HOH     H2  431   0.845   2.538   0.982
   76HOH      O  432   0.726   1.748   1.543
   76HOH     H1  433   0.806   1.784   1.580
   76HOH     H2  434   0.723   1.782   1.454
   77HOH      O  435   1.357   1.917   2.233
   77HOH     H1  436   1.264   1.898   2.219
   77HOH     H2  437   1.365   2.010   2.213
   78HOH      O  438   2.882   3.704   1.850
   78HOH     H1  439   2.915   3.615   1.858
   78HOH     H2  440   2.876   3.719   1.756
   79HOH      O  441   2.930   0.948   3.870
   79HOH     H1  442   2.893   0.934   3.957
   79HOH     H2  443   2.980   1.029   3.878
   80HOH      O  444   1.745   1.632   3.486
   80HOH     H1  445   1.650   1.640   3.487
   80HOH     H2  446   1.774   1.673   3.568
   81HOH      O  447   2.486   1.140   2.992
   81HOH     H1  448   2.410   1.108   2.943
   81HOH     H2  449   2.490   1.083   3.068
   82HOH      O  450   2.874   4.033   3.535
   82HOH     H1  451   2.816   4.109   3.546
   82HOH     H2  452   2.818   3.957   3.548
   83HOH      O  453   3.704   1.531   2.813
   83HOH     H1  454   3.733   1.504   2.726
   83HOH     H2  455   3.764   1.600   2.838
   84HOH      O  456   1.400   0.666   1.375
   84HOH     H1  457   1.367   0.656   1.285
   84HOH     H2  458   1.321   0.672   1.429
   85HOH      O  459   1.896   1.274   3.320
   85HOH     H1  460   1.830   1.337   3.292
   85HOH     H2  461   1.944   1.252   3.239
   86HOH      O  462   2.324   2.104   1.337
   86HOH     H1  463   2.318   2.154   1.419
   86HOH     H2  464   2.250   2.044   1.339
   87HOH      O  465   3.983   0.243   1.391
   87HOH     H1  466   3.968   0.296   1.469
   87HOH     H2  467   3.923   0.279   1.325
   88HOH      O  468   2.402   1.324   1.146
   88HOH     H1  469   2.363   1.388   1.087
   88HOH     H2  470   2.496   1.327   1.126
   89HOH      O  471   2.364   2.493   0.561
   89HOH     H1  472   2.360   2.544   0.481
   89HOH     H2  473   2.369   2.558   0.631
   90HOH      O  474   3.785   0.342   1.253
   90HOH     H1  475   3.762   0.435   1.246
   90HOH     H2  476   3.737   0.300   1.181
   91HOH      O  477   3.743   2.587   0.402
   91HOH     H1  478   3.793   2.646   0.345
   91HOH     H2  479   3.743   2.630   0.487
   92HOH      O  480   3.802   1.323   2.530
   92HOH     H1  481   3.852   1.272   2.467
   92HOH     H2  482   3.848   1.407   2.535
   93HOH      O  483   3.166   3.537   2.973
   93HOH     H1  484   3.198   3.624   2.948
   93HOH     H2  485   3.153   3.492   2.889
   94HOH      O  486   2.276   0.334   4.072
   94HOH     H1  487   2.214   0.346   4.000
   94HOH     H2  488   2.362   0.332   4.029
   95HOH      O  489   3.490   1.160   2.277
   95HOH     H1  490   3.432   1.124   2.345
   95HOH     H2  491   3.467   1.111   2.198
   96HOH      O  492   2.735   1.657   2.046
   96HOH     H1  493   2.722   1.687   1.956
   96HOH     H2  494   2.648   1.629   2.075
   97HOH      O  495   0.662   0.431   0.081
   97HOH     H1  496   0.628   0.386   0.003
   97HOH     H2  497   0.755   0.446   0.061
   98HOH      O  498   3.818   2.309   1.150
   98HOH     H1  499   3.735   2.334   1.191
   98HOH     H2  500   3.851   2.391   1.112
   99HOH      O  501   2.915   2.341   1.498
   99HOH     H1  502   2.832   2.310   1.534
   99HOH     H2  503   2.928   2.291   1.418
  100HOH      O  504   1.643   3.580   0.850
  100HOH     H1  505   1.693   3.502   0.873
  100HOH     H2  506   1.552   3.557   0.869
  101HOH      O  507   3.680   2.036   2.741
  101HOH     H1  508   3.711   1.981   2.669
  101HOH     H2  509   3.684   2.125   2.707
  102HOH      O  510   2.945   0.706   2.336
  102HOH     H1  511   2.928   0.715   2.242
  102HOH     H2  512   2.948   0.796   2.369
  103HOH      O  513   3.251   2.187   0.917
  103HOH     H1  514   3.331   2.239   0.918
  103HOH     H2  515   3.266   2.119   0.983
  104HOH      O  516   3.213   2.682   0.986
  104HOH     H1  517   3.123   2.692   0.956
  104HOH     H2  518   3.222   2.747   1.056
  105HOH      O  519   3.084   3.437   2.238
  105HOH     H1  520   2.991   3.437   2.262
  105HOH     H2  521   3.128   3.473   2.315
  106HOH      O  522   0.969   1.310   3.119
  106HOH     H1  523   0.899   1.286   3.059
  106HOH     H2  524   1.028   1.364   3.066
  107HOH      O  525   0.779   1.228   2.958
  107HOH     H1  526   0.768   1.169   2.883
  107HOH     H2  527   0.700   1.281   2.958
  108HOH      O  528   3.549   2.372   2.366
  108HOH     H1  529   3.545   2.280   2.390
  108HOH     H2  530   3.474   2.384   2.307
  109HOH      O  531   2.444   2.776   3.325
  109HOH     H1  532   2.480   2.729   3.249
  109HOH     H2  533   2.489   2.737   3.400
  110HOH      O  534   3.774   0.383   0.756
  110HOH     H1  535   3.854   0.395   0.808
  110HOH     H2  536   3.772   0.288   0.739
  111HOH      O  537   0.160   0.227   0.069
  111HOH     H1  538   0.226   0.253   0.133
  111HOH     H2  539   0.092   0.183   0.120
  112HOH      O  540   1.468   1.973   3.943
  112HOH     H1  541   1.406   1.947   3.876
  112HOH     H2  542   1.430   1.942   4.025
  113HOH      O  543   3.188   0.174   1.404
  113HOH     H1  544   3.224   0.232   1.337
  113HOH     H2  545   3.264   0.146   1.455
  114HOH      O  546   0.316   3.266   2.091
  114HOH     H1  547   0.393   3.245   2.038
  114HOH     H2  548   0.277   3.341   2.047
  115HOH      O  549   2.549   1.072   2.285
  115HOH     H1  550   2.479   1.012   2.259
  115HOH     H2  551   2.549   1.139   2.216
  116HOH      O  552   3.384   1.783   1.266
  116HOH     H1  553   3.295   1.763   1.296
  116HOH     H2  554   3.439   1.718   1.310
  117HOH      O  555   3.437   3.277   0.082
  117HOH     H1  556   3.345   3.300   0.094
  117HOH     H2  557   3.450   3.200   0.138
  118HOH      O  558   3.200   1.483   2.463
  118HOH     H1  559   3.246   1.479   2.547
  118HOH     H2  560   3.190   1.577   2.446
  119HOH      O  561   3.569   0.997   0.901
  119HOH     H1  562   3.588   1.069   0.841
  119HOH     H2  563   3.575   0.918   0.846
  120HOH      O  564   2.164   2.588   2.759
  120HOH     H1  565   2.118   2.591   2.675
  120HOH     H2  566   2.113   2.528   2.812
  121HOH      O  567   1.537   3.073   3.949
  121HOH     H1  568   1.561   3.061   4.041
  121HOH     H2  569   1.605   3.025   3.901
  122HOH      O  570   3.091   3.488   3.449
  122HOH     H1  571   3.158   3.444   3.396
  122HOH     H2  572   3.019   3.426   3.452
  123HOH      O  573   1.296   2.725   0.796
  123HOH     H1  574   1.256   2.773   0.869
  123HOH     H2  575   1.236   2.738   0.723
  124HOH      O  576   0.072   1.368   3.857
  124HOH     H1  577   0.018   1.447   3.860
  124HOH     H2  578   0.019   1.304   3.808
  125HOH      O  579   1.326   0.246   1.517
  125HOH     H1  580   1.319   0.233   1.423
  125HOH     H2  581   1.238   0.274   1.544
  126HOH      O  582   2.130   1.756   1.657
  126HOH     H1  583   2.045   1.799   1.654
  126HOH     H2  584   2.169   1.785   1.739
  127HOH      O  585   3.080   2.044   3.831
  127HOH     H1  586   3.144   1.998   3.777
  127HOH     H2  587   3.029   2.096   3.768
  128HOH      O  588   3.438   1.025   0.501
  128HOH     H1  589   3.409   1.082   0.430
  128HOH     H2  590   3.360   0.974   0.523
  129HOH      O  591   1.910   1.797   4.060
  129HOH     H1  592   1.903   1.782   3.966
  129HOH     H2  593   1.864   1.880   4.075
  130HOH      O  594   3.093   0.482   0.908
  130HOH     H1  595   3.017   0.534   0.881
  130HOH     H2  596   3.145   0.543   0.961
  131HOH      O  597   4.044   0.376   1.999
  131HOH     H1  598   3.962   0.335   2.026
  131HOH     H2  599   4.112   0.312   2.023
  132HOH      O  600   1.327   1.084   3.398
  132HOH     H1  601   1.315   1.088   3.303
  132HOH     H2  602   1.245   1.049   3.431
  133HOH      O  603   0.788   3.859   2.302
  133HOH     H1  604   0.775   3.874   2.396
  133HOH     H2  605   0.776   3.765   2.292
  134HOH      O  606   0.918   2.655   0.695
  134HOH     H1  607   0.984   2.705   0.646
  134HOH     H2  608   0.962   2.633   0.777
  135HOH      O  609   3.802   1.098   1.470
  135HOH     H1  610   3.893   1.120   1.452
  135HOH     H2  611   3.753   1.140   1.399
  136HOH      O  612   3.475   2.639   2.916
  136HOH     H1  613   3.436   2.556   2.943
  136HOH     H2  614   3.524   2.619   2.837
  137HOH      O  615   3.448   3.208   2.106
  137HOH     H1  616   3.353   3.201   2.111
  137HOH     H2  617   3.472   3.264   2.179
  138HOH      O  618   2.544   3.553   2.429
  138HOH     H1  619   2.583   3.605   2.359
  138HOH     H2  620   2.452   3.542   2.402
  139HOH      O  621   3.736   0.449   3.967
  139HOH     H1  622   3.655   0.499   3.957
  139HOH     H2  623   3.710   0.358   3.953
  140HOH      O  624   2.842   0.678   3.798
  140HOH     H1  625   2.926   0.641   3.825
  140HOH     H2  626   2.833   0.757   3.851
  141HOH      O  627   2.785   0.631   3.373
  141HOH     H1  628   2.787   0.581   3.292
  141HOH     H2  629   2.773   0.565   3.441
  142HOH      O  630   3.171   3.935   1.710
  142HOH     H1  631   3.230   3.932   1.786
  142HOH     H2  632   3.113   4.009   1.728
  143HOH      O  633   3.975   1.923   0.680
  143HOH     H1  634   3.997   1.835   0.710
  143HOH     H2  635   4.041   1.980   0.720
  144HOH      O  636   0.453   0.399   2.038
  144HOH     H1  637   0.433   0.491   2.021
  144HOH     H2  638   0.548   0.392   2.022
  145HOH      O  639   0.183   2.312   3.647
  145HOH     H1  640   0.206   2.313   3.554
  145HOH     H2  641   0.089   2.292   3.648
  146HOH      O  642   1.151   3.940   0.731
  146HOH     H1  643   1.236   3.898   0.746
  146HOH     H2  644   1.164   3.992   0.651
  147HOH      O  645   2.221   0.756   1.440
  147HOH     H1  646   2.159   0.693   1.476
  147HOH     H2  647   2.277   0.779   1.514
  148HOH      O  648   0.885   3.281   3.908
  148HOH     H1  649   0.920   3.323   3.986
  148HOH     H2  650   0.957   3.228   3.874
  149HOH      O  651   2.572   2.655   3.532
  149HOH     H1  652   2.508   2.593   3.567
  149HOH     H2  653   2.591   2.714   3.605
  150HOH      O  654   0.256   2.983   3.872
  150HOH     H1  655   0.296   3.063   3.837
  150HOH     H2  656   0.317   2.953   3.939
  151HOH      O  657   3.809   3.187   3.477
  151HOH     H1  658   3.808   3.283   3.482
  151HOH     H2  659   3.897   3.165   3.446
  152HOH      O  660   2.832   0.145   2.455
  152HOH     H1  661   2.843   0.142   2.360
  152HOH     H2  662   2.920   0.164   2.489
  153HOH      O  663   3.605   2.538  -0.024
  153HOH     H1  664   3.652   2.534   0.059
  153HOH     H2  665   3.514   2.554   0.000
  154HOH      O  666   2.593   2.361   3.172
  154HOH     H1  667   2.571   2.362   3.079
  154HOH     H2  668   2.630   2.274   3.186
  155HOH      O  669   0.155   1.151   1.019
  155HOH     H1  670   0.094   1.079   1.036
  155HOH     H2  671   0.193   1.130   0.933
  156HOH      O  672   3.435   3.270   0.956
  156HOH     H1  673   3.432   3.253   1.050
  156HOH     H2  674   3.435   3.183   0.916
  157HOH      O  675   0.509   0.603   1.214
  157HOH     H1  676   0.600   0.577   1.202
  157HOH     H2  677   0.508   0.697   1.194
  158HOH      O  678   1.829   2.244   2.791
  158HOH     H1  679   1.811   2.208   2.878
  158HOH     H2  680   1.745   2.276   2.760
  159HOH      O  681   3.382   1.188   0.268
  159HOH     H1  682   3.459   1.244   0.263
  159HOH     H2  683   3.393   1.125   0.197
  160HOH      O  684   2.318   2.762   2.619
  160HOH     H1  685   2.365   2.840   2.649
  160HOH     H2  686   2.254   2.745   2.688
  161HOH      O  687   0.261   2.214   1.834
  161HOH     H1  688   0.282   2.151   1.902
  161HOH     H2  689   0.221   2.287   1.881
  162HOH      O  690   2.424   1.427   0.713
  162HOH     H1  691   2.434   1.451   0.805
  162HOH     H2  692   2.389   1.338   0.714
  163HOH      O  693   0.215   2.802   2.952
  163HOH     H1  694   0.218   2.767   2.863
  163HOH     H2  695   0.158   2.742   3.000
  164HOH      O  696   3.918   3.556   2.069
  164HOH     H1  697   3.965   3.502   2.006
  164HOH     H2  698   3.917   3.643   2.031
  165HOH      O  699   0.173   1.898   1.989
  165HOH     H1  700   0.243   1.962   2.008
  165HOH     H2  701   0.179   1.835   2.061
  166HOH      O  702   2.731   3.866   2.243
  166HOH     H1  703   2.756   3.841   2.332
  166HOH     H2  704   2.692   3.787   2.206
  167HOH      O  705   2.117   1.358   0.043
  167HOH     H1  706   2.131   1.453   0.046
  167HOH     H2  707   2.025   1.348   0.018
  168HOH      O  708   3.264   3.623   1.120
  168HOH     H1  709   3.283   3.675   1.198
  168HOH     H2  710   3.349   3.590   1.092
  169HOH      O  711   0.013   2.560   3.888
  169HOH     H1  712  -0.021   2.544   3.800
  169HOH     H2  713   0.092   2.613   3.873
  170HOH      O  714   1.683   1.134   3.564
  170HOH     H1  715   1.629   1.059   3.536
  170HOH     H2  716   1.724   1.165   3.483
  171HOH      O  717   2.672   2.950   2.489
  171HOH     H1  718   2.636   2.971   2.403
  171HOH     H2  719   2.716   2.866   2.478
  172HOH      O  720   0.574   0.186   0.792
  172HOH     H1  721   0.487   0.150   0.776
  172HOH     H2  722   0.633   0.130   0.741
  173HOH      O  723   2.619   3.621   2.155
  173HOH     H1  724   2.682   3.566   2.109
  173HOH     H2  725   2.560   3.653   2.087
  174HOH      O  726   1.243   1.771   0.753
  174HOH     H1  727   1.235   1.694   0.697
  174HOH     H2  728   1.299   1.831   0.704
  175HOH      O  729   2.046   3.857   0.526
  175HOH     H1  730   2.111   3.808   0.474
  175HOH     H2  731   1.984   3.790   0.555
  176HOH      O  732   3.525   3.388   2.318
  176HOH     H1  733   3.494   3.478   2.304
  176HOH     H2  734   3.463   3.350   2.380
  177HOH      O  735   2.238   3.116   1.661
  177HOH     H1  736   2.201   3.063   1.591
  177HOH     H2  737   2.189   3.090   1.739
  178HOH      O  738   1.406   4.029   3.457
  178HOH     H1  739   1.315   4.002   3.452
  178HOH     H2  740   1.441   3.980   3.532
  179HOH      O  741   1.852   2.247   3.367
  179HOH     H1  742   1.861   2.275   3.458
  179HOH     H2  743   1.766   2.281   3.340
  180HOH      O  744   1.394   0.688   2.490
  180HOH     H1  745   1.317   0.661   2.540
  180HOH     H2  746   1.384   0.782   2.478
  181HOH      O  747   2.798   3.184   1.571
  181HOH     H1  748   2.734   3.182   1.642
  181HOH     H2  749   2.854   3.108   1.586
  182HOH      O  750   1.745   1.049   2.723
  182HOH     H1  751   1.730   1.022   2.633
  182HOH     H2  752   1.687   1.125   2.734
  183HOH      O  753   3.751   0.635   1.250
  183HOH     H1  754   3.657   0.641   1.235
  183HOH     H2  755   3.780   0.726   1.255
  184HOH      O  756   0.984   2.409   3.247
  184HOH     H1  757   0.900   2.449   3.227
  184HOH     H2  758   0.982   2.395   3.341
  185HOH      O  759   3.238   3.612   0.845
  185HOH     H1  760   3.202   3.689   0.800
  185HOH     H2  761   3.184   3.603   0.923
  186HOH      O  762   0.451   0.006   1.540
  186HOH     H1  763   0.510   0.035   1.610
  186HOH     H2  764   0.456   0.077   1.476
  187HOH      O  765   0.749   3.878   0.857
  187HOH     H1  766   0.701   3.937   0.797
  187HOH     H2  767   0.801   3.937   0.912
  188HOH      O  768   2.569   3.489   3.831
  188HOH     H1  769   2.617   3.428   3.775
  188HOH     H2  770   2.631   3.560   3.847
  189HOH      O  771   0.726   1.880   3.014
  189HOH     H1  772   0.816   1.858   2.987
  189HOH     H2  773   0.735   1.961   3.064
  190HOH      O  774   2.477   2.335   1.054
  190HOH     H1  775   2.556   2.304   1.010
  190HOH     H2  776   2.506   2.411   1.105
  191HOH      O  777   1.515   2.052   1.775
  191HOH     H1  778   1.541   2.085   1.861
  191HOH     H2  779   1.580   2.088   1.715
  192HOH      O  780   1.771   2.048   2.982
  192HOH     H1  781   1.768   2.011   3.070
  192HOH     H2  782   1.691   2.015   2.939
  193HOH      O  783   1.171   0.796   3.778
  193HOH     H1  784   1.161   0.786   3.684
  193HOH     H2  785   1.100   0.854   3.805
  194HOH      O  786   0.810   1.010   2.587
  194HOH     H1  787   0.848   1.031   2.501
  194HOH     H2  788   0.852   0.927   2.611
  195HOH      O  789   2.779   3.495   3.581
  195HOH     H1  790   2.704   3.495   3.521
  195HOH     H2  791   2.796   3.403   3.599
  196HOH      O  792   0.431   0.544   2.802
  196HOH     H1  793   0.347   0.526   2.844
  196HOH     H2  794   0.461   0.626   2.842
  197HOH      O  795   0.947   3.824   0.413
  197HOH     H1  796   0.940   3.825   0.508
  197HOH     H2  797   0.912   3.909   0.385
  198HOH      O  798   3.448   2.150   2.463
  198HOH     H1  799   3.491   2.065   2.455
  198HOH     H2  800   3.375   2.146   2.401
  199HOH      O  801   3.554   0.345   2.377
  199HOH     H1  802   3.597   0.307   2.454
  199HOH     H2  803   3.521   0.430   2.408
  200HOH      O  804   0.306   2.394   0.860
  200HOH     H1  805   0.342   2.361   0.778
  200HOH     H2  806   0.348   2.479   0.872
  201HOH      O  807   2.600   4.018   3.255
  201HOH     H1  808   2.675   4.071   3.283
  201HOH     H2  809   2.583   3.959   3.328
  202HOH      O  810   3.938   2.620   2.579
  202HOH     H1  811   3.856   2.621   2.529
  202HOH     H2  812   3.958   2.712   2.593
  203HOH      O  813   0.109   1.994   3.041
  203HOH     H1  814   0.044   2.065   3.032
  203HOH     H2  815   0.058   1.914   3.032
  204HOH      O  816   1.227   4.051   2.575
  204HOH     H1  817   1.308   4.060   2.625
  204HOH     H2  818   1.240   3.972   2.522
  205HOH      O  819   0.680   2.244   1.099
  205HOH     H1  820   0.720   2.324   1.065
  205HOH     H2  821   0.587   2.253   1.079
  206HOH      O  822   0.641   0.181   3.079
  206HOH     H1  823   0.664   0.243   3.149
  206HOH     H2  824   0.684   0.216   3.001
  207HOH      O  825   3.590   1.678   1.464
  207HOH     H1  826   3.620   1.675   1.555
  207HOH     H2  827   3.639   1.751   1.425
  208HOH      O  828   1.471   4.026   1.610
  208HOH     H1  829   1.398   3.967   1.629
  208HOH     H2  830   1.546   3.967   1.599
  209HOH      O  831   0.809   0.614   3.932
  209HOH     H1  832   0.793   0.656   3.847
  209HOH     H2  833   0.843   0.685   3.987
  210HOH      O  834   0.069   3.603   0.815
  210HOH     H1  835   0.014   3.639   0.745
  210HOH     H2  836   0.143   3.663   0.821
  211HOH      O  837   1.198   3.810   0.043
  211HOH     H1  838   1.197   3.778  -0.047
  211HOH     H2  839   1.132   3.758   0.088
  212HOH      O  840   0.525   0.195   3.547
  212HOH     H1  841   0.522   0.110   3.591
  212HOH     H2  842   0.538   0.173   3.454
  213HOH      O  843   0.997   0.393   1.978
  213HOH     H1  844   1.071   0.440   1.940
  213HOH     H2  845   0.983   0.318   1.921
  214HOH      O  846   0.908   1.354   3.408
  214HOH     H1  847   0.965   1.347   3.331
  214HOH     H2  848   0.819   1.355   3.372
  215HOH      O  849   0.105   1.774   3.344
  215HOH     H1  850   0.075   1.784   3.253
  215HOH     H2  851   0.169   1.703   3.341
  216HOH      O  852   1.790   0.087   4.011
  216HOH     H1  853   1.847   0.022   4.054
  216HOH     H2  854   1.719   0.035   3.974
  217HOH      O  855   1.160   3.171   0.514
  217HOH     H1  856   1.250   3.146   0.535
  217HOH     H2  857   1.127   3.213   0.593
  218HOH      O  858   2.080   2.529   2.509
  218HOH     H1  859   2.049   2.453   2.460
  218HOH     H2  860   2.149   2.567   2.455
  219HOH      O  861   0.681   2.544   3.834
  219HOH     H1  862   0.660   2.468   3.889
  219HOH     H2  863   0.633   2.617   3.874
  220HOH      O  864   1.897   3.914   3.689
  220HOH     H1  865   1.815   3.946   3.728
  220HOH     H2  866   1.966   3.948   3.746
  221HOH      O  867   2.177   0.853   0.323
  221HOH     H1  868   2.159   0.931   0.271
  221HOH     H2  869   2.125   0.784   0.283
  222HOH      O  870   0.408   2.110   0.517
  222HOH     H1  871   0.455   2.032   0.547
  222HOH     H2  872   0.406   2.102   0.422
  223HOH      O  873   2.170   0.463   2.281
  223HOH     H1  874   2.198   0.386   2.330
  223HOH     H2  875   2.125   0.517   2.345
  224HOH      O  876   1.273   1.499   2.391
  224HOH     H1  877   1.224   1.554   2.330
  224HOH     H2  878   1.253   1.534   2.477
  225HOH      O  879   3.155   2.881   1.151
  225HOH     H1  880   3.075   2.927   1.177
  225HOH     H2  881   3.201   2.865   1.233
  226HOH      O  882   3.123   0.600   2.987
  226HOH     H1  883   3.203   0.589   2.936
  226HOH     H2  884   3.124   0.692   3.013
  227HOH      O  885   1.682   1.551   2.683
  227HOH     H1  886   1.653   1.568   2.772
  227HOH     H2  887   1.706   1.637   2.648
  228HOH      O  888   0.643   3.310   1.633
  228HOH     H1  889   0.601   3.389   1.669
  228HOH     H2  890   0.736   3.332   1.632
  229HOH      O  891   1.882   1.277   4.032
  229HOH     H1  892   1.835   1.210   3.983
  229HOH     H2  893   1.816   1.345   4.048
  230HOH      O  894   2.736   4.039   1.345
  230HOH     H1  895   2.754   4.010   1.434
  230HOH     H2  896   2.644   4.064   1.345
  231HOH      O  897   0.067   0.873   0.774
  231HOH     H1  898   0.157   0.904   0.780
  231HOH     H2  899   0.013   0.951   0.789
  232HOH      O  900   2.477   0.175   0.797
  232HOH     H1  901   2.420   0.159   0.722
  232HOH     H2  902   2.441   0.121   0.866
  233HOH      O  903   3.493   3.530   0.972
  233HOH     H1  904   3.475   3.444   0.934
  233HOH     H2  905   3.443   3.592   0.919
  234HOH      O  906   0.595   1.969   3.915
  234HOH     H1  907   0.531   1.962   3.844
  234HOH     H2  908   0.588   1.885   3.962
  235HOH      O  909   1.586   1.756   1.423
  235HOH     H1  910   1.600   1.714   1.508
  235HOH     H2  911   1.538   1.836   1.443
  236HOH      O  912   3.324   0.523   0.293
  236HOH     H1  913   3.383   0.466   0.243
  236HOH     H2  914   3.360   0.611   0.281
  237HOH      O  915   3.594   1.296   1.535
  237HOH     H1  916   3.676   1.248   1.544
  237HOH     H2  917   3.597   1.363   1.603
  238HOH      O  918   3.458   1.854   2.791
  238HOH     H1  919   3.498   1.781   2.742
  238HOH     H2  920   3.504   1.932   2.758
  239HOH      O  921   1.317   0.070   3.084
  239HOH     H1  922   1.349   0.145   3.033
  239HOH     H2  923   1.244   0.106   3.135
  240HOH      O  924   0.192   3.085   1.272
  240HOH     H1  925   0.206   3.169   1.315
  240HOH     H2  926   0.153   3.107   1.187
  241HOH      O  927   2.539   2.618   3.144
  241HOH     H1  928   2.492   2.603   3.062
  241HOH     H2  929   2.577   2.533   3.166
  242HOH      O  930   2.497   2.011   2.303
  242HOH     H1  931   2.574   1.964   2.270
  242HOH     H2  932   2.526   2.102   2.310
  243HOH      O  933   2.707   1.003   0.281
  243HOH     H1  934   2.622   0.981   0.243
  243HOH     H2  935   2.721   1.095   0.258
  244HOH      O  936   3.030   2.409   1.727
  244HOH     H1  937   3.106   2.362   1.761
  244HOH     H2  938   3.019   2.377   1.638
  245HOH      O  939   3.968   2.095   2.078
  245HOH     H1  940   4.030   2.151   2.031
  245HOH     H2  941   3.888   2.147   2.084
  246HOH      O  942   2.941   2.255   0.641
  246HOH     H1  943   2.945   2.298   0.726
  246HOH     H2  944   2.851   2.269   0.611
  247HOH      O  945   2.903   2.784   0.198
  247HOH     H1  946   2.878   2.762   0.108
  247HOH     H2  947   2.850   2.861   0.219
  248HOH      O  948   0.503   3.355   0.582
  248HOH     H1  949   0.517   3.442   0.545
  248HOH     H2  950   0.466   3.372   0.669
  249HOH      O  951   1.367   2.885   3.317
  249HOH     H1  952   1.415   2.853   3.240
  249HOH     H2  953   1.348   2.976   3.298
  250HOH      O  954   2.394   2.901   1.394
  250HOH     H1  955   2.400   2.856   1.479
  250HOH     H2  956   2.416   2.992   1.413
  251HOH      O  957   2.471   0.913   0.457
  251HOH     H1  958   2.442   1.004   0.465
  251HOH     H2  959   2.476   0.898   0.362
  252HOH      O  960   2.140   1.955   0.925
  252HOH     H1  961   2.207   2.006   0.971
  252HOH     H2  962   2.089   2.021   0.878
  253HOH      O  963   2.993   2.776   0.834
  253HOH     H1  964   2.909   2.822   0.834
  253HOH     H2  965   3.057   2.843   0.860
  254HOH      O  966   0.932   0.827   4.032
  254HOH     H1  967   0.917   0.921   4.020
  254HOH     H2  968   1.026   0.821   4.050
  255HOH      O  969   2.196   1.019   2.613
  255HOH     H1  970   2.181   0.980   2.527
  255HOH     H2  971   2.193   1.113   2.597
  256HOH      O  972   1.678   0.016   3.743
  256HOH     H1  973   1.592  -0.026   3.736
  256HOH     H2  974   1.658   0.108   3.757
  257HOH      O  975   3.907   2.451   0.030
  257HOH     H1  976   3.969   2.379   0.043
  257HOH     H2  977   3.954   2.515  -0.024
  258HOH      O  978   2.656   1.647   1.451
  258HOH     H1  979   2.644   1.571   1.395
  258HOH     H2  980   2.626   1.721   1.398
  259HOH      O  981   3.178   2.121   2.346
  259HOH     H1  982   3.224   2.068   2.282
  259HOH     H2  983   3.088   2.126   2.314
  260HOH      O  984   1.078   2.887  -0.002
  260HOH     H1  985   1.132   2.808  -0.000
  260HOH     H2  986   1.125   2.949   0.055
  261HOH      O  987   0.147   1.118   1.512
  261HOH     H1  988   0.187   1.176   1.448
  261HOH     H2  989   0.119   1.042   1.461
  262HOH      O  990   1.774   3.396   0.582
  262HOH     H1  991   1.815   3.325   0.534
  262HOH     H2  992   1.680   3.387   0.563
  263HOH      O  993   0.991   2.661   3.446
  263HOH     H1  994   0.940   2.634   3.522
  263HOH     H2  995   0.926   2.694   3.384
  264HOH      O  996   0.306   3.903   3.982
  264HOH     H1  997   0.374   3.856   3.935
  264HOH     H2  998   0.230   3.844   3.979
  265HOH      O  999   1.937   2.220   1.988
  265HOH     H1 1000   1.900   2.301   1.952
  265HOH     H2 1001   1.914   2.222   2.080
  266HOH      O 1002   1.841   1.373   1.319
  266HOH     H1 1003   1.776   1.305   1.305
  266HOH     H2 1004   1.864   1.403   1.232
  267HOH      O 1005   1.203   3.716   1.866
  267HOH     H1 1006   1.290   3.677   1.876
  267HOH     H2 1007   1.143   3.642   1.862
  268HOH      O 1008   3.624   3.626   0.669
  268HOH     H1 1009   3.551   3.673   0.629
  268HOH     H2 1010   3.637   3.549   0.613
  269HOH      O 1011   4.011   2.135   0.989
  269HOH     H1 1012   3.981   2.104   0.904
  269HOH     H2 1013   3.974   2.223   0.996
  270HOH      O 1014   0.092   3.901   0.673
  270HOH     H1 1015   0.034   3.826   0.664
  270HOH     H2 1016   0.108   3.931   0.583
  271HOH      O 1017   1.222   3.186   3.045
  271HOH     H1 1018   1.153   3.159   2.984
  271HOH     H2 1019   1.203   3.278   3.063
  272HOH      O 1020   3.535   1.337   1.045
  272HOH     H1 1021   3.538   1.397   1.120
  272HOH     H2 1022   3.443   1.337   1.019
  273HOH      O 1023   0.443   0.188   2.756
  273HOH     H1 1024   0.371   0.126   2.758
  273HOH     H2 1025   0.443   0.228   2.843
  274HOH      O 1026   0.474   0.224   1.385
  274HOH     H1 1027   0.549   0.274   1.352
  274HOH     H2 1028   0.414   0.291   1.418
  275HOH      O 1029   3.223   1.612   3.066
  275HOH     H1 1030   3.295   1.622   3.004
  275HOH     H2 1031   3.251   1.540   3.123
  276HOH      O 1032   2.255   2.703   2.352
  276HOH     H1 1033   2.266   2.755   2.432
  276HOH     H2 1034   2.342   2.669   2.334
  277HOH      O 1035   2.923   2.059   2.223
  277HOH     H1 1036   2.934   1.964   2.228
  277HOH     H2 1037   2.832   2.071   2.194
  278HOH      O 1038   3.371   2.414   1.354
  278HOH     H1 1039   3.351   2.456   1.437
  278HOH     H2 1040   3.352   2.321   1.369
  279HOH      O 1041   0.701   2.995   1.773
  279HOH     H1 1042   0.781   2.954   1.742
  279HOH     H2 1043   0.668   3.043   1.697
  280HOH      O 1044   3.347   2.657   3.783
  280HOH     H1 1045   3.367   2.598   3.711
  280HOH     H2 1046   3.297   2.728   3.743
  281HOH      O 1047   2.354   0.937   1.278
  281HOH     H1 1048   2.342   0.877   1.205
  281HOH     H2 1049   2.282   0.918   1.337
  282HOH      O 1050   2.023   2.278   0.533
  282HOH     H1 1051   1.997   2.253   0.622
  282HOH     H2 1052   2.117   2.264   0.530
  283HOH      O 1053   0.627   1.501   3.066
  283HOH     H1 1054   0.623   1.566   2.995
  283HOH     H2 1055   0.541   1.458   3.064
  284HOH      O 1056   3.026   1.745   3.187
  284HOH     H1 1057   3.087   1.702   3.128
  284HOH     H2 1058   3.079   1.771   3.262
  285HOH      O 1059   0.437   3.913   1.241
  285HOH     H1 1060   0.507   3.971   1.209
  285HOH     H2 1061   0.482   3.848   1.294
  286HOH      O 1062   3.090   2.701   1.490
  286HOH     H1 1063   3.117   2.664   1.574
  286HOH     H2 1064   3.162   2.758   1.464
  287HOH      O 1065   2.464   2.717   1.613
  287HOH     H1 1066   2.459   2.744   1.705
  287HOH     H2 1067   2.556   2.725   1.591
  288HOH      O 1068   0.990   0.624   0.932
  288HOH     H1 1069   1.029   0.711   0.944
  288HOH     H2 1070   0.897   0.641   0.916
  289HOH      O 1071   3.556   1.241   4.020
  289HOH     H1 1072   3.554   1.163   3.965
  289HOH     H2 1073   3.619   1.219   4.089
  290HOH      O 1074   3.231   2.838   3.572
  290HOH     H1 1075   3.171   2.765   3.557
  290HOH     H2 1076   3.285   2.841   3.493
  291HOH      O 1077   3.378   2.896   2.207
  291HOH     H1 1078   3.443   2.900   2.137
  291HOH     H2 1079   3.303   2.944   2.174
  292HOH      O 1080   3.657   3.909   3.414
  292HOH     H1 1081   3.628   3.973   3.349
  292HOH     H2 1082   3.651   3.955   3.497
  293HOH      O 1083   1.665   3.629   0.226
  293HOH     H1 1084   1.688   3.709   0.273
  293HOH     H2 1085   1.585   3.651   0.179
  294HOH      O 1086   2.490   2.667   4.022
  294HOH     H1 1087   2.398   2.643   4.007
  294HOH     H2 1088   2.524   2.598   4.078
  295HOH      O 1089   1.288   0.781   1.733
  295HOH     H1 1090   1.262   0.855   1.788
  295HOH     H2 1091   1.373   0.807   1.698
  296HOH      O 1092   1.443   3.013   0.742
  296HOH     H1 1093   1.403   2.975   0.820
  296HOH     H2 1094   1.480   3.096   0.771
  297HOH      O 1095   0.548   3.847   3.512
  297HOH     H1 1096   0.582   3.887   3.591
  297HOH     H2 1097   0.457   3.826   3.533
  298HOH      O 1098   3.709   3.040   2.168
  298HOH     H1 1099   3.646   3.071   2.104
  298HOH     H2 1100   3.664   3.047   2.252
  299HOH      O 1101   2.355   1.834   2.157
  299HOH     H1 1102   2.415   1.871   2.222
  299HOH     H2 1103   2.358   1.739   2.173
  300HOH      O 1104   1.241   0.605   3.348
  300HOH     H1 1105   1.167   0.579   3.403
  300HOH     H2 1106   1.307   0.537   3.363
  301HOH      O 1107   2.917   4.029   0.441
  301HOH     H1 1108   2.886   3.962   0.380
  301HOH     H2 1109   2.839   4.054   0.490
  302HOH      O 1110   1.327   3.772   0.470
  302HOH     H1 1111   1.264   3.701   0.483
  302HOH     H2 1112   1.397   3.732   0.418
  303HOH      O 1113   3.652   2.380   3.566
  303HOH     H1 1114   3.712   2.417   3.501
  303HOH     H2 1115   3.638   2.290   3.537
  304HOH      O 1116   2.082   2.119   2.894
  304HOH     H1 1117   2.001   2.146   2.850
  304HOH     H2 1118   2.075   2.158   2.981
  305HOH      O 1119   1.138   1.889   1.366
  305HOH     H1 1120   1.149   1.876   1.272
  305HOH     H2 1121   1.227   1.899   1.400
  306HOH      O 1122   3.835   3.509   3.179
  306HOH     H1 1123   3.898   3.469   3.239
  306HOH     H2 1124   3.849   3.603   3.188
  307HOH      O 1125   2.423   1.986   3.405
  307HOH     H1 1126   2.417   1.952   3.494
  307HOH     H2 1127   2.397   1.911   3.350
  308HOH      O 1128   3.823   1.280   3.878
  308HOH     H1 1129   3.784   1.276   3.791
  308HOH     H2 1130   3.792   1.364   3.914
  309HOH      O 1131   1.154   0.755   1.492
  309HOH     H1 1132   1.087   0.823   1.482
  309HOH     H2 1133   1.192   0.771   1.579
  310HOH      O 1134   3.736   1.082   3.012
  310HOH     H1 1135   3.796   1.013   2.981
  310HOH     H2 1136   3.704   1.050   3.096
  311HOH      O 1137   1.575   3.115   3.019
  311HOH     H1 1138   1.654   3.084   3.064
  311HOH     H2 1139   1.579   3.073   2.933
  312HOH      O 1140   1.763   2.869   1.151
  312HOH     H1 1141   1.779   2.963   1.160
  312HOH     H2 1142   1.822   2.841   1.081
  313HOH      O 1143   0.154   2.562   2.783
  313HOH     H1 1144   0.091   2.534   2.716
  313HOH     H2 1145   0.160   2.488   2.843
  314HOH      O 1146   4.007   0.173   2.828
  314HOH     H1 1147   4.013   0.150   2.921
  314HOH     H2 1148   3.995   0.268   2.828
  315HOH      O 1149   2.099   1.169   0.816
  315HOH     H1 1150   2.121   1.262   0.816
  315HOH     H2 1151   2.025   1.162   0.756
  316HOH      O 1152   4.022   1.318   1.305
  316HOH     H1 1153   4.103   1.293   1.262
  316HOH     H2 1154   3.967   1.353   1.235
  317HOH      O 1155   0.707   0.012   0.549
  317HOH     H1 1156   0.789   0.039   0.509
  317HOH     H2 1157   0.647   0.001   0.475
  318HOH      O 1158   4.012   0.676   1.395
  318HOH     H1 1159   4.013   0.673   1.490
  318HOH     H2 1160   3.920   0.662   1.371
  319HOH      O 1161   0.190   2.088   2.463
  319HOH     H1 1162   0.266   2.140   2.435
  319HOH     H2 1163   0.156   2.050   2.382
  320HOH      O 1164   3.723   0.240   0.231
  320HOH     H1 1165   3.809   0.201   0.215
  320HOH     H2 1166   3.665   0.165   0.243
  321HOH      O 1167   2.335   0.401   2.056
  321HOH     H1 1168   2.292   0.431   2.136
  321HOH     H2 1169   2.264   0.390   1.993
  322HOH      O 1170   0.683   0.302   2.294
  322HOH     H1 1171   0.615   0.337   2.352
  322HOH     H2 1172   0.636   0.240   2.238
  323HOH      O 1173   1.727   3.831   0.396
  323HOH     H1 1174   1.746   3.765   0.462
  323HOH     H2 1175   1.725   3.914   0.444
  324HOH      O 1176   1.224   3.202   0.992
  324HOH     H1 1177   1.207   3.111   0.968
  324HOH     H2 1178   1.311   3.201   1.031
  325HOH      O 1179   1.907   0.444   1.384
  325HOH     H1 1180   1.821   0.450   1.341
  325HOH     H2 1181   1.904   0.361   1.431
  326HOH      O 1182   3.270   1.338   3.740
  326HOH     H1 1183   3.257   1.416   3.686
  326HOH     H2 1184   3.290   1.372   3.827
  327HOH      O 1185   0.982   2.999   0.880
  327HOH     H1 1186   0.996   3.063   0.811
  327HOH     H2 1187   0.923   2.934   0.842
  328HOH      O 1188   1.089   2.406   2.539
  328HOH     H1 1189   1.042   2.451   2.609
  328HOH     H2 1190   1.022   2.392   2.471
  329HOH      O 1191   3.725   2.103   3.307
  329HOH     H1 1192   3.693   2.103   3.397
  329HOH     H2 1193   3.807   2.055   3.311
  330HOH      O 1194   2.748   1.602   3.980
  330HOH     H1 1195   2.654   1.619   3.981
  330HOH     H2 1196   2.757   1.511   4.007
  331HOH      O 1197   2.386   3.351   2.998
  331HOH     H1 1198   2.382   3.439   3.034
  331HOH     H2 1199   2.385   3.363   2.903
  332HOH      O 1200   0.664   1.769   3.278
  332HOH     H1 1201   0.689   1.779   3.186
  332HOH     H2 1202   0.735   1.719   3.317
  333HOH      O 1203   1.933   2.449   0.963
  333HOH     H1 1204   1.902   2.438   1.053
  333HOH     H2 1205   1.882   2.523   0.930
  334HOH      O 1206   1.059   1.605   2.217
  334HOH     H1 1207   0.987   1.564   2.265
  334HOH     H2 1208   1.052   1.569   2.129
  335HOH      O 1209   1.373   2.633   2.481
  335HOH     H1 1210   1.423   2.622   2.562
  335HOH     H2 1211   1.282   2.626   2.508
  336HOH      O 1212   0.740   3.270   2.019
  336HOH     H1 1213   0.797   3.275   2.096
  336HOH     H2 1214   0.799   3.249   1.947
  337HOH      O 1215   2.343   0.035   2.632
  337HOH     H1 1216   2.259   0.072   2.605
  337HOH     H2 1217   2.392   0.108   2.668
  338HOH      O 1218   0.546   3.637   0.537
  338HOH     H1 1219   0.465   3.685   0.517
  338HOH     H2 1220   0.547   3.632   0.633
  339HOH      O 1221   1.579   1.463   2.930
  339HOH     H1 1222   1.538   1.378   2.918
  339HOH     H2 1223   1.509   1.521   2.960
  340HOH      O 1224   2.049   0.131   1.167
  340HOH     H1 1225   2.088   0.045   1.185
  340HOH     H2 1226   1.997   0.151   1.245
  341HOH      O 1227   3.314   0.547   2.754
  341HOH     H1 1228   3.370   0.624   2.767
  341HOH     H2 1229   3.246   0.578   2.694
  342HOH      O 1230   0.552   1.880   0.915
  342HOH     H1 1231   0.631   1.851   0.959
  342HOH     H2 1232   0.520   1.954   0.968
  343HOH      O 1233   2.308   1.398   3.850
  343HOH     H1 1234   2.285   1.340   3.778
  343HOH     H2 1235   2.241   1.382   3.916
  344HOH      O 1236   0.601   3.074   0.020
  344HOH     H1 1237   0.532   3.010   0.038
  344HOH     H2 1238   0.681   3.022   0.016
  345HOH      O 1239   0.580   0.920   1.997
  345HOH     H1 1240   0.526   0.981   1.947
  345HOH     H2 1241   0.538   0.835   1.985
  346HOH      O 1242   3.007   0.970   1.822
  346HOH     H1 1243   2.975   0.885   1.791
  346HOH     H2 1244   2.965   0.983   1.907
  347HOH      O 1245   1.101   2.436   0.414
  347HOH     H1 1246   1.012   2.446   0.448
  347HOH     H2 1247   1.093   2.456   0.321
  348HOH      O 1248   0.397   2.061   2.055
  348HOH     H1 1249   0.480   2.015   2.043
  348HOH     H2 1250   0.419   2.136   2.111
  349HOH      O 1251   2.285   0.437   3.640
  349HOH     H1 1252   2.289   0.530   3.622
  349HOH     H2 1253   2.371   0.403   3.616
  350HOH      O 1254   1.799   3.341   0.841
  350HOH     H1 1255   1.891   3.348   0.866
  350HOH     H2 1256   1.796   3.372   0.751
  351HOH      O 1257   3.179   0.022   0.915
  351HOH     H1 1258   3.270   0.014   0.942
  351HOH     H2 1259   3.128  -0.007   0.990
  352HOH      O 1260   3.037   3.599   1.460
  352HOH     H1 1261   3.052   3.562   1.372
  352HOH     H2 1262   3.124   3.624   1.490
  353HOH      O 1263   3.587   0.292   1.838
  353HOH     H1 1264   3.616   0.383   1.831
  353HOH     H2 1265   3.560   0.283   1.929
  354HOH      O 1266   1.988   1.365   2.710
  354HOH     H1 1267   1.921   1.372   2.778
  354HOH     H2 1268   2.019   1.454   2.698
  355HOH      O 1269   2.688   0.178   3.001
  355HOH     H1 1270   2.769   0.171   2.950
  355HOH     H2 1271   2.714   0.223   3.081
  356HOH      O 1272   0.700   3.397   0.231
  356HOH     H1 1273   0.617   3.378   0.273
  356HOH     H2 1274   0.745   3.457   0.292
  357HOH      O 1275   2.686   1.771   3.544
  357HOH     H1 1276   2.707   1.808   3.629
  357HOH     H2 1277   2.599   1.733   3.555
  358HOH      O 1278   1.227   0.680   1.098
  358HOH     H1 1279   1.291   0.698   1.029
  358HOH     H2 1280   1.228   0.759   1.152
  359HOH      O 1281   2.474   1.613   3.589
  359HOH     H1 1282   2.379   1.607   3.584
  359HOH     H2 1283   2.498   1.552   3.659
  360HOH      O 1284   1.564   2.734   0.923
  360HOH     H1 1285   1.514   2.749   0.843
  360HOH     H2 1286   1.525   2.656   0.962
  361HOH      O 1287   1.819   0.594   3.058
  361HOH     H1 1288   1.762   0.628   3.126
  361HOH     H2 1289   1.907   0.623   3.083
  362HOH      O 1290   1.504   0.242   2.390
  362HOH     H1 1291   1.415   0.247   2.356
  362HOH     H2 1292   1.547   0.175   2.336
  363HOH      O 1293   1.745   0.694   1.155
  363HOH     H1 1294   1.736   0.633   1.228
  363HOH     H2 1295   1.837   0.717   1.153
  364HOH      O 1296   2.189   0.991   3.213
  364HOH     H1 1297   2.192   0.921   3.148
  364HOH     H2 1298   2.150   1.065   3.167
  365HOH      O 1299   0.719   2.813   0.786
  365HOH     H1 1300   0.715   2.781   0.876
  365HOH     H2 1301   0.772   2.748   0.740
  366HOH      O 1302   1.937   1.891   3.649
  366HOH     H1 1303   1.885   1.819   3.685
  366HOH     H2 1304   1.878   1.966   3.650
  367HOH      O 1305   1.811   3.613   2.640
  367HOH     H1 1306   1.808   3.607   2.545
  367HOH     H2 1307   1.866   3.540   2.667
  368HOH      O 1308   0.248   2.590   2.519
  368HOH     H1 1309   0.185   2.656   2.492
  368HOH     H2 1310   0.240   2.586   2.614
  369HOH      O 1311   2.874   0.486   3.048
  369HOH     H1 1312   2.947   0.539   3.014
  369HOH     H2 1313   2.904   0.395   3.038
  370HOH      O 1314   2.500   0.408   3.372
  370HOH     H1 1315   2.504   0.497   3.409
  370HOH     H2 1316   2.485   0.351   3.447
  371HOH      O 1317   3.041   3.802   2.708
  371HOH     H1 1318   3.032   3.860   2.632
  371HOH     H2 1319   2.959   3.814   2.757
  372HOH      O 1320   2.648   1.833   3.842
  372HOH     H1 1321   2.582   1.782   3.890
  372HOH     H2 1322   2.687   1.890   3.908
  373HOH      O 1323   1.699   1.020   0.884
  373HOH     H1 1324   1.706   0.925   0.872
  373HOH     H2 1325   1.789   1.051   0.882
  374HOH      O 1326   0.513   1.377   2.425
  374HOH     H1 1327   0.418   1.368   2.416
  374HOH     H2 1328   0.537   1.447   2.364
  375HOH      O 1329   2.332   4.012   3.704
  375HOH     H1 1330   2.260   4.028   3.765
  375HOH     H2 1331   2.395   3.960   3.753
  376HOH      O 1332   1.432   3.856   1.240
  376HOH     H1 1333   1.377   3.907   1.181
  376HOH     H2 1334   1.518   3.896   1.233
  377HOH      O 1335   3.282   3.845   1.970
  377HOH     H1 1336   3.371   3.824   1.941
  377HOH     H2 1337   3.250   3.765   2.010
  378HOH      O 1338   0.398   3.289   0.865
  378HOH     H1 1339   0.422   3.214   0.919
  378HOH     H2 1340   0.347   3.251   0.793
  379HOH      O 1341   3.856   2.902   1.606
  379HOH     H1 1342   3.927   2.963   1.624
  379HOH     H2 1343   3.789   2.922   1.671
  380HOH      O 1344   1.508   3.425   2.930
  380HOH     H1 1345   1.488   3.507   2.976
  380HOH     H2 1346   1.425   3.377   2.930
  381HOH      O 1347   0.777   2.553   1.698
  381HOH     H1 1348   0.742   2.629   1.652
  381HOH     H2 1349   0.855   2.584   1.743
  382HOH      O 1350   1.009   2.728   3.811
  382HOH     H1 1351   0.956   2.652   3.835
  382HOH     H2 1352   1.015   2.780   3.891
  383HOH      O 1353   3.110   1.711   1.278
  383HOH     H1 1354   3.078   1.621   1.285
  383HOH     H2 1355   3.117   1.726   1.184
  384HOH      O 1356   1.999   1.635   0.489
  384HOH     H1 1357   1.993   1.605   0.398
  384HOH     H2 1358   2.041   1.721   0.483
  385HOH      O 1359   2.813   3.435   2.295
  385HOH     H1 1360   2.807   3.408   2.203
  385HOH     H2 1361   2.722   3.450   2.321
  386HOH      O 1362   3.553   1.463   1.291
  386HOH     H1 1363   3.611   1.398   1.330
  386HOH     H2 1364   3.563   1.541   1.346
  387HOH      O 1365   1.246   0.547   2.994
  387HOH     H1 1366   1.233   0.534   3.088
  387HOH     H2 1367   1.286   0.466   2.964
  388HOH      O 1368   0.494   3.167   2.593
  388HOH     H1 1369   0.444   3.138   2.517
  388HOH     H2 1370   0.576   3.202   2.557
  389HOH      O 1371   3.614   0.016   3.649
  389HOH     H1 1372   3.654   0.032   3.734
  389HOH     H2 1373   3.550   0.086   3.639
  390HOH      O 1374   3.009   1.365   2.816
  390HOH     H1 1375   3.071   1.321   2.874
  390HOH     H2 1376   3.052   1.448   2.793
  391HOH      O 1377   1.339   2.491   3.831
  391HOH     H1 1378   1.404   2.423   3.812
  391HOH     H2 1379   1.375   2.570   3.791
  392HOH      O 1380   2.556   3.306   0.300
  392HOH     H1 1381   2.555   3.215   0.329
  392HOH     H2 1382   2.642   3.339   0.326
  393HOH      O 1383   3.249   1.962   0.159
  393HOH     H1 1384   3.171   1.984   0.109
  393HOH     H2 1385   3.319   2.015   0.120
  394HOH      O 1386   2.494   1.346   2.790
  394HOH     H1 1387   2.506   1.297   2.871
  394HOH     H2 1388   2.577   1.333   2.743
  395HOH      O 1389   0.257   0.903   0.361
  395HOH     H1 1390   0.169   0.886   0.395
  395HOH     H2 1391   0.268   0.838   0.291
  396HOH      O 1392   0.003   2.843   3.516
  396HOH     H1 1393  -0.037   2.831   3.602
  396HOH     H2 1394   0.037   2.756   3.493
  397HOH      O 1395   1.961   1.447   3.533
  397HOH     H1 1396   1.982   1.402   3.451
  397HOH     H2 1397   1.888   1.504   3.510
  398HOH      O 1398   1.493   0.075   0.281
  398HOH     H1 1399   1.578   0.031   0.271
  398HOH     H2 1400   1.442   0.042   0.207
  399HOH      O 1401   0.884   3.686   1.533
  399HOH     H1 1402   0.870   3.715   1.623
  399HOH     H2 1403   0.908   3.594   1.541
  400HOH      O 1404   1.035   0.878   2.148
  400HOH     H1 1405   0.997   0.805   2.195
  400HOH     H2 1406   0.977   0.892   2.073
  401HOH      O 1407   2.916   1.787   2.243
  401HOH     H1 1408   2.994   1.766   2.192
  401HOH     H2 1409   2.843   1.752   2.192
  402HOH      O 1410   3.573   0.041   0.436
  402HOH     H1 1411   3.568   0.121   0.488
  402HOH     H2 1412   3.501   0.048   0.373
  403HOH      O 1413   2.431   1.067   0.848
  403HOH     H1 1414   2.420   1.082   0.754
  403HOH     H2 1415   2.346   1.033   0.877
  404HOH      O 1416   1.699   1.704   0.384
  404HOH     H1 1417   1.735   1.690   0.296
  404HOH     H2 1418   1.752   1.647   0.440
  405HOH      O 1419   0.790   1.356   1.956
  405HOH     H1 1420   0.705   1.387   1.925
  405HOH     H2 1421   0.803   1.273   1.910
  406HOH      O 1422   1.194   1.188   3.869
  406HOH     H1 1423   1.151   1.196   3.954
  406HOH     H2 1424   1.239   1.104   3.872
  407HOH      O 1425   3.901   2.116   1.674
  407HOH     H1 1426   3.974   2.064   1.709
  407HOH     H2 1427   3.923   2.129   1.582
  408HOH      O 1428   3.253   0.076   2.487
  408HOH     H1 1429   3.318   0.030   2.540
  408HOH     H2 1430   3.177   0.016   2.487
  409HOH      O 1431   3.850   0.718   0.645
  409HOH     H1 1432   3.886   0.631   0.666
  409HOH     H2 1433   3.924   0.765   0.607
  410HOH      O 1434   2.490   3.060   2.723
  410HOH     H1 1435   2.533   3.032   2.642
  410HOH     H2 1436   2.491   3.156   2.717
  411HOH      O 1437   0.214   1.743   2.530
  411HOH     H1 1438   0.247   1.742   2.440
  411HOH     H2 1439   0.260   1.815   2.572
  412HOH      O 1440   2.689   0.398   0.448
  412HOH     H1 1441   2.615   0.337   0.451
  412HOH     H2 1442   2.676   0.454   0.524
  413HOH      O 1443   3.192   0.604   1.818
  413HOH     H1 1444   3.163   0.608   1.909
  413HOH     H2 1445   3.245   0.524   1.813
  414HOH      O 1446   2.321   1.241   2.388
  414HOH     H1 1447   2.356   1.153   2.376
  414HOH     H2 1448   2.359   1.270   2.471
  415HOH      O 1449   2.086   2.534   1.728
  415HOH     H1 1450   2.160   2.518   1.786
  415HOH     H2 1451   2.009   2.523   1.784
  416HOH      O 1452   2.750   2.553   2.203
  416HOH     H1 1453   2.817   2.487   2.220
  416HOH     H2 1454   2.668   2.503   2.195
  417HOH      O 1455   1.683   2.053   1.207
  417HOH     H1 1456   1.611   1.990   1.211
  417HOH     H2 1457   1.651   2.129   1.258
  418HOH      O 1458   2.764   3.379   0.936
  418HOH     H1 1459   2.851   3.369   0.974
  418HOH     H2 1460   2.780   3.412   0.847
  419HOH      O 1461   2.697   3.146   1.294
  419HOH     H1 1462   2.735   3.190   1.370
  419HOH     H2 1463   2.619   3.103   1.328
  420HOH      O 1464   1.284   0.218   3.836
  420HOH     H1 1465   1.204   0.166   3.833
  420HOH     H2 1466   1.255   0.308   3.822
  421HOH      O 1467   2.541   0.863   3.165
  421HOH     H1 1468   2.557   0.856   3.259
  421HOH     H2 1469   2.607   0.924   3.133
  422HOH      O 1470   0.971   2.359   4.026
  422HOH     H1 1471   0.899   2.320   3.976
  422HOH     H2 1472   0.959   2.324   4.114
  423HOH      O 1473   1.201   1.400   0.562
  423HOH     H1 1474   1.138   1.330   0.575
  423HOH     H2 1475   1.284   1.354   0.547
  424HOH      O 1476   0.411   3.581   3.111
  424HOH     H1 1477   0.373   3.663   3.142
  424HOH     H2 1478   0.472   3.607   3.042
  425HOH      O 1479   0.266   3.922   2.502
  425HOH     H1 1480   0.210   3.997   2.479
  425HOH     H2 1481   0.280   3.876   2.419
  426HOH      O 1482   0.955   0.055   0.448
  426HOH     H1 1483   1.050   0.046   0.441
  426HOH     H2 1484   0.934   0.130   0.392
  427HOH      O 1485   3.534   1.473   0.809
  427HOH     H1 1486   3.462   1.534   0.826
  427HOH     H2 1487   3.538   1.418   0.887
  428HOH      O 1488   1.890   3.209   0.105
  428HOH     H1 1489   1.928   3.264   0.174
  428HOH     H2 1490   1.902   3.260   0.025
  429HOH      O 1491   3.915   1.557   0.257
  429HOH     H1 1492   3.908   1.616   0.182
  429HOH     H2 1493   4.009   1.541   0.267
  430HOH      O 1494   2.214   1.964   2.689
  430HOH     H1 1495   2.240   2.023   2.618
  430HOH     H2 1496   2.201   2.022   2.764
  431HOH      O 1497   0.840   2.535   3.619
  431HOH     H1 1498   0.794   2.549   3.701
  431HOH     H2 1499   0.773   2.499   3.560
  432HOH      O 1500   3.937   1.131   0.434
  432HOH     H1 1501   3.929   1.174   0.349
  432HOH     H2 1502   3.868   1.170   0.488
  433HOH      O 1503   0.747   3.653   1.782
  433HOH     H1 1504   0.651   3.657   1.786
  433HOH     H2 1505   0.772   3.602   1.859
  434HOH      O 1506   3.750   1.904   3.798
  434HOH     H1 1507   3.690   1.973   3.826
  434HOH     H2 1508   3.693   1.836   3.762
  435HOH      O 1509   2.680   1.423   2.239
  435HOH     H1 1510   2.771   1.452   2.248
  435HOH     H2 1511   2.662   1.433   2.145
  436HOH      O 1512   0.303   2.032   4.050
  436HOH     H1 1513   0.315   2.047   3.957
  436HOH     H2 1514   0.211   2.050   4.066
  437HOH      O 1515   0.091   1.939   3.567
  437HOH     H1 1516   0.136   1.879   3.626
  437HOH     H2 1517   0.121   1.914   3.479
  438HOH      O 1518   0.747   0.644   1.563
  438HOH     H1 1519   0.819   0.687   1.610
  438HOH     H2 1520   0.738   0.559   1.605
  439HOH      O 1521   1.092   0.995   0.213
  439HOH     H1 1522   1.093   0.917   0.157
  439HOH     H2 1523   1.153   1.055   0.171
  440HOH      O 1524   3.402   3.756   3.974
  440HOH     H1 1525   3.338   3.826   3.960
  440HOH     H2 1526   3.471   3.774   3.911
  441HOH      O 1527   2.648   0.949   0.960
  441HOH     H1 1528   2.584   0.995   0.905
  441HOH     H2 1529   2.733   0.968   0.920
  442HOH      O 1530   0.689   3.172   0.998
  442HOH     H1 1531   0.775   3.166   1.039
  442HOH     H2 1532   0.630   3.192   1.071
  443HOH      O 1533   1.515   2.728   0.047
  443HOH     H1 1534   1.524   2.815   0.086
  443HOH     H2 1535   1.503   2.670   0.122
  444HOH      O 1536   1.379   0.149   0.988
  444HOH     H1 1537   1.382   0.232   0.941
  444HOH     H2 1538   1.470   0.120   0.992
  445HOH      O 1539   2.968   1.413   2.314
  445HOH     H1 1540   2.994   1.451   2.230
  445HOH     H2 1541   3.045   1.425   2.370
  446HOH      O 1542   3.208   2.692   1.752
  446HOH     H1 1543   3.236   2.784   1.756
  446HOH     H2 1544   3.138   2.686   1.817
  447HOH      O 1545   3.009   3.131   2.752
  447HOH     H1 1546   2.958   3.157   2.675
  447HOH     H2 1547   3.074   3.070   2.718
  448HOH      O 1548   2.863   1.961   2.999
  448HOH     H1 1549   2.947   1.925   3.025
  448HOH     H2 1550   2.807   1.949   3.076
  449HOH      O 1551   0.095   3.758   2.012
  449HOH     H1 1552   0.039   3.792   1.942
  449HOH     H2 1553   0.183   3.784   1.986
  450HOH      O 1554   2.109   0.442   1.845
  450HOH     H1 1555   2.015   0.426   1.853
  450HOH     H2 1556   2.136   0.390   1.770
  451HOH      O 1557   1.355   2.586   1.142
  451HOH     H1 1558   1.437   2.589   1.192
  451HOH     H2 1559   1.315   2.671   1.155
  452HOH      O 1560   1.098   3.959   1.964
  452HOH     H1 1561   1.159   4.015   1.917
  452HOH     H2 1562   1.129   3.870   1.948
  453HOH      O 1563   2.975   3.037   1.271
  453HOH     H1 1564   3.050   3.062   1.324
  453HOH     H2 1565   2.903   3.091   1.303
  454HOH      O 1566   0.269   1.573   2.749
  454HOH     H1 1567   0.257   1.659   2.789
  454HOH     H2 1568   0.235   1.583   2.660
  455HOH      O 1569   0.270   1.484   1.095
  455HOH     H1 1570   0.334   1.550   1.122
  455HOH     H2 1571   0.309   1.442   1.018
  456HOH      O 1572   2.685   2.187   3.839
  456HOH     H1 1573   2.702   2.229   3.755
  456HOH     H2 1574   2.594   2.157   3.832
  457HOH      O 1575   3.923   0.574   0.155
  457HOH     H1 1576   3.936   0.513   0.228
  457HOH     H2 1577   3.851   0.536   0.104
  458HOH      O 1578   3.002   3.929   2.473
  458HOH     H1 1579   3.023   3.895   2.386
  458HOH     H2 1580   2.909   3.910   2.485
  459HOH      O 1581   3.184   3.007   0.899
  459HOH     H1 1582   3.185   3.032   0.991
  459HOH     H2 1583   3.276   3.004   0.874
  460HOH      O 1584   2.754   2.151   3.204
  460HOH     H1 1585   2.818   2.178   3.138
  460HOH     H2 1586   2.807   2.110   3.272
  461HOH      O 1587   1.284   3.588   1.104
  461HOH     H1 1588   1.375   3.575   1.076
  461HOH     H2 1589   1.291   3.628   1.191
  462HOH      O 1590   2.197   2.706   3.428
  462HOH     H1 1591   2.270   2.703   3.367
  462HOH     H2 1592   2.129   2.654   3.386
  463HOH      O 1593   3.031   3.976   1.439
  463HOH     H1 1594   3.061   4.011   1.356
  463HOH     H2 1595   3.051   4.044   1.503
  464HOH      O 1596   1.022   2.804   2.722
  464HOH     H1 1597   1.057   2.715   2.726
  464HOH     H2 1598   1.040   2.841   2.809
  465HOH      O 1599   2.471   0.895   0.186
  465HOH     H1 1600   2.462   0.953   0.111
  465HOH     H2 1601   2.419   0.818   0.163
  466HOH      O 1602   1.284   2.084   1.019
  466HOH     H1 1603   1.282   2.106   0.926
  466HOH     H2 1604   1.327   2.159   1.060
  467HOH      O 1605   3.426   0.072   2.975
  467HOH     H1 1606   3.365  -0.001   2.988
  467HOH     H2 1607   3.492   0.062   3.044
  468HOH      O 1608   1.750   3.850   3.070
  468HOH     H1 1609   1.826   3.793   3.081
  468HOH     H2 1610   1.693   3.828   3.143
  469HOH      O 1611   3.747   2.346   0.266
  469HOH     H1 1612   3.735   2.437   0.293
  469HOH     H2 1613   3.807   2.351   0.192
  470HOH      O 1614   1.071   1.734   3.070
  470HOH     H1 1615   1.037   1.717   3.158
  470HOH     H2 1616   1.006   1.695   3.011
  471HOH      O 1617   2.945   2.852   3.404
  471HOH     H1 1618   3.001   2.869   3.328
  471HOH     H2 1619   2.869   2.907   3.391
  472HOH      O 1620   1.877   0.779   3.629
  472HOH     H1 1621   1.783   0.790   3.644
  472HOH     H2 1622   1.915   0.861   3.661
  473HOH      O 1623   2.547   3.480   3.392
  473HOH     H1 1624   2.601   3.510   3.319
  473HOH     H2 1625   2.459   3.474   3.357
  474HOH      O 1626   2.980   0.249   1.559
  474HOH     H1 1627   3.037   0.223   1.486
  474HOH     H2 1628   2.924   0.173   1.574
  475HOH      O 1629   0.572   1.990   2.383
  475HOH     H1 1630   0.612   1.974   2.298
  475HOH     H2 1631   0.526   2.073   2.373
  476HOH      O 1632   2.760   2.023   1.124
  476HOH     H1 1633   2.806   2.001   1.205
  476HOH     H2 1634   2.771   1.946   1.069
  477HOH      O 1635   1.048   1.452   1.976
  477HOH     H1 1636   0.966   1.412   1.946
  477HOH     H2 1637   1.100   1.463   1.897
  478HOH      O 1638   0.528   0.673   0.063
  478HOH     H1 1639   0.569   0.587   0.067
  478HOH     H2 1640   0.548   0.705  -0.025
  479HOH      O 1641   2.316   3.499   1.077
  479HOH     H1 1642   2.345   3.407   1.073
  479HOH     H2 1643   2.341   3.527   1.165
  480HOH      O 1644   2.568   3.766   0.108
  480HOH     H1 1645   2.585   3.782   0.201
  480HOH     H2 1646   2.543   3.673   0.104
  481HOH      O 1647   3.033   2.103   0.320
  481HOH     H1 1648   2.979   2.182   0.309
  481HOH     H2 1649   3.054   2.076   0.231
  482HOH      O 1650   3.289   3.190   2.403
  482HOH     H1 1651   3.220   3.211   2.339
  482HOH     H2 1652   3.243   3.142   2.472
  483HOH      O 1653   3.941   1.515   2.668
  483HOH     H1 1654   3.976   1.604   2.674
  483HOH     H2 1655   4.004   1.461   2.716
  484HOH      O 1656   0.979   2.748   2.268
  484HOH     H1 1657   1.018   2.796   2.341
  484HOH     H2 1658   1.027   2.665   2.265
  485HOH      O 1659   3.308   2.628   2.255
  485HOH     H1 1660   3.317   2.724   2.257
  485HOH     H2 1661   3.355   2.602   2.176
  486HOH      O 1662   0.763   4.001   1.422
  486HOH     H1 1663   0.696   3.943   1.458
  486HOH     H2 1664   0.737   4.015   1.331
  487HOH      O 1665   0.719   2.802   2.299
  487HOH     H1 1666   0.709   2.786   2.393
  487HOH     H2 1667   0.808   2.774   2.279
  488HOH      O 1668   3.187   0.914   3.432
  488HOH     H1 1669   3.201   0.962   3.514
  488HOH     H2 1670   3.133   0.838   3.458
  489HOH      O 1671   3.976   2.262   0.454
  489HOH     H1 1672   4.027   2.313   0.392
  489HOH     H2 1673   3.886   2.294   0.444
  490HOH      O 1674   0.338   2.424   0.209
  490HOH     H1 1675   0.306   2.506   0.170
  490HOH     H2 1676   0.392   2.453   0.283
  491HOH      O 1677   2.380   0.059   2.297
  491HOH     H1 1678   2.360  -0.024   2.341
  491HOH     H2 1679   2.361   0.126   2.363
  492HOH      O 1680   3.422   0.019   1.234
  492HOH     H1 1681   3.455   0.074   1.163
  492HOH     H2 1682   3.361   0.075   1.282
  493HOH      O 1683   0.167   3.401   3.079
  493HOH     H1 1684   0.237   3.462   3.057
  493HOH     H2 1685   0.091   3.433   3.031
  494HOH      O 1686   3.255   2.971   2.887
  494HOH     H1 1687   3.212   3.056   2.880
  494HOH     H2 1688   3.186   2.907   2.871
  495HOH      O 1689   1.034   2.361   3.510
  495HOH     H1 1690   1.122   2.390   3.532
  495HOH     H2 1691   0.976   2.414   3.564
  496HOH      O 1692   3.589   1.737   3.631
  496HOH     H1 1693   3.509   1.717   3.581
  496HOH     H2 1694   3.645   1.783   3.569
  497HOH      O 1695   0.146   2.320   1.512
  497HOH     H1 1696   0.129   2.413   1.523
  497HOH     H2 1697   0.224   2.303   1.564
  498HOH      O 1698   1.300   1.881   3.744
  498HOH     H1 1699   1.246   1.942   3.695
  498HOH     H2 1700   1.243   1.806   3.760
  499HOH      O 1701   0.444   3.267   3.997
  499HOH     H1 1702   0.514   3.212   4.031
  499HOH     H2 1703   0.446   3.253   3.902
  500HOH      O 1704   3.431   3.040   0.788
  500HOH     H1 1705   3.471   2.954   0.776
  500HOH     H2 1706   3.401   3.066   0.701
  501HOH      O 1707   1.428   1.268   2.353
  501HOH     H1 1708   1.398   1.355   2.376
  501HOH     H2 1709   1.403   1.213   2.427
  502HOH      O 1710   3.673   0.539   0.350
  502HOH     H1 1711   3.684   0.450   0.316
  502HOH     H2 1712   3.758   0.562   0.387
  503HOH      O 1713   2.765   3.764   3.632
  503HOH     H1 1714   2.764   3.771   3.728
  503HOH     H2 1715   2.799   3.676   3.616
  504HOH      O 1716   0.075   2.987   1.668
  504HOH     H1 1717   0.153   2.961   1.619
  504HOH     H2 1718   0.073   3.082   1.662
  505HOH      O 1719   1.484   2.179   0.376
  505HOH     H1 1720   1.567   2.155   0.417
  505HOH     H2 1721   1.508   2.245   0.310
  506HOH      O 1722   3.338   1.769   0.339
  506HOH     H1 1723   3.342   1.820   0.420
  506HOH     H2 1724   3.307   1.831   0.273
  507HOH      O 1725   1.996   2.556   3.284
  507HOH     H1 1726   2.047   2.496   3.229
  507HOH     H2 1727   1.912   2.564   3.239
  508HOH      O 1728   1.285   1.651   2.630
  508HOH     H1 1729   1.286   1.685   2.719
  508HOH     H2 1730   1.307   1.726   2.575
  509HOH      O 1731   0.461   1.205   3.702
  509HOH     H1 1732   0.467   1.222   3.608
  509HOH     H2 1733   0.470   1.110   3.709
  510HOH      O 1734   0.389   2.874   0.036
  510HOH     H1 1735   0.330   2.846   0.106
  510HOH     H2 1736   0.412   2.793  -0.010
  511HOH      O 1737   1.815   1.696   3.767
  511HOH     H1 1738   1.722   1.696   3.793
  511HOH     H2 1739   1.843   1.606   3.779
  512HOH      O 1740   4.026   0.872   0.459
  512HOH     H1 1741   4.003   0.964   0.472
  512HOH     H2 1742   3.993   0.852   0.371
  513HOH      O 1743   2.839   2.857   0.598
  513HOH     H1 1744   2.759   2.805   0.585
  513HOH     H2 1745   2.908   2.792   0.606
  514HOH      O 1746   0.908   0.681   2.265
  514HOH     H1 1747   0.919   0.688   2.360
  514HOH     H2 1748   0.815   0.661   2.254
  515HOH      O 1749   3.485   0.593   3.955
  515HOH     H1 1750   3.427   0.669   3.946
  515HOH     H2 1751   3.454   0.549   4.034
  516HOH      O 1752   0.752   2.101   1.882
  516HOH     H1 1753   0.703   2.171   1.925
  516HOH     H2 1754   0.769   2.134   1.794
  517HOH      O 1755   4.028   1.044   3.478
  517HOH     H1 1756   4.015   1.136   3.457
  517HOH     H2 1757   4.073   1.046   3.563
  518HOH      O 1758   3.625   2.116   0.271
  518HOH     H1 1759   3.677   2.060   0.330
  518HOH     H2 1760   3.653   2.205   0.292
  519HOH      O 1761   3.107   0.102   3.117
  519HOH     H1 1762   3.167   0.040   3.076
  519HOH     H2 1763   3.060   0.142   3.044
  520HOH      O 1764   2.396   3.852   2.440
  520HOH     H1 1765   2.375   3.765   2.472
  520HOH     H2 1766   2.414   3.903   2.520
  521HOH      O 1767   1.580   0.327   3.175
  521HOH     H1 1768   1.500   0.336   3.123
  521HOH     H2 1769   1.615   0.241   3.150
  522HOH      O 1770   0.507   1.955   2.818
  522HOH     H1 1771   0.578   1.933   2.878
  522HOH     H2 1772   0.533   1.917   2.734
  523HOH      O 1773   3.677   3.142   1.260
  523HOH     H1 1774   3.690   3.048   1.267
  523HOH     H2 1775   3.730   3.168   1.184
  524HOH      O 1776   2.145   0.295   0.766
  524HOH     H1 1777   2.143   0.218   0.709
  524HOH     H2 1778   2.135   0.369   0.705
  525HOH      O 1779   2.603   2.692   0.613
  525HOH     H1 1780   2.571   2.686   0.703
  525HOH     H2 1781   2.523   2.705   0.561
  526HOH      O 1782   3.502   2.514   0.674
  526HOH     H1 1783   3.440   2.503   0.602
  526HOH     H2 1784   3.447   2.513   0.753
  527HOH      O 1785   3.201   2.346   3.694
  527HOH     H1 1786   3.167   2.289   3.625
  527HOH     H2 1787   3.274   2.392   3.654
  528HOH      O 1788   3.900   1.744   0.091
  528HOH     H1 1789   3.983   1.782   0.063
  528HOH     H2 1790   3.836   1.778   0.028
  529HOH      O 1791   3.357   1.991   1.082
  529HOH     H1 1792   3.359   1.917   1.143
  529HOH     H2 1793   3.442   2.033   1.092
  530HOH      O 1794   0.078   1.254   2.123
  530HOH     H1 1795   0.106   1.163   2.136
  530HOH     H2 1796   0.023   1.251   2.045
  531HOH      O 1797   2.194   1.515   2.508
  531HOH     H1 1798   2.216   1.513   2.415
  531HOH     H2 1799   2.193   1.423   2.534
  532HOH      O 1800   0.754   1.326   2.594
  532HOH     H1 1801   0.765   1.236   2.624
  532HOH     H2 1802   0.667   1.328   2.554
  533HOH      O 1803   3.825   3.698   3.424
  533HOH     H1 1804   3.753   3.759   3.410
  533HOH     H2 1805   3.890   3.722   3.357
  534HOH      O 1806   3.130   2.049   0.722
  534HOH     H1 1807   3.067   2.100   0.672
  534HOH     H2 1808   3.172   2.112   0.780
  535HOH      O 1809   0.574   2.018   3.290
  535HOH     H1 1810   0.483   2.003   3.315
  535HOH     H2 1811   0.613   1.931   3.287
  536HOH      O 1812   0.599   3.760   1.462
  536HOH     H1 1813   0.662   3.715   1.519
  536HOH     H2 1814   0.616   3.724   1.375
  537HOH      O 1815   0.702   1.561   2.742
  537HOH     H1 1816   0.731   1.499   2.675
  537HOH     H2 1817   0.718   1.648   2.703
  538HOH      O 1818   0.083   0.556   1.809
  538HOH     H1 1819   0.067   0.490   1.877
  538HOH     H2 1820   0.175   0.578   1.819
  539HOH      O 1821   3.437   1.418   2.191
  539HOH     H1 1822   3.393   1.420   2.106
  539HOH     H2 1823   3.430   1.326   2.219
  540HOH      O 1824   3.093   3.752   3.549
  540HOH     H1 1825   3.084   3.662   3.518
  540HOH     H2 1826   3.014   3.796   3.518
  541HOH      O 1827   0.240   1.800   0.326
  541HOH     H1 1828   0.147   1.815   0.344
  541HOH     H2 1829   0.242   1.766   0.237
  542HOH      O 1830   2.379   2.175   3.847
  542HOH     H1 1831   2.421   2.188   3.932
  542HOH     H2 1832   2.297   2.129   3.867
  543HOH      O 1833   2.474   0.236   0.426
  543HOH     H1 1834   2.454   0.323   0.460
  543HOH     H2 1835   2.417   0.227   0.349
  544HOH      O 1836   3.216   1.566   0.150
  544HOH     H1 1837   3.264   1.632   0.200
  544HOH     H2 1838   3.203   1.494   0.212
  545HOH      O 1839   1.790   3.151   0.430
  545HOH     H1 1840   1.834   3.094   0.367
  545HOH     H2 1841   1.760   3.091   0.498
  546HOH      O 1842   0.819   3.414   3.677
  546HOH     H1 1843   0.826   3.501   3.718
  546HOH     H2 1844   0.856   3.354   3.741
  547HOH      O 1845   2.039   3.309   0.325
  547HOH     H1 1846   2.010   3.254   0.398
  547HOH     H2 1847   2.119   3.267   0.295
  548HOH      O 1848   0.940   1.427   0.380
  548HOH     H1 1849   1.004   1.365   0.346
  548HOH     H2 1850   0.964   1.510   0.339
  549HOH      O 1851   3.184   1.374   0.333
  549HOH     H1 1852   3.263   1.321   0.325
  549HOH     H2 1853   3.126   1.322   0.389
  550HOH      O 1854   2.686   2.113   2.116
  550HOH     H1 1855   2.641   2.055   2.054
  550HOH     H2 1856   2.691   2.197   2.070
  551HOH      O 1857   3.655   3.099   2.883
  551HOH     H1 1858   3.617   3.041   2.949
  551HOH     H2 1859   3.748   3.076   2.882
  552HOH      O 1860   0.035   1.736   3.069
  552HOH     H1 1861   0.019   1.709   2.979
  552HOH     H2 1862   0.059   1.655   3.114
  553HOH      O 1863   2.513   2.289   2.396
  553HOH     H1 1864   2.531   2.338   2.316
  553HOH     H2 1865   2.424   2.314   2.420
  554HOH      O 1866   1.678   0.734   0.899
  554HOH     H1 1867   1.701   0.651   0.856
  554HOH     H2 1868   1.705   0.721   0.991
  555HOH      O 1869   1.389   3.028   0.295
  555HOH     H1 1870   1.330   3.073   0.234
  555HOH     H2 1871   1.476   3.040   0.257
  556HOH      O 1872   0.399   1.030   0.567
  556HOH     H1 1873   0.344   0.997   0.496
  556HOH     H2 1874   0.489   1.006   0.542
  557HOH      O 1875   0.119   1.975   1.450
  557HOH     H1 1876   0.060   2.048   1.429
  557HOH     H2 1877   0.129   1.979   1.545
  558HOH      O 1878   2.581   0.882   1.427
  558HOH     H1 1879   2.515   0.906   1.362
  558HOH     H2 1880   2.651   0.840   1.376
  559HOH      O 1881   1.852   1.333   0.363
  559HOH     H1 1882   1.821   1.407   0.310
  559HOH     H2 1883   1.893   1.374   0.439
  560HOH      O 1884   2.469   0.652   0.798
  560HOH     H1 1885   2.410   0.665   0.724
  560HOH     H2 1886   2.423   0.591   0.855
  561HOH      O 1887   2.328   0.447   0.942
  561HOH     H1 1888   2.334   0.373   0.882
  561HOH     H2 1889   2.372   0.417   1.022
  562HOH      O 1890   3.157   0.854   3.711
  562HOH     H1 1891   3.103   0.802   3.651
  562HOH     H2 1892   3.100   0.926   3.738
  563HOH      O 1893   1.378   2.273   0.063
  563HOH     H1 1894   1.360   2.316  -0.021
  563HOH     H2 1895   1.473   2.262   0.065
  564HOH      O 1896   3.836   3.961   0.966
  564HOH     H1 1897   3.879   3.876   0.980
  564HOH     H2 1898   3.780   3.947   0.890
  565HOH      O 1899   2.950   1.086   0.143
  565HOH     H1 1900   2.980   1.177   0.133
  565HOH     H2 1901   2.932   1.077   0.236
  566HOH      O 1902   1.630   0.546   3.348
  566HOH     H1 1903   1.643   0.464   3.301
  566HOH     H2 1904   1.640   0.522   3.440
  567HOH      O 1905   2.554   1.288   3.574
  567HOH     H1 1906   2.611   1.342   3.520
  567HOH     H2 1907   2.567   1.322   3.663
  568HOH      O 1908   0.160   1.461   0.637
  568HOH     H1 1909   0.195   1.394   0.578
  568HOH     H2 1910   0.219   1.535   0.629
  569HOH      O 1911   2.946   3.014   3.640
  569HOH     H1 1912   3.031   3.035   3.678
  569HOH     H2 1913   2.965   2.954   3.568
  570HOH      O 1914   2.624   2.683   2.785
  570HOH     H1 1915   2.548   2.641   2.826
  570HOH     H2 1916   2.669   2.611   2.740
  571HOH      O 1917   1.975   0.960   0.951
  571HOH     H1 1918   2.054   0.919   0.986
  571HOH     H2 1919   2.006   1.010   0.875
  572HOH      O 1920   1.110   1.143   1.409
  572HOH     H1 1921   1.194   1.103   1.429
  572HOH     H2 1922   1.127   1.199   1.333
  573HOH      O 1923   0.327   0.495   2.290
  573HOH     H1 1924   0.288   0.570   2.244
  573HOH     H2 1925   0.287   0.419   2.249
  574HOH      O 1926   0.368   3.529   3.568
  574HOH     H1 1927   0.299   3.489   3.514
  574HOH     H2 1928   0.449   3.488   3.537
  575HOH      O 1929   3.186   0.018   0.570
  575HOH     H1 1930   3.098   0.028   0.533
  575HOH     H2 1931   3.216   0.107   0.587
  576HOH      O 1932   3.573   2.768   2.548
  576HOH     H1 1933   3.597   2.856   2.518
  576HOH     H2 1934   3.479   2.772   2.561
  577HOH      O 1935   2.084   3.232   1.254
  577HOH     H1 1936   2.149   3.211   1.186
  577HOH     H2 1937   2.001   3.203   1.216
  578HOH      O 1938   0.898   1.993   2.365
  578HOH     H1 1939   0.824   2.054   2.366
  578HOH     H2 1940   0.975   2.050   2.366
  579HOH      O 1941   3.463   2.101   1.911
  579HOH     H1 1942   3.477   2.007   1.922
  579HOH     H2 1943   3.546   2.135   1.878
  580HOH      O 1944   3.433   1.242   2.929
  580HOH     H1 1945   3.510   1.296   2.947
  580HOH     H2 1946   3.398   1.276   2.847
  581HOH      O 1947   3.939   1.607   0.580
  581HOH     H1 1948   3.979   1.543   0.521
  581HOH     H2 1949   3.990   1.599   0.661
  582HOH      O 1950   1.440   0.567   3.838
  582HOH     H1 1951   1.354   0.560   3.796
  582HOH     H2 1952   1.421   0.566   3.932
  583HOH      O 1953   1.081   1.291   0.072
  583HOH     H1 1954   1.134   1.366   0.101
  583HOH     H2 1955   0.991   1.321   0.082
  584HOH      O 1956   2.894   0.673   0.829
  584HOH     H1 1957   2.841   0.728   0.887
  584HOH     H2 1958   2.833   0.606   0.798
  585HOH      O 1959   2.244   2.847   2.085
  585HOH     H1 1960   2.151   2.846   2.063
  585HOH     H2 1961   2.251   2.793   2.164
  586HOH      O 1962   1.917   1.503   1.054
  586HOH     H1 1963   1.822   1.497   1.044
  586HOH     H2 1964   1.937   1.595   1.041
  587HOH      O 1965   2.951   1.947   1.306
  587HOH     H1 1966   2.981   1.861   1.278
  587HOH     H2 1967   2.973   1.951   1.399
  588HOH      O 1968   0.168   1.431   2.497
  588HOH     H1 1969   0.226   1.413   2.424
  588HOH     H2 1970   0.109   1.499   2.465
  589HOH      O 1971   2.111   1.345   1.871
  589HOH     H1 1972   2.153   1.324   1.954
  589HOH     H2 1973   2.017   1.346   1.891
  590HOH      O 1974   0.742   3.398   1.329
  590HOH     H1 1975   0.789   3.482   1.323
  590HOH     H2 1976   0.765   3.365   1.416
  591HOH      O 1977   1.835   0.062   3.274
  591HOH     H1 1978   1.783  -0.005   3.319
  591HOH     H2 1979   1.798   0.066   3.186
  592HOH      O 1980   0.683   2.867   0.459
  592HOH     H1 1981   0.675   2.794   0.398
  592HOH     H2 1982   0.735   2.933   0.412
  593HOH      O 1983   2.993   0.257   2.623
  593HOH     H1 1984   3.077   0.301   2.640
  593HOH     H2 1985   2.938   0.325   2.585
  594HOH      O 1986   3.203   2.217   2.613
  594HOH     H1 1987   3.237   2.304   2.593
  594HOH     H2 1988   3.176   2.183   2.528
  595HOH      O 1989   0.496   0.266   3.974
  595HOH     H1 1990   0.454   0.349   3.952
  595HOH     H2 1991   0.479   0.209   3.899
  596HOH      O 1992   3.855   1.310   2.253
  596HOH     H1 1993   3.794   1.237   2.243
  596HOH     H2 1994   3.930   1.285   2.199
  597HOH      O 1995   3.943   1.577   2.028
  597HOH     H1 1996   3.859   1.583   2.073
  597HOH     H2 1997   3.967   1.484   2.035
  598HOH      O 1998   3.598   1.927   0.749
  598HOH     H1 1999   3.524   1.950   0.693
  598HOH     H2 2000   3.605   1.832   0.742
  599HOH      O 2001   3.041   3.469   3.929
  599HOH     H1 2002   3.120   3.437   3.885
  599HOH     H2 2003   3.007   3.537   3.871
  600HOH      O 2004   4.023   3.767   2.644
  600HOH     H1 2005   3.962   3.693   2.640
  600HOH     H2 2006   3.991   3.828   2.577
  601HOH      O 2007   2.837   3.560   2.890
  601HOH     H1 2008   2.927   3.530   2.901
  601HOH     H2 2009   2.808   3.521   2.807
  602HOH      O 2010   1.163   0.837   3.497
  602HOH     H1 2011   1.200   0.768   3.442
  602HOH     H2 2012   1.072   0.844   3.467
  603HOH      O 2013   2.695   2.876   1.870
  603HOH     H1 2014   2.607   2.897   1.839
  603HOH     H2 2015   2.714   2.945   1.934
  604HOH      O 2016   1.507   1.917   0.238
  604HOH     H1 2017   1.556   1.876   0.309
  604HOH     H2 2018   1.447   1.977   0.281
  605HOH      O 2019   2.706   2.852   3.699
  605HOH     H1 2020   2.726   2.875   3.609
  605HOH     H2 2021   2.674   2.934   3.738
  606HOH      O 2022   0.710   1.552   0.996
  606HOH     H1 2023   0.763   1.631   1.008
  606HOH     H2 2024   0.769   1.480   1.014
  607HOH      O 2025   1.492   1.395   3.379
  607HOH     H1 2026   1.561   1.351   3.329
  607HOH     H2 2027   1.415   1.340   3.367
  608HOH      O 2028   1.110   0.355   3.506
  608HOH     H1 2029   1.193   0.311   3.485
  608HOH     H2 2030   1.042   0.294   3.477
  609HOH      O 2031   1.657   2.838   0.377
  609HOH     H1 2032   1.745   2.831   0.414
  609HOH     H2 2033   1.599   2.825   0.451
  610HOH      O 2034   0.054   2.475   3.170
  610HOH     H1 2035   0.010   2.548   3.126
  610HOH     H2 2036   0.147   2.500   3.170
  611HOH      O 2037   1.810   0.255   2.060
  611HOH     H1 2038   1.853   0.205   2.130
  611HOH     H2 2039   1.734   0.202   2.037
  612HOH      O 2040   3.447   0.767   2.027
  612HOH     H1 2041   3.541   0.753   2.040
  612HOH     H2 2042   3.420   0.694   1.971
  613HOH      O 2043   0.114   0.759   3.731
  613HOH     H1 2044   0.024   0.726   3.737
  613HOH     H2 2045   0.139   0.779   3.821
  614HOH      O 2046   3.912   3.783   1.533
  614HOH     H1 2047   3.922   3.840   1.457
  614HOH     H2 2048   3.982   3.718   1.524
  615HOH      O 2049   1.492   2.985   1.028
  615HOH     H1 2050   1.558   2.917   1.016
  615HOH     H2 2051   1.531   3.045   1.092
  616HOH      O 2052   1.420   1.687   3.038
  616HOH     H1 2053   1.379   1.757   3.089
  616HOH     H2 2054   1.483   1.731   2.982
  617HOH      O 2055   1.807   3.200   3.438
  617HOH     H1 2056   1.747   3.152   3.381
  617HOH     H2 2057   1.841   3.270   3.383
  618HOH      O 2058   0.984   0.747   2.532
  618HOH     H1 2059   1.063   0.799   2.518
  618HOH     H2 2060   1.000   0.699   2.613
  619HOH      O 2061   2.520   0.104   0.176
  619HOH     H1 2062   2.611   0.077   0.186
  619HOH     H2 2063   2.522   0.175   0.111
  620HOH      O 2064   2.690   1.272   1.770
  620HOH     H1 2065   2.648   1.340   1.823
  620HOH     H2 2066   2.772   1.254   1.815
  621HOH      O 2067   3.773   1.565   2.312
  621HOH     H1 2068   3.807   1.475   2.308
  621HOH     H2 2069   3.695   1.559   2.367
  622HOH      O 2070   0.915   0.885   3.066
  622HOH     H1 2071   0.942   0.951   3.130
  622HOH     H2 2072   0.964   0.907   2.987
  623HOH      O 2073   2.681   2.006   0.096
  623HOH     H1 2074   2.614   2.073   0.082
  623HOH     H2 2075   2.640   1.944   0.157
  624HOH      O 2076   1.177   0.411   1.098
  624HOH     H1 2077   1.175   0.504   1.077
  624HOH     H2 2078   1.137   0.405   1.185
  625HOH      O 2079   0.321   2.505   3.150
  625HOH     H1 2080   0.407   2.465   3.142
  625HOH     H2 2081   0.336   2.584   3.203
  626HOH      O 2082   1.643   2.116   2.289
  626HOH     H1 2083   1.663   2.201   2.327
  626HOH     H2 2084   1.636   2.133   2.195
  627HOH      O 2085   3.016   2.049   0.034
  627HOH     H1 2086   3.043   2.043  -0.058
  627HOH     H2 2087   2.924   2.076   0.031
  628HOH      O 2088   0.827   2.091   3.644
  628HOH     H1 2089   0.803   2.141   3.722
  628HOH     H2 2090   0.797   2.002   3.661
  629HOH      O 2091   1.456   2.060   3.092
  629HOH     H1 2092   1.361   2.071   3.093
  629HOH     H2 2093   1.487   2.114   3.020
  630HOH      O 2094   3.132   1.772   2.449
  630HOH     H1 2095   3.041   1.748   2.430
  630HOH     H2 2096   3.145   1.854   2.402
  631HOH      O 2097   1.494   2.183   2.840
  631HOH     H1 2098   1.434   2.153   2.772
  631HOH     H2 2099   1.542   2.255   2.800
  632HOH      O 2100   3.809   2.103   0.065
  632HOH     H1 2101   3.768   2.149  -0.008
  632HOH     H2 2102   3.741   2.101   0.133
  633HOH      O 2103   2.793   0.842   0.034
  633HOH     H1 2104   2.825   0.893   0.108
  633HOH     H2 2105   2.757   0.762   0.072
  634HOH      O 2106   0.521   1.629   2.272
  634HOH     H1 2107   0.560   1.622   2.185
  634HOH     H2 2108   0.474   1.712   2.271
  635HOH      O 2109   2.818   2.130   2.797
  635HOH     H1 2110   2.825   2.075   2.875
  635HOH     H2 2111   2.774   2.075   2.733
  636HOH      O 2112   3.704   3.734   2.460
  636HOH     H1 2113   3.772   3.675   2.427
  636HOH     H2 2114   3.663   3.769   2.381
  637HOH      O 2115   3.632   1.247   1.997
  637HOH     H1 2116   3.564   1.181   2.007
  637HOH     H2 2117   3.599   1.305   1.928
  638HOH      O 2118   1.703   3.386   2.521
  638HOH     H1 2119   1.662   3.438   2.591
  638HOH     H2 2120   1.784   3.354   2.560
  639HOH      O 2121   4.054   0.127   0.773
  639HOH     H1 2122   4.066   0.033   0.760
  639HOH     H2 2123   3.959   0.139   0.771
  640HOH      O 2124   0.492   0.758   0.676
  640HOH     H1 2125   0.536   0.822   0.619
  640HOH     H2 2126   0.406   0.747   0.637
  641HOH      O 2127  -0.022   1.345   0.869
  641HOH     H1 2128   0.047   1.320   0.929
  641HOH     H2 2129   0.024   1.384   0.794
  642HOH      O 2130   3.822   2.517   3.382
  642HOH     H1 2131   3.769   2.484   3.310
  642HOH     H2 2132   3.908   2.533   3.344
  643HOH      O 2133   0.420   3.733   1.032
  643HOH     H1 2134   0.383   3.652   1.066
  643HOH     H2 2135   0.378   3.802   1.084
  644HOH      O 2136   3.742   2.873   1.306
  644HOH     H1 2137   3.695   2.790   1.316
  644HOH     H2 2138   3.835   2.848   1.308
  645HOH      O 2139   3.159   0.872   0.160
  645HOH     H1 2140   3.095   0.931   0.122
  645HOH     H2 2141   3.244   0.912   0.141
  646HOH      O 2142   0.212   3.349   3.844
  646HOH     H1 2143   0.281   3.415   3.851
  646HOH     H2 2144   0.258   3.267   3.827
  647HOH      O 2145   0.054   3.378   1.150
  647HOH     H1 2146  -0.038   3.400   1.139
  647HOH     H2 2147   0.062   3.289   1.116
  648HOH      O 2148   1.800   1.291   1.755
  648HOH     H1 2149   1.814   1.335   1.671
  648HOH     H2 2150   1.795   1.361   1.819
  649HOH      O 2151   1.534   3.439   1.190
  649HOH     H1 2152   1.574   3.358   1.159
  649HOH     H2 2153   1.449   3.413   1.225
  650HOH      O 2154   0.600   0.589   1.885
  650HOH     H1 2155   0.630   0.557   1.800
  650HOH     H2 2156   0.659   0.547   1.948
  651HOH      O 2157   3.456   0.096   1.499
  651HOH     H1 2158   3.472   0.019   1.445
  651HOH     H2 2159   3.507   0.080   1.579
  652HOH      O 2160   0.661   1.359   3.296
  652HOH     H1 2161   0.669   1.405   3.212
  652HOH     H2 2162   0.606   1.415   3.349
  653HOH      O 2163   2.465   0.653   3.507
  653HOH     H1 2164   2.446   0.739   3.471
  653HOH     H2 2165   2.493   0.670   3.597
  654HOH      O 2166   3.473   3.192   3.261
  654HOH     H1 2167   3.496   3.260   3.197
  654HOH     H2 2168   3.520   3.217   3.340
  655HOH      O 2169   3.949   1.054   3.944
  655HOH     H1 2170   3.886   1.027   4.011
  655HOH     H2 2171   3.924   1.143   3.921
  656HOH      O 2172   2.152   2.095   0.108
  656HOH     H1 2173   2.119   2.142   0.032
  656HOH     H2 2174   2.126   2.149   0.183
  657HOH      O 2175   4.033   1.412   3.243
  657HOH     H1 2176   3.956   1.442   3.290
  657HOH     H2 2177   4.034   1.318   3.255
  658HOH      O 2178   3.796   0.933   1.679
  658HOH     H1 2179   3.806   0.990   1.603
  658HOH     H2 2180   3.710   0.892   1.667
  659HOH      O 2181   1.607   0.656   2.044
  659HOH     H1 2182   1.685   0.611   2.075
  659HOH     H2 2183   1.534   0.604   2.077
  660HOH      O 2184   1.914   2.648   0.052
  660HOH     H1 2185   1.901   2.723  -0.006
  660HOH     H2 2186   1.829   2.604   0.053
  661HOH      O 2187   2.972   1.498   1.319
  661HOH     H1 2188   3.004   1.414   1.288
  661HOH     H2 2189   2.885   1.507   1.279
  662HOH      O 2190   2.734   0.760   2.719
  662HOH     H1 2191   2.809   0.805   2.758
  662HOH     H2 2192   2.674   0.746   2.792
  663HOH      O 2193   0.394   0.412   3.304
  663HOH     H1 2194   0.360   0.498   3.281
  663HOH     H2 2195   0.336   0.381   3.373
  664HOH      O 2196   3.174   2.380   0.128
  664HOH     H1 2197   3.157   2.339   0.044
  664HOH     H2 2198   3.089   2.383   0.171
  665HOH      O 2199   3.181   0.165   3.912
  665HOH     H1 2200   3.251   0.195   3.854
  665HOH     H2 2201   3.213   0.184   4.000
  666HOH      O 2202   2.713   1.254   1.490
  666HOH     H1 2203   2.789   1.201   1.467
  666HOH     H2 2204   2.723   1.271   1.583
  667HOH      O 2205   3.111   3.313   0.965
  667HOH     H1 2206   3.192   3.340   0.924
  667HOH     H2 2207   3.058   3.278   0.894
  668HOH      O 2208   1.828   3.613   0.011
  668HOH     H1 2209   1.763   3.620   0.081
  668HOH     H2 2210   1.896   3.675   0.036
  669HOH      O 2211   3.262   0.412   2.347
  669HOH     H1 2212   3.266   0.318   2.366
  669HOH     H2 2213   3.338   0.449   2.392
  670HOH      O 2214   0.141   1.484   0.275
  670HOH     H1 2215   0.164   1.472   0.183
  670HOH     H2 2216   0.215   1.448   0.324
  671HOH      O 2217   2.913   3.204   2.488
  671HOH     H1 2218   2.849   3.143   2.453
  671HOH     H2 2219   2.913   3.277   2.426
  672HOH      O 2220   1.593   1.192   0.233
  672HOH     H1 2221   1.645   1.269   0.210
  672HOH     H2 2222   1.648   1.117   0.210
  673HOH      O 2223   3.567   1.169   0.684
  673HOH     H1 2224   3.550   1.253   0.642
  673HOH     H2 2225   3.548   1.104   0.616
  674HOH      O 2226   3.682   3.446   2.072
  674HOH     H1 2227   3.761   3.500   2.073
  674HOH     H2 2228   3.649   3.448   2.162
  675HOH      O 2229   0.021   3.713   3.255
  675HOH     H1 2230   0.019   3.716   3.159
  675HOH     H2 2231   0.049   3.801   3.281
  676HOH      O 2232   1.844   1.431   3.766
  676HOH     H1 2233   1.782   1.358   3.769
  676HOH     H2 2234   1.897   1.414   3.688
  677HOH      O 2235   0.735   1.965   0.127
  677HOH     H1 2236   0.677   2.040   0.141
  677HOH     H2 2237   0.676   1.891   0.116
  678HOH      O 2238   1.528   3.870   3.225
  678HOH     H1 2239   1.568   3.863   3.312
  678HOH     H2 2240   1.477   3.950   3.228
  679HOH      O 2241   2.514   3.983   0.543
  679HOH     H1 2242   2.588   4.035   0.574
  679HOH     H2 2243   2.462   4.045   0.492
  680HOH      O 2244   1.502   0.303   2.085
  680HOH     H1 2245   1.504   0.386   2.131
  680HOH     H2 2246   1.452   0.245   2.143
  681HOH      O 2247   2.404   2.381   3.626
  681HOH     H1 2248   2.391   2.308   3.687
  681HOH     H2 2249   2.459   2.344   3.557
  682HOH      O 2250   3.157   1.282   1.227
  682HOH     H1 2251   3.188   1.297   1.138
  682HOH     H2 2252   3.071   1.242   1.216
  683HOH      O 2253   0.967   0.946   1.549
  683HOH     H1 2254   1.000   1.030   1.516
  683HOH     H2 2255   0.875   0.945   1.525
  684HOH      O 2256   1.220   0.692   2.742
  684HOH     H1 2257   1.300   0.735   2.774
  684HOH     H2 2258   1.191   0.639   2.816
  685HOH      O 2259   1.301   2.296   0.555
  685HOH     H1 2260   1.222   2.325   0.511
  685HOH     H2 2261   1.356   2.260   0.485
  686HOH      O 2262   3.469   1.420   3.250
  686HOH     H1 2263   3.545   1.426   3.191
  686HOH     H2 2264   3.450   1.326   3.253
  687HOH      O 2265   2.386   1.570   1.639
  687HOH     H1 2266   2.345   1.485   1.656
  687HOH     H2 2267   2.410   1.567   1.546
  688HOH      O 2268   3.951   2.942   2.327
  688HOH     H1 2269   3.905   2.979   2.251
  688HOH     H2 2270   3.957   2.848   2.309
  689HOH      O 2271   2.281   1.814   1.413
  689HOH     H1 2272   2.278   1.792   1.507
  689HOH     H2 2273   2.191   1.801   1.383
  690HOH      O 2274   0.399   1.367   0.818
  690HOH     H1 2275   0.467   1.408   0.765
  690HOH     H2 2276   0.317   1.399   0.781
  691HOH      O 2277   1.741   3.620   3.596
  691HOH     H1 2278   1.648   3.627   3.619
  691HOH     H2 2279   1.779   3.566   3.665
  692HOH      O 2280   2.960   2.587   0.650
  692HOH     H1 2281   2.974   2.640   0.728
  692HOH     H2 2282   2.912   2.510   0.681
  693HOH      O 2283   3.516   3.320   3.025
  693HOH     H1 2284   3.591   3.290   2.974
  693HOH     H2 2285   3.445   3.327   2.962
  694HOH      O 2286   1.453   3.706   0.110
  694HOH     H1 2287   1.482   3.719   0.019
  694HOH     H2 2288   1.370   3.754   0.115
  695HOH      O 2289   3.782   3.388   0.289
  695HOH     H1 2290   3.780   3.315   0.228
  695HOH     H2 2291   3.728   3.359   0.363
  696HOH      O 2292   3.563   1.269   2.635
  696HOH     H1 2293   3.648   1.290   2.596
  696HOH     H2 2294   3.582   1.198   2.698
  697HOH      O 2295   0.855   1.438   2.271
  697HOH     H1 2296   0.861   1.411   2.180
  697HOH     H2 2297   0.851   1.356   2.321
  698HOH      O 2298   1.213   0.295   2.721
  698HOH     H1 2299   1.146   0.226   2.712
  698HOH     H2 2300   1.215   0.338   2.635
  699HOH      O 2301   0.467   1.766   1.647
  699HOH     H1 2302   0.559   1.788   1.639
  699HOH     H2 2303   0.421   1.840   1.606
  700HOH      O 2304   0.533   1.912   0.631
  700HOH     H1 2305   0.544   1.911   0.726
  700HOH     H2 2306   0.615   1.876   0.597
  701HOH      O 2307   1.653   0.075   3.062
  701HOH     H1 2308   1.671   0.102   2.972
  701HOH     H2 2309   1.673  -0.018   3.063
  702HOH      O 2310   1.600   1.588   1.675
  702HOH     H1 2311   1.689   1.583   1.639
  702HOH     H2 2312   1.607   1.649   1.749
  703HOH      O 2313   1.673   0.990   1.377
  703HOH     H1 2314   1.712   1.027   1.456
  703HOH     H2 2315   1.741   1.000   1.310
  704HOH      O 2316   1.641   2.281   3.172
  704HOH     H1 2317   1.616   2.191   3.194
  704HOH     H2 2318   1.560   2.319   3.137
  705HOH      O 2319   2.639   2.543   0.202
  705HOH     H1 2320   2.695   2.513   0.130
  705HOH     H2 2321   2.700   2.559   0.274
  706HOH      O 2322   2.194   1.845   0.260
  706HOH     H1 2323   2.148   1.903   0.200
  706HOH     H2 2324   2.146   1.854   0.343
  707HOH      O 2325   3.971   0.360   1.658
  707HOH     H1 2326   4.030   0.293   1.694
  707HOH     H2 2327   4.011   0.443   1.683
  708HOH      O 2328   0.558   0.927   0.880
  708HOH     H1 2329   0.541   0.863   0.811
  708HOH     H2 2330   0.499   0.999   0.860
  709HOH      O 2331   3.010   2.496   2.965
  709HOH     H1 2332   2.924   2.453   2.959
  709HOH     H2 2333   3.072   2.430   2.935
  710HOH      O 2334   3.425   3.646   2.333
  710HOH     H1 2335   3.356   3.698   2.374
  710HOH     H2 2336   3.476   3.709   2.283
  711HOH      O 2337   3.233   3.458   1.633
  711HOH     H1 2338   3.164   3.459   1.567
  711HOH     H2 2339   3.272   3.546   1.628
  712HOH      O 2340   1.363   3.424   0.171
  712HOH     H1 2341   1.370   3.509   0.129
  712HOH     H2 2342   1.454   3.400   0.192
  713HOH      O 2343   0.326   2.366   1.285
  713HOH     H1 2344   0.304   2.308   1.358
  713HOH     H2 2345   0.388   2.315   1.232
  714HOH      O 2346   2.951   0.403   2.279
  714HOH     H1 2347   3.041   0.434   2.271
  714HOH     H2 2348   2.907   0.472   2.329
  715HOH      O 2349   2.248   1.288   2.673
  715HOH     H1 2350   2.177   1.308   2.734
  715HOH     H2 2351   2.327   1.315   2.719
  716HOH      O 2352   2.211   1.114   3.854
  716HOH     H1 2353   2.219   1.019   3.863
  716HOH     H2 2354   2.252   1.133   3.770
  717HOH      O 2355   0.464   1.304   2.101
  717HOH     H1 2356   0.433   1.214   2.100
  717HOH     H2 2357   0.436   1.339   2.186
  718HOH      O 2358   1.119   1.157   0.442
  718HOH     H1 2359   1.107   1.103   0.364
  718HOH     H2 2360   1.213   1.152   0.461
  719HOH      O 2361   0.287   1.061   2.196
  719HOH     H1 2362   0.222   1.004   2.154
  719HOH     H2 2363   0.297   1.026   2.284
  720HOH      O 2364   2.120   3.229   2.845
  720HOH     H1 2365   2.097   3.238   2.938
  720HOH     H2 2366   2.155   3.140   2.838
  721HOH      O 2367   2.518   3.313   0.745
  721HOH     H1 2368   2.579   3.386   0.756
  721HOH     H2 2369   2.570   3.243   0.705
  722HOH      O 2370   1.889   2.324   3.651
  722HOH     H1 2371   1.841   2.402   3.680
  722HOH     H2 2372   1.954   2.358   3.589
  723HOH      O 2373   0.733   3.220   2.493
  723HOH     H1 2374   0.811   3.175   2.526
  723HOH     H2 2375   0.768   3.291   2.439
  724HOH      O 2376   3.631   0.979   3.276
  724HOH     H1 2377   3.641   0.886   3.256
  724HOH     H2 2378   3.665   0.988   3.365
  725HOH      O 2379   2.494   2.731   1.196
  725HOH     H1 2380   2.480   2.781   1.276
  725HOH     H2 2381   2.405   2.713   1.164
  726HOH      O 2382   0.906   3.463   3.207
  726HOH     H1 2383   0.946   3.470   3.294
  726HOH     H2 2384   0.812   3.455   3.224
  727HOH      O 2385   1.268   2.448   0.764
  727HOH     H1 2386   1.334   2.516   0.779
  727HOH     H2 2387   1.298   2.404   0.684
  728HOH      O 2388   1.273   1.018   3.117
  728HOH     H1 2389   1.329   0.942   3.101
  728HOH     H2 2390   1.280   1.071   3.038
  729HOH      O 2391   1.952   0.649   3.902
  729HOH     H1 2392   2.005   0.574   3.877
  729HOH     H2 2393   1.868   0.635   3.857
  730HOH      O 2394   3.522   0.715   0.234
  730HOH     H1 2395   3.563   0.630   0.250
  730HOH     H2 2396   3.583   0.779   0.270
  731HOH      O 2397   1.507   1.358   3.669
  731HOH     H1 2398   1.559   1.279   3.654
  731HOH     H2 2399   1.466   1.376   3.585
  732HOH      O 2400   3.610   0.761   0.751
  732HOH     H1 2401   3.555   0.725   0.682
  732HOH     H2 2402   3.699   0.755   0.716
  733HOH      O 2403   0.235   3.596   2.746
  733HOH     H1 2404   0.166   3.662   2.736
  733HOH     H2 2405   0.304   3.624   2.685
  734HOH      O 2406   1.437   3.119   3.667
  734HOH     H1 2407   1.400   3.145   3.582
  734HOH     H2 2408   1.383   3.165   3.731
  735HOH      O 2409   3.894   3.578   2.354
  735HOH     H1 2410   3.933   3.549   2.271
  735HOH     H2 2411   3.966   3.571   2.417
  736HOH      O 2412   3.188   0.823   1.270
  736HOH     H1 2413   3.159   0.816   1.361
  736HOH     H2 2414   3.273   0.867   1.276
  737HOH      O 2415   0.322   0.445   3.868
  737HOH     H1 2416   0.289   0.409   3.786
  737HOH     H2 2417   0.245   0.480   3.912
  738HOH      O 2418   3.441   3.331   1.255
  738HOH     H1 2419   3.465   3.422   1.270
  738HOH     H2 2420   3.520   3.281   1.278
  739HOH      O 2421   0.536   2.382  -0.016
  739HOH     H1 2422   0.530   2.429   0.067
  739HOH     H2 2423   0.449   2.343  -0.028
  740HOH      O 2424   1.258   3.610   3.244
  740HOH     H1 2425   1.216   3.541   3.192
  740HOH     H2 2426   1.283   3.677   3.179
  741HOH      O 2427   2.538   1.004   1.957
  741HOH     H1 2428   2.517   0.920   1.999
  741HOH     H2 2429   2.540   0.984   1.863
  742HOH      O 2430   3.359   0.125   3.319
  742HOH     H1 2431   3.358   0.034   3.348
  742HOH     H2 2432   3.273   0.138   3.278
  743HOH      O 2433   0.316   3.373   2.372
  743HOH     H1 2434   0.303   3.324   2.453
  743HOH     H2 2435   0.403   3.347   2.342
  744HOH      O 2436   2.202   1.701   0.845
  744HOH     H1 2437   2.201   1.794   0.870
  744HOH     H2 2438   2.215   1.702   0.750
  745HOH      O 2439   3.467   2.307   2.104
  745HOH     H1 2440   3.426   2.389   2.077
  745HOH     H2 2441   3.452   2.248   2.030
  746HOH      O 2442   0.888   2.252   0.217
  746HOH     H1 2443   0.806   2.216   0.249
  746HOH     H2 2444   0.956   2.198   0.256
  747HOH      O 2445   2.592   3.356   2.578
  747HOH     H1 2446   2.562   3.436   2.535
  747HOH     H2 2447   2.517   3.328   2.631
  748HOH      O 2448   1.793   2.757   3.655
  748HOH     H1 2449   1.811   2.683   3.597
  748HOH     H2 2450   1.708   2.789   3.627
  749HOH      O 2451   2.287   1.004   2.878
  749HOH     H1 2452   2.266   1.009   2.784
  749HOH     H2 2453   2.231   0.933   2.910
  750HOH      O 2454   1.761   0.376   1.807
  750HOH     H1 2455   1.773   0.290   1.767
  750HOH     H2 2456   1.787   0.364   1.899
  751HOH      O 2457   0.217   0.030   2.766
  751HOH     H1 2458   0.201  -0.051   2.717
  751HOH     H2 2459   0.130   0.068   2.779
  752HOH      O 2460   0.198   2.243   0.575
  752HOH     H1 2461   0.274   2.194   0.543
  752HOH     H2 2462   0.124   2.207   0.525
  753HOH      O 2463   3.995   3.078   2.016
  753HOH     H1 2464   4.083   3.072   2.052
  753HOH     H2 2465   3.953   3.147   2.067
  754HOH      O 2466   0.865   3.517   2.056
  754HOH     H1 2467   0.793   3.454   2.054
  754HOH     H2 2468   0.860   3.556   2.144
  755HOH      O 2469   1.288   2.207   1.436
  755HOH     H1 2470   1.226   2.200   1.363
  755HOH     H2 2471   1.278   2.297   1.466
  756HOH      O 2472   3.987   3.506   2.945
  756HOH     H1 2473   3.956   3.454   2.871
  756HOH     H2 2474   3.918   3.498   3.011
  757HOH      O 2475   0.325   0.669   2.042
  757HOH     H1 2476   0.315   0.754   1.999
  757HOH     H2 2477   0.244   0.657   2.091
  758HOH      O 2478   3.260   3.723   1.566
  758HOH     H1 2479   3.200   3.780   1.614
  758HOH     H2 2480   3.346   3.764   1.577
  759HOH      O 2481   0.728   1.169   0.270
  759HOH     H1 2482   0.769   1.210   0.347
  759HOH     H2 2483   0.735   1.075   0.286
  760HOH      O 2484   0.928   2.874   1.686
  760HOH     H1 2485   0.987   2.801   1.704
  760HOH     H2 2486   0.977   2.932   1.628
  761HOH      O 2487   2.890   2.574   1.380
  761HOH     H1 2488   2.892   2.497   1.436
  761HOH     H2 2489   2.977   2.614   1.392
  762HOH      O 2490   0.972   3.572   1.278
  762HOH     H1 2491   0.923   3.628   1.337
  762HOH     H2 2492   1.058   3.561   1.319
  763HOH      O 2493   3.403   0.179   0.796
  763HOH     H1 2494   3.465   0.172   0.724
  763HOH     H2 2495   3.330   0.229   0.760
  764HOH      O 2496   1.077   2.825   0.579
  764HOH     H1 2497   1.163   2.841   0.541
  764HOH     H2 2498   1.017   2.880   0.527
  765HOH      O 2499   1.785   0.913   3.218
  765HOH     H1 2500   1.870   0.950   3.193
  765HOH     H2 2501   1.807   0.835   3.269
  766HOH      O 2502   3.913   0.685   3.716
  766HOH     H1 2503   3.858   0.729   3.781
  766HOH     H2 2504   3.905   0.592   3.737
  767HOH      O 2505   3.614   0.555   0.928
  767HOH     H1 2506   3.646   0.625   0.872
  767HOH     H2 2507   3.603   0.480   0.868
  768HOH      O 2508   1.124   3.585   0.578
  768HOH     H1 2509   1.140   3.570   0.671
  768HOH     H2 2510   1.044   3.637   0.575
  769HOH      O 2511   0.688   1.115   2.204
  769HOH     H1 2512   0.672   1.197   2.158
  769HOH     H2 2513   0.675   1.047   2.138
  770HOH      O 2514   2.913   0.912   1.256
  770HOH     H1 2515   2.860   0.838   1.288
  770HOH     H2 2516   3.003   0.878   1.256
  771HOH      O 2517   1.404   0.419   0.270
  771HOH     H1 2518   1.356   0.350   0.224
  771HOH     H2 2519   1.372   0.415   0.360
  772HOH      O 2520   1.180   0.975   0.921
  772HOH     H1 2521   1.150   0.990   1.010
  772HOH     H2 2522   1.275   0.971   0.927
  773HOH      O 2523   4.020   1.808   0.366
  773HOH     H1 2524   3.966   1.762   0.302
  773HOH     H2 2525   4.017   1.754   0.444
  774HOH      O 2526   0.608   2.850   3.812
  774HOH     H1 2527   0.635   2.941   3.801
  774HOH     H2 2528   0.667   2.816   3.880
  775HOH      O 2529   2.046   1.780   1.254
  775HOH     H1 2530   2.037   1.875   1.262
  775HOH     H2 2531   2.029   1.762   1.162
  776HOH      O 2532   0.855   2.790   3.256
  776HOH     H1 2533   0.824   2.788   3.165
  776HOH     H2 2534   0.776   2.807   3.307
  777HOH      O 2535   0.842   1.081   3.999
  777HOH     H1 2536   0.759   1.103   4.040
  777HOH     H2 2537   0.892   1.163   4.001
  778HOH      O 2538   0.076   0.199   0.512
  778HOH     H1 2539   0.163   0.238   0.522
  778HOH     H2 2540   0.033   0.214   0.596
  779HOH      O 2541   1.351   1.099   0.100
  779HOH     H1 2542   1.365   1.078   0.008
  779HOH     H2 2543   1.426   1.153   0.125
  780HOH      O 2544   2.178   2.203   1.818
  780HOH     H1 2545   2.112   2.205   1.887
  780HOH     H2 2546   2.261   2.213   1.865
  781HOH      O 2547   2.317   2.489   1.937
  781HOH     H1 2548   2.230   2.480   1.975
  781HOH     H2 2549   2.349   2.574   1.968
  782HOH      O 2550   1.966   2.048   1.305
  782HOH     H1 2551   1.966   2.136   1.345
  782HOH     H2 2552   1.873   2.028   1.294
  783HOH      O 2553   1.611   0.444   1.579
  783HOH     H1 2554   1.665   0.433   1.658
  783HOH     H2 2555   1.551   0.515   1.602
  784HOH      O 2556   2.709   1.755   0.577
  784HOH     H1 2557   2.712   1.717   0.489
  784HOH     H2 2558   2.715   1.849   0.563
  785HOH      O 2559   0.763   0.864   0.273
  785HOH     H1 2560   0.690   0.855   0.211
  785HOH     H2 2561   0.830   0.805   0.239
  786HOH      O 2562   3.531   0.698   2.817
  786HOH     H1 2563   3.543   0.637   2.890
  786HOH     H2 2564   3.617   0.700   2.774
  787HOH      O 2565   1.076   3.142   3.778
  787HOH     H1 2566   1.082   3.061   3.728
  787HOH     H2 2567   1.160   3.149   3.824
  788HOH      O 2568   3.176   3.000   2.593
  788HOH     H1 2569   3.232   2.927   2.617
  788HOH     H2 2570   3.108   2.962   2.537
  789HOH      O 2571   0.911   4.047   2.132
  789HOH     H1 2572   0.864   3.976   2.176
  789HOH     H2 2573   0.961   4.004   2.062
  790HOH      O 2574   2.508   2.412   1.745
  790HOH     H1 2575   2.479   2.468   1.673
  790HOH     H2 2576   2.437   2.415   1.808
  791HOH      O 2577   2.107   0.814   2.984
  791HOH     H1 2578   2.039   0.844   2.924
  791HOH     H2 2579   2.144   0.737   2.942
  792HOH      O 2580   1.498   3.865   3.695
  792HOH     H1 2581   1.509   3.786   3.643
  792HOH     H2 2582   1.535   3.843   3.780
  793HOH      O 2583   0.452   1.120   1.838
  793HOH     H1 2584   0.450   1.081   1.750
  793HOH     H2 2585   0.467   1.213   1.822
  794HOH      O 2586   2.792   2.755   3.968
  794HOH     H1 2587   2.698   2.740   3.977
  794HOH     H2 2588   2.804   2.774   3.875
  795HOH      O 2589   3.846   0.881   1.253
  795HOH     H1 2590   3.823   0.945   1.321
  795HOH     H2 2591   3.831   0.927   1.170
  796HOH      O 2592   0.167   2.691   0.670
  796HOH     H1 2593   0.096   2.746   0.636
  796HOH     H2 2594   0.143   2.672   0.760
  797HOH      O 2595   2.331   1.925   4.000
  797HOH     H1 2596   2.288   1.887   3.922
  797HOH     H2 2597   2.272   1.995   4.027
  798HOH      O 2598   0.031   3.678   3.891
  798HOH     H1 2599   0.125   3.661   3.881
  798HOH     H2 2600  -0.010   3.592   3.885
  799HOH      O 2601   1.679   1.550   0.646
  799HOH     H1 2602   1.708   1.597   0.724
  799HOH     H2 2603   1.619   1.483   0.679
  800HOH      O 2604   1.858   0.554   2.093
  800HOH     H1 2605   1.892   0.467   2.070
  800HOH     H2 2606   1.842   0.550   2.187
  801HOH      O 2607   3.021   3.016   1.825
  801HOH     H1 2608   2.999   3.022   1.918
  801HOH     H2 2609   3.094   3.077   1.813
  802HOH      O 2610   2.338   3.482   0.361
  802HOH     H1 2611   2.341   3.488   0.456
  802HOH     H2 2612   2.401   3.414   0.339
  803HOH      O 2613   2.051   0.581   1.562
  803HOH     H1 2614   1.987   0.609   1.628
  803HOH     H2 2615   1.997   0.550   1.489
  804HOH      O 2616   1.012   0.186   3.175
  804HOH     H1 2617   0.992   0.129   3.101
  804HOH     H2 2618   0.979   0.272   3.148
  805HOH      O 2619   3.767   0.269   3.561
  805HOH     H1 2620   3.819   0.203   3.608
  805HOH     H2 2621   3.769   0.346   3.618
  806HOH      O 2622   2.564   1.946   2.830
  806HOH     H1 2623   2.569   2.030   2.786
  806HOH     H2 2624   2.493   1.957   2.894
  807HOH      O 2625   0.583   3.349   2.282
  807HOH     H1 2626   0.653   3.329   2.344
  807HOH     H2 2627   0.604   3.298   2.204
  808HOH      O 2628   0.606   2.470   3.477
  808HOH     H1 2629   0.656   2.513   3.408
  808HOH     H2 2630   0.519   2.456   3.438
  809HOH      O 2631   3.920   1.001   2.673
  809HOH     H1 2632   3.924   0.978   2.580
  809HOH     H2 2633   3.842   1.055   2.682
  810HOH      O 2634   2.652   0.837   0.631
  810HOH     H1 2635   2.588   0.874   0.570
  810HOH     H2 2636   2.599   0.791   0.696
  811HOH      O 2637   0.036   2.041   0.069
  811HOH     H1 2638   0.016   2.009   0.157
  811HOH     H2 2639  -0.048   2.074   0.036
  812HOH      O 2640   0.679   0.139   2.034
  812HOH     H1 2641   0.691   0.225   1.993
  812HOH     H2 2642   0.761   0.125   2.082
  813HOH      O 2643   2.915   2.266   3.460
  813HOH     H1 2644   2.865   2.326   3.516
  813HOH     H2 2645   2.953   2.322   3.393
  814HOH      O 2646   0.973   2.430   2.283
  814HOH     H1 2647   0.921   2.433   2.203
  814HOH     H2 2648   1.058   2.465   2.257
  815HOH      O 2649   2.265   3.040   0.024
  815HOH     H1 2650   2.179   3.004   0.045
  815HOH     H2 2651   2.258   3.067  -0.067
  816HOH      O 2652   3.991   0.372   3.392
  816HOH     H1 2653   3.914   0.336   3.436
  816HOH     H2 2654   4.015   0.449   3.443
  817HOH      O 2655   0.768   1.121   1.780
  817HOH     H1 2656   0.861   1.113   1.763
  817HOH     H2 2657   0.729   1.142   1.695
  818HOH      O 2658   3.407   0.219   3.719
  818HOH     H1 2659   3.336   0.192   3.660
  818HOH     H2 2660   3.416   0.313   3.704
  819HOH      O 2661   3.121   1.378   0.775
  819HOH     H1 2662   3.156   1.419   0.696
  819HOH     H2 2663   3.032   1.351   0.751
  820HOH      O 2664   0.478   2.866   2.988
  820HOH     H1 2665   0.385   2.843   2.987
  820HOH     H2 2666   0.514   2.816   3.061
  821HOH      O 2667   3.459   3.661   0.169
  821HOH     H1 2668   3.387   3.695   0.221
  821HOH     H2 2669   3.440   3.690   0.080
  822HOH      O 2670   1.257   2.498   1.479
  822HOH     H1 2671   1.233   2.543   1.560
  822HOH     H2 2672   1.183   2.511   1.421
  823HOH      O 2673   3.597   1.683   0.322
  823HOH     H1 2674   3.653   1.697   0.398
  823HOH     H2 2675   3.509   1.705   0.353
  824HOH      O 2676   2.022   1.880   2.160
  824HOH     H1 2677   2.011   1.908   2.069
  824HOH     H2 2678   2.013   1.784   2.157
  825HOH      O 2679   1.558   0.894   3.042
  825HOH     H1 2680   1.653   0.900   3.053
  825HOH     H2 2681   1.528   0.844   3.117
  826HOH      O 2682   3.586   2.924   4.050
  826HOH     H1 2683   3.652   2.865   4.014
  826HOH     H2 2684   3.529   2.943   3.976
  827HOH      O 2685   0.338   3.595   0.194
  827HOH     H1 2686   0.281   3.534   0.147
  827HOH     H2 2687   0.286   3.676   0.200
  828HOH      O 2688   2.521   0.736   2.017
  828HOH     H1 2689   2.562   0.667   2.070
  828HOH     H2 2690   2.427   0.727   2.034
  829HOH      O 2691   2.661   0.120   3.828
  829HOH     H1 2692   2.605   0.045   3.844
  829HOH     H2 2693   2.749   0.083   3.817
  830HOH      O 2694   0.547   0.013   3.742
  830HOH     H1 2695   0.529  -0.029   3.826
  830HOH     H2 2696   0.630   0.060   3.757
  831HOH      O 2697   0.405   2.746   1.390
  831HOH     H1 2698   0.396   2.665   1.441
  831HOH     H2 2699   0.359   2.727   1.308
  832HOH      O 2700   2.747   0.474   1.997
  832HOH     H1 2701   2.832   0.434   2.011
  832HOH     H2 2702   2.716   0.496   2.084
  833HOH      O 2703   1.042   1.419   0.904
  833HOH     H1 2704   1.057   1.495   0.960
  833HOH     H2 2705   0.978   1.366   0.952
  834HOH      O 2706   2.289   1.847   2.951
  834HOH     H1 2707   2.263   1.830   2.861
  834HOH     H2 2708   2.217   1.812   3.004
  835HOH      O 2709   3.018   3.862   3.009
  835HOH     H1 2710   2.951   3.923   2.978
  835HOH     H2 2711   2.973   3.809   3.075
  836HOH      O 2712   3.543   2.935   1.543
  836HOH     H1 2713   3.554   2.845   1.574
  836HOH     H2 2714   3.611   2.947   1.476
  837HOH      O 2715   0.210   2.958   0.860
  837HOH     H1 2716   0.178   2.869   0.877
  837HOH     H2 2717   0.283   2.946   0.799
  838HOH      O 2718   1.538   1.670   3.769
  838HOH     H1 2719   1.462   1.726   3.749
  838HOH     H2 2720   1.519   1.588   3.723
  839HOH      O 2721   3.521   0.349   3.447
  839HOH     H1 2722   3.503   0.306   3.364
  839HOH     H2 2723   3.598   0.303   3.482
  840HOH      O 2724   3.343   0.065   0.319
  840HOH     H1 2725   3.290   0.122   0.374
  840HOH     H2 2726   3.284  -0.006   0.294
  841HOH      O 2727   0.388   0.270   1.814
  841HOH     H1 2728   0.427   0.312   1.891
  841HOH     H2 2729   0.421   0.180   1.817
  842HOH      O 2730   0.761   3.697   0.117
  842HOH     H1 2731   0.707   3.726   0.191
  842HOH     H2 2732   0.830   3.644   0.157
  843HOH      O 2733   2.385   1.176   0.556
  843HOH     H1 2734   2.432   1.240   0.502
  843HOH     H2 2735   2.299   1.169   0.516
  844HOH      O 2736   1.441   1.922   1.191
  844HOH     H1 2737   1.369   1.972   1.152
  844HOH     H2 2738   1.426   1.832   1.161
  845HOH      O 2739   2.032   3.737   3.523
  845HOH     H1 2740   1.956   3.715   3.469
  845HOH     H2 2741   1.998   3.799   3.587
  846HOH      O 2742   3.989   0.833   0.187
  846HOH     H1 2743   3.975   0.739   0.176
  846HOH     H2 2744   4.073   0.850   0.144
  847HOH      O 2745   2.741   2.028   0.550
  847HOH     H1 2746   2.738   2.071   0.636
  847HOH     H2 2747   2.816   2.066   0.506
  848HOH      O 2748   2.515   1.743   0.746
  848HOH     H1 2749   2.595   1.748   0.693
  848HOH     H2 2750   2.546   1.748   0.836
  849HOH      O 2751   2.517   2.928   0.005
  849HOH     H1 2752   2.505   2.834   0.020
  849HOH     H2 2753   2.436   2.969   0.036
  850HOH      O 2754   1.939   3.382   2.696
  850HOH     H1 2755   2.008   3.323   2.724
  850HOH     H2 2756   1.875   3.380   2.768
  851HOH      O 2757   3.976   2.166   3.570
  851HOH     H1 2758   3.987   2.212   3.487
  851HOH     H2 2759   4.038   2.094   3.566
  852HOH      O 2760   2.943   0.927   2.820
  852HOH     H1 2761   3.019   0.900   2.871
  852HOH     H2 2762   2.972   1.005   2.773
  853HOH      O 2763   1.402   3.092   1.339
  853HOH     H1 2764   1.486   3.100   1.293
  853HOH     H2 2765   1.352   3.169   1.312
  854HOH      O 2766   2.375   2.819   1.842
  854HOH     H1 2767   2.354   2.809   1.935
  854HOH     H2 2768   2.293   2.844   1.801
  855HOH      O 2769   0.210   2.719   3.797
  855HOH     H1 2770   0.257   2.685   3.721
  855HOH     H2 2771   0.227   2.813   3.796
  856HOH      O 2772   1.646   3.579   1.411
  856HOH     H1 2773   1.728   3.529   1.408
  856HOH     H2 2774   1.580   3.518   1.381
  857HOH      O 2775   1.764   2.508   3.444
  857HOH     H1 2776   1.706   2.546   3.378
  857HOH     H2 2777   1.852   2.517   3.406
  858HOH      O 2778   2.760   2.408   2.792
  858HOH     H1 2779   2.788   2.406   2.700
  858HOH     H2 2780   2.751   2.315   2.815
  859HOH      O 2781   3.158   3.054   4.055
  859HOH     H1 2782   3.078   3.087   4.013
  859HOH     H2 2783   3.196   2.995   3.990
  860HOH      O 2784   1.907   0.098   0.915
  860HOH     H1 2785   1.949   0.134   0.993
  860HOH     H2 2786   1.893   0.006   0.935
  861HOH      O 2787   0.231   3.428   3.339
  861HOH     H1 2788   0.225   3.415   3.244
  861HOH     H2 2789   0.143   3.452   3.366
  862HOH      O 2790   3.869   2.384   0.766
  862HOH     H1 2791   3.924   2.354   0.694
  862HOH     H2 2792   3.786   2.340   0.752
  863HOH      O 2793   3.734   2.593   2.412
  863HOH     H1 2794   3.671   2.527   2.382
  863HOH     H2 2795   3.680   2.663   2.448
  864HOH      O 2796   3.127   3.803   2.252
  864HOH     H1 2797   3.181   3.735   2.212
  864HOH     H2 2798   3.067   3.830   2.182
  865HOH      O 2799   1.406   1.941   1.515
  865HOH     H1 2800   1.410   1.964   1.608
  865HOH     H2 2801   1.390   2.024   1.470
  866HOH      O 2802   1.401   3.176   3.232
  866HOH     H1 2803   1.486   3.145   3.201
  866HOH     H2 2804   1.346   3.178   3.154
  867HOH      O 2805   3.313   2.324   3.288
  867HOH     H1 2806   3.220   2.341   3.302
  867HOH     H2 2807   3.350   2.410   3.268
  868HOH      O 2808   1.039   3.414   0.385
  868HOH     H1 2809   1.076   3.328   0.409
  868HOH     H2 2810   1.080   3.475   0.446
  869HOH      O 2811   1.673   1.743   0.870
  869HOH     H1 2812   1.636   1.831   0.863
  869HOH     H2 2813   1.652   1.716   0.960
  870HOH      O 2814   2.874   0.144   3.257
  870HOH     H1 2815   2.945   0.120   3.199
  870HOH     H2 2816   2.916   0.157   3.342
  871HOH      O 2817   2.242   0.407   1.285
  871HOH     H1 2818   2.273   0.338   1.226
  871HOH     H2 2819   2.216   0.478   1.227
  872HOH      O 2820   3.808   0.735   2.818
  872HOH     H1 2821   3.878   0.786   2.778
  872HOH     H2 2822   3.844   0.706   2.902
  873HOH      O 2823   0.579   2.575   2.884
  873HOH     H1 2824   0.523   2.510   2.927
  873HOH     H2 2825   0.525   2.613   2.815
  874HOH      O 2826   1.960   1.398   0.630
  874HOH     H1 2827   1.976   1.485   0.592
  874HOH     H2 2828   2.013   1.397   0.710
  875HOH      O 2829   3.072   1.134   1.486
  875HOH     H1 2830   3.052   1.041   1.493
  875HOH     H2 2831   3.123   1.142   1.405
  876HOH      O 2832   3.622   1.650   2.088
  876HOH     H1 2833   3.545   1.599   2.061
  876HOH     H2 2834   3.658   1.602   2.162
  877HOH      O 2835   1.642   0.619   2.825
  877HOH     H1 2836   1.684   0.619   2.912
  877HOH     H2 2837   1.603   0.532   2.818
  878HOH      O 2838   1.082   0.938   2.847
  878HOH     H1 2839   1.065   0.855   2.803
  878HOH     H2 2840   1.104   0.999   2.776
  879HOH      O 2841   1.690   2.521   4.022
  879HOH     H1 2842   1.638   2.601   4.017
  879HOH     H2 2843   1.688   2.486   3.932
  880HOH      O 2844   3.842   2.494   2.876
  880HOH     H1 2845   3.934   2.489   2.850
  880HOH     H2 2846   3.819   2.586   2.864
  881HOH      O 2847   3.518   2.887   1.954
  881HOH     H1 2848   3.449   2.871   1.889
  881HOH     H2 2849   3.585   2.936   1.906
  882HOH      O 2850   1.566   1.240   1.204
  882HOH     H1 2851   1.569   1.158   1.254
  882HOH     H2 2852   1.518   1.301   1.260
  883HOH      O 2853   3.544   0.247   2.121
  883HOH     H1 2854   3.470   0.186   2.117
  883HOH     H2 2855   3.541   0.282   2.210
  884HOH      O 2856   3.872   3.292   1.481
  884HOH     H1 2857   3.807   3.228   1.510
  884HOH     H2 2858   3.853   3.307   1.389
  885HOH      O 2859   3.669   2.300   2.662
  885HOH     H1 2860   3.681   2.273   2.571
  885HOH     H2 2861   3.604   2.370   2.658
  886HOH      O 2862   0.230   2.606   1.561
  886HOH     H1 2863   0.292   2.664   1.605
  886HOH     H2 2864   0.147   2.623   1.605
  887HOH      O 2865   3.958   0.439   3.846
  887HOH     H1 2866   3.876   0.456   3.893
  887HOH     H2 2867   3.958   0.344   3.832
  888HOH      O 2868   3.765   0.882   3.582
  888HOH     H1 2869   3.797   0.813   3.640
  888HOH     H2 2870   3.842   0.937   3.566
  889HOH      O 2871   1.441   1.043   1.051
  889HOH     H1 2872   1.512   1.003   1.001
  889HOH     H2 2873   1.476   1.128   1.077
  890HOH      O 2874   3.209   3.173   1.355
  890HOH     H1 2875   3.176   3.234   1.421
  890HOH     H2 2876   3.237   3.229   1.282
  891HOH      O 2877   0.698   2.319   2.080
  891HOH     H1 2878   0.663   2.306   2.168
  891HOH     H2 2879   0.758   2.394   2.089
  892HOH      O 2880   0.276   1.281   0.456
  892HOH     H1 2881   0.309   1.202   0.499
  892HOH     H2 2882   0.258   1.253   0.366
  893HOH      O 2883   1.831   0.310   3.392
  893HOH     H1 2884   1.746   0.319   3.434
  893HOH     H2 2885   1.832   0.220   3.360
  894HOH      O 2886   3.410   2.217   2.793
  894HOH     H1 2887   3.469   2.268   2.738
  894HOH     H2 2888   3.340   2.190   2.733
  895HOH      O 2889   3.993   1.108   0.763
  895HOH     H1 2890   3.940   1.119   0.684
  895HOH     H2 2891   4.000   1.197   0.799
  896HOH      O 2892   0.249   3.295   1.435
  896HOH     H1 2893   0.204   3.377   1.459
  896HOH     H2 2894   0.276   3.257   1.518
  897HOH      O 2895   3.185   3.178   3.590
  897HOH     H1 2896   3.123   3.230   3.539
  897HOH     H2 2897   3.262   3.172   3.535
  898HOH      O 2898   1.730   1.826   2.638
  898HOH     H1 2899   1.824   1.827   2.654
  898HOH     H2 2900   1.714   1.902   2.582
  899HOH      O 2901   3.088   2.484   2.153
  899HOH     H1 2902   3.167   2.528   2.185
  899HOH     H2 2903   3.069   2.527   2.069
  900HOH      O 2904   0.120   2.509   0.475
  900HOH     H1 2905   0.128   2.433   0.533
  900HOH     H2 2906   0.145   2.584   0.530
  901HOH      O 2907   2.855   0.748   2.067
  901HOH     H1 2908   2.827   0.838   2.050
  901HOH     H2 2909   2.827   0.699   1.990
  902HOH      O 2910   1.039   3.011   3.281
  902HOH     H1 2911   0.977   2.938   3.277
  902HOH     H2 2912   1.008   3.071   3.213
  903HOH      O 2913   3.831   1.327   1.099
  903HOH     H1 2914   3.910   1.341   1.046
  903HOH     H2 2915   3.760   1.360   1.044
  904HOH      O 2916   3.267   3.989   0.030
  904HOH     H1 2917   3.203   4.026  -0.031
  904HOH     H2 2918   3.216   3.962   0.106
  905HOH      O 2919   3.988   2.572   1.850
  905HOH     H1 2920   3.971   2.626   1.772
  905HOH     H2 2921   4.042   2.627   1.906
  906HOH      O 2922   1.161   0.395   2.469
  906HOH     H1 2923   1.214   0.413   2.392
  906HOH     H2 2924   1.092   0.337   2.438
  907HOH      O 2925   1.501   3.394   0.529
  907HOH     H1 2926   1.424   3.419   0.580
  907HOH     H2 2927   1.465   3.361   0.447
  908HOH      O 2928   3.510   3.316   3.862
  908HOH     H1 2929   3.586   3.373   3.847
  908HOH     H2 2930   3.493   3.323   3.956
  909HOH      O 2931   0.528   1.748   0.073
  909HOH     H1 2932   0.519   1.753   0.168
  909HOH     H2 2933   0.520   1.655   0.054
  910HOH      O 2934   0.004   2.087   2.661
  910HOH     H1 2935   0.074   2.085   2.596
  910HOH     H2 2936  -0.033   2.175   2.654
  911HOH      O 2937   3.050   2.256   2.822
  911HOH     H1 2938   2.963   2.220   2.807
  911HOH     H2 2939   3.091   2.255   2.735
  912HOH      O 2940   3.734   2.252   2.100
  912HOH     H1 2941   3.646   2.251   2.137
  912HOH     H2 2942   3.726   2.303   2.019
  913HOH      O 2943   0.426   2.228   1.034
  913HOH     H1 2944   0.373   2.284   0.978
  913HOH     H2 2945   0.375   2.148   1.043
  914HOH      O 2946   3.517   0.412   0.126
  914HOH     H1 2947   3.457   0.347   0.090
  914HOH     H2 2948   3.596   0.362   0.148
  915HOH      O 2949   1.943   1.783   0.986
  915HOH     H1 2950   2.018   1.835   0.959
  915HOH     H2 2951   1.866   1.830   0.953
  916HOH      O 2952   1.329   3.361   0.735
  916HOH     H1 2953   1.255   3.373   0.795
  916HOH     H2 2954   1.397   3.321   0.787
  917HOH      O 2955   0.540   1.374   0.238
  917HOH     H1 2956   0.567   1.408   0.323
  917HOH     H2 2957   0.556   1.279   0.244
  918HOH      O 2958   1.084   3.613   2.804
  918HOH     H1 2959   1.056   3.690   2.754
  918HOH     H2 2960   1.019   3.546   2.783
  919HOH      O 2961   3.487   0.206   1.045
  919HOH     H1 2962   3.579   0.192   1.023
  919HOH     H2 2963   3.442   0.206   0.961
  920HOH      O 2964   3.283   1.637   2.159
  920HOH     H1 2965   3.213   1.612   2.098
  920HOH     H2 2966   3.324   1.554   2.183
  921HOH      O 2967   2.623   2.487   1.251
  921HOH     H1 2968   2.707   2.514   1.287
  921HOH     H2 2969   2.571   2.567   1.245
  922HOH      O 2970   1.634   0.348   2.859
  922HOH     H1 2971   1.721   0.318   2.886
  922HOH     H2 2972   1.603   0.281   2.798
  923HOH      O 2973   0.672   1.492   0.722
  923HOH     H1 2974   0.655   1.508   0.815
  923HOH     H2 2975   0.753   1.539   0.704
  924HOH      O 2976   1.238   1.645   0.481
  924HOH     H1 2977   1.328   1.648   0.447
  924HOH     H2 2978   1.229   1.556   0.516
  925HOH      O 2979   3.929   0.427   0.394
  925HOH     H1 2980   3.942   0.338   0.359
  925HOH     H2 2981   4.018   0.460   0.407
  926HOH      O 2982   1.372   2.284   2.588
  926HOH     H1 2983   1.290   2.319   2.552
  926HOH     H2 2984   1.414   2.360   2.629
  927HOH      O 2985   2.069   3.388   0.883
  927HOH     H1 2986   2.152   3.356   0.917
  927HOH     H2 2987   2.076   3.484   0.890
  928HOH      O 2988   3.755   0.403   3.168
  928HOH     H1 2989   3.775   0.321   3.212
  928HOH     H2 2990   3.766   0.470   3.236
  929HOH      O 2991   0.434   2.722   2.726
  929HOH     H1 2992   0.381   2.752   2.652
  929HOH     H2 2993   0.476   2.801   2.760
  930HOH      O 2994   3.389   4.045   2.125
  930HOH     H1 2995   3.370   4.037   2.218
  930HOH     H2 2996   3.330   3.982   2.083
  931HOH      O 2997   0.368   2.720   3.345
  931HOH     H1 2998   0.311   2.784   3.304
  931HOH     H2 2999   0.347   2.726   3.438
  932HOH      O 3000   0.895   3.655   3.868
  932HOH     H1 3001   0.931   3.585   3.923
  932HOH     H2 3002   0.918   3.736   3.913
  933HOH      O 3003   0.943   1.891   2.848
  933HOH     H1 3004   0.991   1.958   2.798
  933HOH     H2 3005   0.975   1.808   2.812
  934HOH      O 3006   0.993   2.468   1.357
  934HOH     H1 3007   1.022   2.393   1.305
  934HOH     H2 3008   1.004   2.441   1.448
  935HOH      O 3009   2.187   3.899   1.186
  935HOH     H1 3010   2.250   3.846   1.236
  935HOH     H2 3011   2.109   3.844   1.179
  936HOH      O 3012   0.239   1.467   4.063
  936HOH     H1 3013   0.322   1.457   4.017
  936HOH     H2 3014   0.178   1.413   4.013
  937HOH      O 3015   0.733   0.417   2.041
  937HOH     H1 3016   0.733   0.417   2.137
  937HOH     H2 3017   0.826   0.412   2.018
  938HOH      O 3018   1.729   2.052   3.947
  938HOH     H1 3019   1.638   2.021   3.949
  938HOH     H2 3020   1.762   2.036   4.036
  939HOH      O 3021   1.863   1.454   1.961
  939HOH     H1 3022   1.905   1.519   2.016
  939HOH     H2 3023   1.788   1.424   2.012
  940HOH      O 3024   1.927   3.831   0.929
  940HOH     H1 3025   1.928   3.828   1.025
  940HOH     H2 3026   2.003   3.780   0.902
  941HOH      O 3027   2.171   1.625   4.018
  941HOH     H1 3028   2.117   1.687   4.068
  941HOH     H2 3029   2.171   1.661   3.929
  942HOH      O 3030   0.292   2.961   1.510
  942HOH     H1 3031   0.228   2.990   1.444
  942HOH     H2 3032   0.353   2.906   1.462
  943HOH      O 3033   3.708   1.861   0.979
  943HOH     H1 3034   3.629   1.830   1.024
  943HOH     H2 3035   3.675   1.926   0.916
  944HOH      O 3036   0.277   1.394   2.249
  944HOH     H1 3037   0.266   1.472   2.193
  944HOH     H2 3038   0.203   1.338   2.226
  945HOH      O 3039   2.964   0.527   1.636
  945HOH     H1 3040   3.050   0.563   1.656
  945HOH     H2 3041   2.978   0.433   1.626
  946HOH      O 3042   2.824   2.558   1.834
  946HOH     H1 3043   2.903   2.513   1.805
  946HOH     H2 3044   2.779   2.581   1.753
  947HOH      O 3045   2.555   0.724   3.734
  947HOH     H1 3046   2.646   0.706   3.756
  947HOH     H2 3047   2.508   0.717   3.817
  948HOH      O 3048   1.219   4.022   0.453
  948HOH     H1 3049   1.230   3.929   0.436
  948HOH     H2 3050   1.307   4.058   0.446
  949HOH      O 3051   3.711   3.628   1.113
  949HOH     H1 3052   3.649   3.606   1.043
  949HOH     H2 3053   3.657   3.669   1.180
  950HOH      O 3054   3.822   2.785   2.866
  950HOH     H1 3055   3.855   2.873   2.881
  950HOH     H2 3056   3.768   2.792   2.788
  951HOH      O 3057   2.513   3.448   1.777
  951HOH     H1 3058   2.576   3.472   1.708
  951HOH     H2 3059   2.518   3.520   1.840
  952HOH      O 3060   1.909   3.822   1.193
  952HOH     H1 3061   1.841   3.885   1.217
  952HOH     H2 3062   1.867   3.737   1.200
  953HOH      O 3063   1.911   2.765   0.473
  953HOH     H1 3064   1.969   2.714   0.529
  953HOH     H2 3065   1.967   2.833   0.435
  954HOH      O 3066   2.407   2.628   3.749
  954HOH     H1 3067   2.391   2.533   3.751
  954HOH     H2 3068   2.470   2.642   3.820
  955HOH      O 3069   1.053   3.039   1.503
  955HOH     H1 3070   1.085   3.121   1.464
  955HOH     H2 3071   1.130   2.983   1.506
  956HOH      O 3072   3.286   2.899   1.426
  956HOH     H1 3073   3.296   2.983   1.381
  956HOH     H2 3074   3.341   2.908   1.504
  957HOH      O 3075   2.535   3.061   0.404
  957HOH     H1 3076   2.583   3.078   0.485
  957HOH     H2 3077   2.472   2.993   0.428
  958HOH      O 3078   3.995   0.166   0.257
  958HOH     H1 3079   3.971   0.074   0.273
  958HOH     H2 3080   4.069   0.182   0.315
  959HOH      O 3081   0.385   1.372   3.094
  959HOH     H1 3082   0.382   1.391   3.000
  959HOH     H2 3083   0.387   1.276   3.100
  960HOH      O 3084   0.496   4.059   1.841
  960HOH     H1 3085   0.572   4.077   1.898
  960HOH     H2 3086   0.498   3.964   1.827
  961HOH      O 3087   3.543   2.925   3.282
  961HOH     H1 3088   3.526   3.018   3.298
  961HOH     H2 3089   3.536   2.916   3.187
  962HOH      O 3090   3.323   1.380   3.993
  962HOH     H1 3091   3.404   1.329   4.002
  962HOH     H2 3092   3.305   1.412   4.081
  963HOH      O 3093   3.539   1.892   0.023
  963HOH     H1 3094   3.544   1.798   0.008
  963HOH     H2 3095   3.574   1.905   0.111
  964HOH      O 3096   2.465   1.846   1.637
  964HOH     H1 3097   2.436   1.756   1.625
  964HOH     H2 3098   2.456   1.886   1.551
  965HOH      O 3099   2.743   3.211   3.650
  965HOH     H1 3100   2.825   3.161   3.645
  965HOH     H2 3101   2.694   3.170   3.721
  966HOH      O 3102   2.922   2.934   1.598
  966HOH     H1 3103   2.946   2.958   1.687
  966HOH     H2 3104   2.996   2.882   1.566
  967HOH      O 3105   1.446   1.508   2.155
  967HOH     H1 3106   1.403   1.477   2.235
  967HOH     H2 3107   1.447   1.603   2.164
  968HOH      O 3108   3.605   1.430   1.793
  968HOH     H1 3109   3.524   1.469   1.761
  968HOH     H2 3110   3.668   1.502   1.790
  969HOH      O 3111   3.750   0.171   1.037
  969HOH     H1 3112   3.813   0.236   1.006
  969HOH     H2 3113   3.802   0.092   1.050
  970HOH      O 3114   0.459   3.155   3.765
  970HOH     H1 3115   0.471   3.167   3.671
  970HOH     H2 3116   0.535   3.103   3.792
  971HOH      O 3117   1.391   2.403   1.729
  971HOH     H1 3118   1.344   2.482   1.756
  971HOH     H2 3119   1.389   2.405   1.633
  972HOH      O 3120   1.598   1.868   2.872
  972HOH     H1 3121   1.636   1.855   2.785
  972HOH     H2 3122   1.503   1.867   2.857
  973HOH      O 3123   0.470   1.413   2.809
  973HOH     H1 3124   0.392   1.467   2.796
  973HOH     H2 3125   0.538   1.455   2.756
  974HOH      O 3126   1.208   2.813   1.527
  974HOH     H1 3127   1.303   2.823   1.522
  974HOH     H2 3128   1.195   2.728   1.569
  975HOH      O 3129   3.830   3.102   2.492
  975HOH     H1 3130   3.743   3.065   2.476
  975HOH     H2 3131   3.889   3.044   2.444
  976HOH      O 3132   1.137   3.457   3.040
  976HOH     H1 3133   1.115   3.494   2.955
  976HOH     H2 3134   1.052   3.443   3.083
  977HOH      O 3135   2.378   0.481   0.521
  977HOH     H1 3136   2.282   0.479   0.512
  977HOH     H2 3137   2.399   0.573   0.530
  978HOH      O 3138   1.678   3.808   1.583
  978HOH     H1 3139   1.665   3.746   1.512
  978HOH     H2 3140   1.680   3.754   1.662
  979HOH      O 3141   2.050   1.192   3.091
  979HOH     H1 3142   2.125   1.239   3.056
  979HOH     H2 3143   1.978   1.216   3.033
  980HOH      O 3144   1.439   1.902   3.309
  980HOH     H1 3145   1.442   1.947   3.225
  980HOH     H2 3146   1.500   1.950   3.365
  981HOH      O 3147   0.252   0.370   0.903
  981HOH     H1 3148   0.215   0.450   0.941
  981HOH     H2 3149   0.331   0.354   0.956
  982HOH      O 3150   1.264   1.363   2.657
  982HOH     H1 3151   1.173   1.369   2.628
  982HOH     H2 3152   1.303   1.446   2.630
  983HOH      O 3153   1.355   1.866   2.519
  983HOH     H1 3154   1.426   1.929   2.532
  983HOH     H2 3155   1.309   1.897   2.441
  984HOH      O 3156   0.877   2.121   3.279
  984HOH     H1 3157   0.901   2.122   3.186
  984HOH     H2 3158   0.781   2.114   3.279
  985HOH      O 3159   0.892   0.340   1.066
  985HOH     H1 3160   0.973   0.383   1.041
  985HOH     H2 3161   0.823   0.390   1.021
  986HOH      O 3162   3.145   2.698   3.989
  986HOH     H1 3163   3.205   2.671   3.919
  986HOH     H2 3164   3.144   2.794   3.984
  987HOH      O 3165   3.328   2.972   1.736
  987HOH     H1 3166   3.283   3.051   1.763
  987HOH     H2 3167   3.411   3.002   1.700
  988HOH      O 3168   2.352   1.958   0.695
  988HOH     H1 3169   2.376   2.025   0.760
  988HOH     H2 3170   2.405   1.882   0.718
  989HOH      O 3171   2.508   2.586   2.492
  989HOH     H1 3172   2.505   2.639   2.412
  989HOH     H2 3173   2.460   2.638   2.556
  990HOH      O 3174   0.417   2.194   1.599
  990HOH     H1 3175   0.497   2.225   1.642
  990HOH     H2 3176   0.347   2.221   1.659
  991HOH      O 3177   1.058   3.440   1.846
  991HOH     H1 3178   1.022   3.479   1.926
  991HOH     H2 3179   1.066   3.347   1.865
  992HOH      O 3180   1.200   2.140   3.356
  992HOH     H1 3181   1.197   2.182   3.270
  992HOH     H2 3182   1.225   2.049   3.337
  993HOH      O 3183   2.237   2.231   1.553
  993HOH     H1 3184   2.288   2.309   1.570
  993HOH     H2 3185   2.230   2.188   1.638
  994HOH      O 3186   2.849   0.453   1.285
  994HOH     H1 3187   2.877   0.384   1.225
  994HOH     H2 3188   2.930   0.495   1.314
  995HOH      O 3189   1.027   3.234   2.810
  995HOH     H1 3190   0.958   3.293   2.778
  995HOH     H2 3191   1.107   3.284   2.803
  996HOH      O 3192   2.205   4.056   0.679
  996HOH     H1 3193   2.215   3.985   0.743
  996HOH     H2 3194   2.153   4.018   0.609
  997HOH      O 3195   3.992   2.162   3.829
  997HOH     H1 3196   3.987   2.139   3.736
  997HOH     H2 3197   3.915   2.216   3.844
  998HOH      O 3198   3.133   3.374   2.744
  998HOH     H1 3199   3.227   3.360   2.741
  998HOH     H2 3200   3.095   3.286   2.742
  999HOH      O 3201   1.004   2.378   1.659
  999HOH     H1 3202   1.068   2.435   1.702
  999HOH     H2 3203   0.926   2.433   1.648
 1000HOH      O 3204   3.203   2.445   0.834
 1000HOH     H1 3205   3.178   2.371   0.889
 1000HOH     H2 3206   3.213   2.519   0.895
 1001HOH      O 3207   0.492   2.579   1.939
 1001HOH     H1 3208   0.535   2.663   1.923
 1001HOH     H2 3209   0.408   2.586   1.893
 1002HOH      O 3210   2.710   3.472   3.147
 1002HOH     H1 3211   2.763   3.455   3.070
 1002HOH     H2 3212   2.677   3.561   3.134
 1003HOH      O 3213   3.717   3.465   3.494
 1003HOH     H1 3214   3.658   3.453   3.419
 1003HOH     H2 3215   3.755   3.552   3.481
 1004HOH      O 3216   2.168   2.673   1.397
 1004HOH     H1 3217   2.193   2.711   1.312
 1004HOH     H2 3218   2.222   2.595   1.405
 1005HOH      O 3219   1.364   0.371   0.832
 1005HOH     H1 3220   1.429   0.385   0.764
 1005HOH     H2 3221   1.284   0.409   0.797
 1006HOH      O 3222   2.929   1.605   3.750
 1006HOH     H1 3223   2.841   1.598   3.787
 1006HOH     H2 3224   2.986   1.617   3.826
 1007HOH      O 3225   0.868   1.902   1.322
 1007HOH     H1 3226   0.962   1.901   1.340
 1007HOH     H2 3227   0.842   1.994   1.336
 1008HOH      O 3228   0.155   3.968   1.226
 1008HOH     H1 3229   0.247   3.956   1.252
 1008HOH     H2 3230   0.160   4.013   1.142
 1009HOH      O 3231   0.915   1.524   1.286
 1009HOH     H1 3232   0.840   1.499   1.340
 1009HOH     H2 3233   0.979   1.559   1.348
 1010HOH      O 3234   1.387   0.959   3.873
 1010HOH     H1 3235   1.479   0.931   3.867
 1010HOH     H2 3236   1.340   0.899   3.816
 1011HOH      O 3237   1.164   0.961   2.378
 1011HOH     H1 3238   1.080   1.003   2.357
 1011HOH     H2 3239   1.176   0.897   2.308
 1012HOH      O 3240   0.826   2.605   0.447
 1012HOH     H1 3241   0.865   2.687   0.416
 1012HOH     H2 3242   0.837   2.607   0.542
 1013HOH      O 3243   2.746   1.028   3.018
 1013HOH     H1 3244   2.803   0.977   2.960
 1013HOH     H2 3245   2.711   1.097   2.962
 1014HOH      O 3246   0.909   0.962   3.751
 1014HOH     H1 3247   0.944   1.048   3.728
 1014HOH     H2 3248   0.887   0.969   3.844
 1015HOH      O 3249   1.722   3.119   3.685
 1015HOH     H1 3250   1.758   3.168   3.612
 1015HOH     H2 3251   1.630   3.105   3.662
 1016HOH      O 3252   0.301   2.730   1.808
 1016HOH     H1 3253   0.216   2.756   1.844
 1016HOH     H2 3254   0.356   2.808   1.817
 1017HOH      O 3255   0.673   2.402   1.488
 1017HOH     H1 3256   0.611   2.469   1.460
 1017HOH     H2 3257   0.707   2.435   1.572
 1018HOH      O 3258   2.741   0.053   0.655
 1018HOH     H1 3259   2.683   0.050   0.731
 1018HOH     H2 3260   2.808   0.118   0.679
 1019HOH      O 3261   3.240   2.937   3.823
 1019HOH     H1 3262   3.205   2.949   3.735
 1019HOH     H2 3263   3.322   2.985   3.824
 1020HOH      O 3264   3.617   0.055   3.210
 1020HOH     H1 3265   3.660   0.098   3.136
 1020HOH     H2 3266   3.541   0.110   3.230
 1021HOH      O 3267   1.751   3.344   2.882
 1021HOH     H1 3268   1.751   3.284   2.956
 1021HOH     H2 3269   1.667   3.389   2.887
 1022HOH      O 3270   2.593   3.064   3.825
 1022HOH     H1 3271   2.516   3.121   3.821
 1022HOH     H2 3272   2.576   3.005   3.899
 1023HOH      O 3273   2.029   2.956   1.037
 1023HOH     H1 3274   1.964   3.006   1.086
 1023HOH     H2 3275   2.018   2.984   0.946
 1024HOH      O 3276   0.382   2.907   1.110
 1024HOH     H1 3277   0.301   2.940   1.148
 1024HOH     H2 3278   0.451   2.944   1.166
 1025HOH      O 3279   1.011   0.179   3.974
 1025HOH     H1 3280   0.945   0.126   4.020
 1025HOH     H2 3281   0.960   0.243   3.924
 1026HOH      O 3282   1.156   1.872   0.345
 1026HOH     H1 3283   1.065   1.846   0.330
 1026HOH     H2 3284   1.193   1.800   0.396
 1027HOH      O 3285   1.596   0.203   1.336
 1027HOH     H1 3286   1.609   0.297   1.347
 1027HOH     H2 3287   1.569   0.192   1.245
 1028HOH      O 3288   0.838   1.166   0.546
 1028HOH     H1 3289   0.821   1.219   0.624
 1028HOH     H2 3290   0.933   1.161   0.541
 1029HOH      O 3291   3.979   2.933   3.263
 1029HOH     H1 3292   4.052   2.984   3.228
 1029HOH     H2 3293   3.989   2.939   3.358
 1030HOH      O 3294   2.648   3.993   0.931
 1030HOH     H1 3295   2.684   4.061   0.988
 1030HOH     H2 3296   2.619   3.924   0.991
 1031HOH      O 3297   2.133   1.135   1.135
 1031HOH     H1 3298   2.064   1.072   1.157
 1031HOH     H2 3299   2.124   1.148   1.041
 1032HOH      O 3300   3.445   3.448   0.348
 1032HOH     H1 3301   3.384   3.376   0.365
 1032HOH     H2 3302   3.410   3.492   0.270
 1033HOH      O 3303   2.706   0.610   0.207
 1033HOH     H1 3304   2.644   0.548   0.244
 1033HOH     H2 3305   2.736   0.662   0.282
 1034HOH      O 3306   1.673   0.699   2.566
 1034HOH     H1 3307   1.672   0.693   2.662
 1034HOH     H2 3308   1.585   0.674   2.539
 1035HOH      O 3309   3.707   3.196   0.098
 1035HOH     H1 3310   3.628   3.249   0.099
 1035HOH     H2 3311   3.678   3.108   0.119
 1036HOH      O 3312   1.993   0.191   2.912
 1036HOH     H1 3313   1.962   0.254   2.978
 1036HOH     H2 3314   1.913   0.151   2.878
 1037HOH      O 3315   2.941   2.484   1.087
 1037HOH     H1 3316   2.913   2.513   1.173
 1037HOH     H2 3317   3.036   2.497   1.087
 1038HOH      O 3318   0.865   0.261   0.239
 1038HOH     H1 3319   0.920   0.339   0.232
 1038HOH     H2 3320   0.776   0.293   0.225
 1039HOH      O 3321   2.409   3.646   3.080
 1039HOH     H1 3322   2.488   3.692   3.106
 1039HOH     H2 3323   2.337   3.702   3.108
 1040HOH      O 3324   1.192   0.793   0.049
 1040HOH     H1 3325   1.277   0.753   0.067
 1040HOH     H2 3326   1.186   0.794  -0.047
 1041HOH      O 3327   2.632   1.661   2.398
 1041HOH     H1 3328   2.712   1.666   2.450
 1041HOH     H2 3329   2.635   1.574   2.358
 1042HOH      O 3330   1.565   1.066   0.649
 1042HOH     H1 3331   1.630   1.009   0.606
 1042HOH     H2 3332   1.592   1.067   0.741
 1043HOH      O 3333   1.564   2.618   3.278
 1043HOH     H1 3334   1.573   2.607   3.183
 1043HOH     H2 3335   1.472   2.595   3.296
 1044HOH      O 3336   2.183   1.800   1.905
 1044HOH     H1 3337   2.097   1.840   1.921
 1044HOH     H2 3338   2.243   1.847   1.963
 1045HOH      O 3339   1.473   0.461   1.044
 1045HOH     H1 3340   1.393   0.444   1.094
 1045HOH     H2 3341   1.447   0.448   0.953
 1046HOH      O 3342   4.047   3.428   0.388
 1046HOH     H1 3343   3.956   3.431   0.359
 1046HOH     H2 3344   4.085   3.510   0.357
 1047HOH      O 3345   0.160   0.646   0.631
 1047HOH     H1 3346   0.178   0.604   0.715
 1047HOH     H2 3347   0.112   0.725   0.654
 1048HOH      O 3348   3.452   2.309   0.472
 1048HOH     H1 3349   3.359   2.286   0.482
 1048HOH     H2 3350   3.456   2.357   0.390
 1049HOH      O 3351   0.612   2.203   0.270
 1049HOH     H1 3352   0.541   2.139   0.279
 1049HOH     H2 3353   0.568   2.287   0.262
 1050HOH      O 3354   2.852   3.484   2.621
 1050HOH     H1 3355   2.784   3.417   2.626
 1050HOH     H2 3356   2.863   3.500   2.527
 1051HOH      O 3357   0.697   3.634   2.626
 1051HOH     H1 3358   0.666   3.608   2.539
 1051HOH     H2 3359   0.641   3.707   2.650
 1052HOH      O 3360   0.417   2.786   0.707
 1052HOH     H1 3361   0.332   2.743   0.709
 1052HOH     H2 3362   0.479   2.719   0.735
 1053HOH      O 3363   0.812   1.799   1.052
 1053HOH     H1 3364   0.800   1.838   1.139
 1053HOH     H2 3365   0.879   1.853   1.010
 1054HOH      O 3366   1.299   1.504   1.581
 1054HOH     H1 3367   1.355   1.558   1.637
 1054HOH     H2 3368   1.309   1.416   1.615
 1055HOH      O 3369   3.580   2.143   1.219
 1055HOH     H1 3370   3.667   2.165   1.187
 1055HOH     H2 3371   3.581   2.169   1.312
 1056HOH      O 3372   3.030   3.320   1.505
 1056HOH     H1 3373   2.981   3.402   1.504
 1056HOH     H2 3374   2.964   3.253   1.524
 1057HOH      O 3375   2.071   0.573   3.179
 1057HOH     H1 3376   2.159   0.605   3.196
 1057HOH     H2 3377   2.020   0.602   3.255
 1058HOH      O 3378   2.000   3.406   3.972
 1058HOH     H1 3379   1.936   3.474   3.993
 1058HOH     H2 3380   2.083   3.453   3.964
 1059HOH      O 3381   1.680   1.376   2.145
 1059HOH     H1 3382   1.604   1.434   2.154
 1059HOH     H2 3383   1.677   1.322   2.224
 1060HOH      O 3384   0.357   0.700   3.204
 1060HOH     H1 3385   0.396   0.743   3.127
 1060HOH     H2 3386   0.371   0.763   3.275
 1061HOH      O 3387   0.674   0.577   3.018
 1061HOH     H1 3388   0.704   0.575   3.108
 1061HOH     H2 3389   0.625   0.496   3.007
 1062HOH      O 3390   0.839   1.001   1.101
 1062HOH     H1 3391   0.745   0.989   1.109
 1062HOH     H2 3392   0.863   0.948   1.024
 1063HOH      O 3393   0.951   3.125   1.875
 1063HOH     H1 3394   0.944   3.064   1.802
 1063HOH     H2 3395   0.936   3.072   1.953
 1064HOH      O 3396   3.731   3.881   0.737
 1064HOH     H1 3397   3.648   3.864   0.692
 1064HOH     H2 3398   3.791   3.815   0.701
 1065HOH      O 3399   3.175   1.679   3.883
 1065HOH     H1 3400   3.187   1.643   3.971
 1065HOH     H2 3401   3.217   1.765   3.886
 1066HOH      O 3402   2.966   0.456   0.428
 1066HOH     H1 3403   2.975   0.528   0.491
 1066HOH     H2 3404   2.874   0.430   0.433
 1067HOH      O 3405   2.739   3.461   1.597
 1067HOH     H1 3406   2.701   3.480   1.512
 1067HOH     H2 3407   2.767   3.370   1.592
 1068HOH      O 3408   2.843   1.606   2.630
 1068HOH     H1 3409   2.905   1.638   2.695
 1068HOH     H2 3410   2.758   1.607   2.676
 1069HOH      O 3411   2.239   2.559   4.044
 1069HOH     H1 3412   2.196   2.547   3.959
 1069HOH     H2 3413   2.167   2.573   4.106
 1070HOH      O 3414   3.536   3.628   2.972
 1070HOH     H1 3415   3.443   3.651   2.967
 1070HOH     H2 3416   3.568   3.638   2.882
 1071HOH      O 3417   0.285   2.829   2.295
 1071HOH     H1 3418   0.359   2.778   2.263
 1071HOH     H2 3419   0.324   2.903   2.341
 1072HOH      O 3420   2.794   2.535   3.301
 1072HOH     H1 3421   2.783   2.620   3.343
 1072HOH     H2 3422   2.727   2.479   3.341
 1073HOH      O 3423   2.975   3.759   0.061
 1073HOH     H1 3424   3.053   3.771   0.006
 1073HOH     H2 3425   2.954   3.847   0.092
 1074HOH      O 3426   2.613   0.592   1.785
 1074HOH     H1 3427   2.669   0.545   1.846
 1074HOH     H2 3428   2.569   0.658   1.838
 1075HOH      O 3429   1.189   2.261   3.124
 1075HOH     H1 3430   1.127   2.327   3.154
 1075HOH     H2 3431   1.149   2.225   3.044
 1076HOH      O 3432   0.845   2.127   2.992
 1076HOH     H1 3433   0.866   2.064   2.924
 1076HOH     H2 3434   0.841   2.211   2.947
 1077HOH      O 3435   0.811   1.716   2.439
 1077HOH     H1 3436   0.800   1.669   2.357
 1077HOH     H2 3437   0.813   1.808   2.414
 1078HOH      O 3438   3.244   2.832   0.482
 1078HOH     H1 3439   3.228   2.850   0.389
 1078HOH     H2 3440   3.212   2.743   0.496
 1079HOH      O 3441   3.440   2.995   0.257
 1079HOH     H1 3442   3.470   2.932   0.191
 1079HOH     H2 3443   3.344   2.987   0.256
 1080HOH      O 3444   1.191   3.670   3.831
 1080HOH     H1 3445   1.284   3.648   3.824
 1080HOH     H2 3446   1.153   3.636   3.750
 1081HOH      O 3447   3.200   3.584   2.025
 1081HOH     H1 3448   3.259   3.517   1.992
 1081HOH     H2 3449   3.148   3.539   2.092
 1082HOH      O 3450   3.121   3.620   0.316
 1082HOH     H1 3451   3.098   3.574   0.397
 1082HOH     H2 3452   3.114   3.552   0.248
 1083HOH      O 3453   0.980   0.608   0.462
 1083HOH     H1 3454   0.920   0.569   0.525
 1083HOH     H2 3455   1.005   0.692   0.502
 1084HOH      O 3456   3.730   3.033   1.857
 1084HOH     H1 3457   3.706   3.124   1.839
 1084HOH     H2 3458   3.815   3.039   1.899
 1085HOH      O 3459   3.489   2.608   2.023
 1085HOH     H1 3460   3.529   2.557   1.953
 1085HOH     H2 3461   3.532   2.693   2.018
 1086HOH      O 3462   0.584   3.022   2.196
 1086HOH     H1 3463   0.610   2.942   2.240
 1086HOH     H2 3464   0.661   3.047   2.144
 1087HOH      O 3465   2.386   1.627   1.905
 1087HOH     H1 3466   2.317   1.692   1.915
 1087HOH     H2 3467   2.402   1.622   1.811
 1088HOH      O 3468   3.246   2.466   2.500
 1088HOH     H1 3469   3.187   2.528   2.544
 1088HOH     H2 3470   3.255   2.500   2.411
 1089HOH      O 3471   1.786   2.522   3.069
 1089HOH     H1 3472   1.757   2.437   3.102
 1089HOH     H2 3473   1.842   2.500   2.994
 1090HOH      O 3474   0.398   1.959   1.456
 1090HOH     H1 3475   0.308   1.932   1.436
 1090HOH     H2 3476   0.393   2.053   1.471
 1091HOH      O 3477   0.209   1.012   3.622
 1091HOH     H1 3478   0.289   1.007   3.675
 1091HOH     H2 3479   0.177   0.922   3.617
 1092HOH      O 3480   2.828   1.076   3.247
 1092HOH     H1 3481   2.768   1.020   3.296
 1092HOH     H2 3482   2.796   1.072   3.157
 1093HOH      O 3483   1.559   0.304   0.055
 1093HOH     H1 3484   1.639   0.305   0.107
 1093HOH     H2 3485   1.489   0.316   0.119
 1094HOH      O 3486   0.263   2.642   1.191
 1094HOH     H1 3487   0.284   2.655   1.098
 1094HOH     H2 3488   0.270   2.548   1.204
 1095HOH      O 3489   0.257   2.039   3.300
 1095HOH     H1 3490   0.250   2.009   3.210
 1095HOH     H2 3491   0.167   2.053   3.328
 1096HOH      O 3492   0.487   1.825   3.704
 1096HOH     H1 3493   0.523   1.839   3.616
 1096HOH     H2 3494   0.392   1.821   3.691
 1097HOH      O 3495   3.544   3.463   1.697
 1097HOH     H1 3496   3.597   3.522   1.643
 1097HOH     H2 3497   3.532   3.385   1.642
 1098HOH      O 3498   2.499   2.174   2.684
 1098HOH     H1 3499   2.550   2.194   2.605
 1098HOH     H2 3500   2.409   2.164   2.651
 1099HOH      O 3501   3.350   1.157   1.591
 1099HOH     H1 3502   3.404   1.221   1.546
 1099HOH     H2 3503   3.260   1.182   1.571
 1100HOH      O 3504   2.314   3.504   3.755
 1100HOH     H1 3505   2.300   3.437   3.689
 1100HOH     H2 3506   2.406   3.492   3.782
 1101HOH      O 3507   2.779   2.418   3.670
 1101HOH     H1 3508   2.837   2.403   3.745
 1101HOH     H2 3509   2.775   2.514   3.663
 1102HOH      O 3510   3.165   0.663   2.562
 1102HOH     H1 3511   3.071   0.677   2.552
 1102HOH     H2 3512   3.202   0.691   2.478
 1103HOH      O 3513   2.393   1.304   3.334
 1103HOH     H1 3514   2.452   1.275   3.264
 1103HOH     H2 3515   2.439   1.280   3.415
 1104HOH      O 3516   0.634   0.962   3.096
 1104HOH     H1 3517   0.718   0.941   3.054
 1104HOH     H2 3518   0.647   1.051   3.130
 1105HOH      O 3519   1.466   0.227   0.528
 1105HOH     H1 3520   1.378   0.259   0.508
 1105HOH     H2 3521   1.487   0.169   0.455
 1106HOH      O 3522   3.824   0.558   2.258
 1106HOH     H1 3523   3.859   0.526   2.342
 1106HOH     H2 3524   3.734   0.528   2.257
 1107HOH      O 3525   3.426   1.153   3.211
 1107HOH     H1 3526   3.500   1.104   3.247
 1107HOH     H2 3527   3.429   1.135   3.117
 1108HOH      O 3528   2.370   1.219   2.005
 1108HOH     H1 3529   2.422   1.139   1.995
 1108HOH     H2 3530   2.280   1.189   2.008
 1109HOH      O 3531   3.698   0.777   3.866
 1109HOH     H1 3532   3.639   0.842   3.827
 1109HOH     H2 3533   3.640   0.716   3.911
 1110HOH      O 3534   1.094   1.638   1.455
 1110HOH     H1 3535   1.126   1.726   1.441
 1110HOH     H2 3536   1.170   1.588   1.486
 1111HOH      O 3537   1.778   2.026   0.961
 1111HOH     H1 3538   1.689   2.003   0.932
 1111HOH     H2 3539   1.766   2.062   1.048
 1112HOH      O 3540   3.838   2.218   2.385
 1112HOH     H1 3541   3.774   2.263   2.330
 1112HOH     H2 3542   3.906   2.190   2.323
 1113HOH      O 3543   2.756   2.698   1.591
 1113HOH     H1 3544   2.785   2.657   1.510
 1113HOH     H2 3545   2.794   2.786   1.589
 1114HOH      O 3546   3.586   0.052   1.732
 1114HOH     H1 3547   3.580   0.138   1.775
 1114HOH     H2 3548   3.653   0.005   1.782
 1115HOH      O 3549   2.376   0.659   3.931
 1115HOH     H1 3550   2.325   0.582   3.905
 1115HOH     H2 3551   2.374   0.657   4.027
 1116HOH      O 3552   3.824   2.014   0.450
 1116HOH     H1 3553   3.894   1.959   0.416
 1116HOH     H2 3554   3.863   2.059   0.525
 1117HOH      O 3555   0.978   0.042   2.961
 1117HOH     H1 3556   0.988   0.064   2.868
 1117HOH     H2 3557   1.034  -0.035   2.973
 1118HOH      O 3558   3.794   3.507   0.842
 1118HOH     H1 3559   3.769   3.522   0.934
 1118HOH     H2 3560   3.729   3.556   0.792
 1119HOH      O 3561   3.956   1.602   3.826
 1119HOH     H1 3562   3.862   1.593   3.812
 1119HOH     H2 3563   3.971   1.696   3.830
 1120HOH      O 3564   2.749   1.267   0.241
 1120HOH     H1 3565   2.661   1.298   0.260
 1120HOH     H2 3566   2.805   1.342   0.258
 1121HOH      O 3567   3.042   1.121   2.635
 1121HOH     H1 3568   3.132   1.150   2.618
 1121HOH     H2 3569   3.004   1.190   2.688
 1122HOH      O 3570   2.973   0.303   3.509
 1122HOH     H1 3571   2.919   0.342   3.578
 1122HOH     H2 3572   3.053   0.357   3.509
 1123HOH      O 3573   3.340   3.664   3.320
 1123HOH     H1 3574   3.284   3.591   3.293
 1123HOH     H2 3575   3.428   3.639   3.289
 1124HOH      O 3576   0.364   3.834   3.273
 1124HOH     H1 3577   0.447   3.880   3.289
 1124HOH     H2 3578   0.328   3.877   3.195
 1125HOH      O 3579   2.680   0.500   0.710
 1125HOH     H1 3580   2.679   0.433   0.778
 1125HOH     H2 3581   2.613   0.563   0.737
 1126HOH      O 3582   3.830   3.880   2.903
 1126HOH     H1 3583   3.794   3.852   2.987
 1126HOH     H2 3584   3.758   3.866   2.840
 1127HOH      O 3585   3.674   2.247   1.795
 1127HOH     H1 3586   3.690   2.338   1.822
 1127HOH     H2 3587   3.760   2.215   1.768
 1128HOH      O 3588   3.454   1.051   2.033
 1128HOH     H1 3589   3.458   0.956   2.035
 1128HOH     H2 3590   3.371   1.070   1.988
 1129HOH      O 3591   1.377   4.028   0.061
 1129HOH     H1 3592   1.297   3.979   0.040
 1129HOH     H2 3593   1.378   4.101  -0.001
 1130HOH      O 3594   0.513   1.495   0.017
 1130HOH     H1 3595   0.554   1.451  -0.058
 1130HOH     H2 3596   0.549   1.449   0.093
 1131HOH      O 3597   0.991   0.823   1.238
 1131HOH     H1 3598   0.925   0.882   1.203
 1131HOH     H2 3599   1.075   0.863   1.215
 1132HOH      O 3600   3.926   3.908   3.799
 1132HOH     H1 3601   3.836   3.877   3.794
 1132HOH     H2 3602   3.977   3.832   3.826
 1133HOH      O 3603   1.383   0.286   2.942
 1133HOH     H1 3604   1.328   0.277   2.864
 1133HOH     H2 3605   1.461   0.331   2.911
 1134HOH      O 3606   2.396   1.878   3.648
 1134HOH     H1 3607   2.473   1.901   3.700
 1134HOH     H2 3608   2.406   1.784   3.632
 1135HOH      O 3609   2.671   0.906   3.404
 1135HOH     H1 3610   2.683   0.955   3.485
 1135HOH     H2 3611   2.717   0.823   3.419
 1136HOH      O 3612   0.862   0.996   3.457
 1136HOH     H1 3613   0.928   1.038   3.402
 1136HOH     H2 3614   0.882   1.025   3.546
 1137HOH      O 3615   0.297   3.191   1.707
 1137HOH     H1 3616   0.214   3.234   1.725
 1137HOH     H2 3617   0.337   3.178   1.793
 1138HOH      O 3618   2.839   1.069   0.794
 1138HOH     H1 3619   2.935   1.065   0.786
 1138HOH     H2 3620   2.806   1.029   0.714
 1139HOH      O 3621   0.967   0.188   1.807
 1139HOH     H1 3622   1.039   0.129   1.829
 1139HOH     H2 3623   0.915   0.139   1.743
 1140HOH      O 3624   0.995   1.615   2.803
 1140HOH     H1 3625   0.911   1.571   2.813
 1140HOH     H2 3626   1.037   1.569   2.730
 1141HOH      O 3627   2.332   0.858   1.689
 1141HOH     H1 3628   2.281   0.930   1.727
 1141HOH     H2 3629   2.414   0.898   1.661
 1142HOH      O 3630   0.948   3.171   1.102
 1142HOH     H1 3631   0.985   3.121   1.029
 1142HOH     H2 3632   0.922   3.104   1.166
 1143HOH      O 3633   0.089   0.549   4.008
 1143HOH     H1 3634   0.025   0.563   4.078
 1143HOH     H2 3635   0.045   0.490   3.947
 1144HOH      O 3636   2.756   0.697   1.354
 1144HOH     H1 3637   2.687   0.660   1.409
 1144HOH     H2 3638   2.803   0.620   1.321
 1145HOH      O 3639   1.117   1.702   3.884
 1145HOH     H1 3640   1.169   1.741   3.955
 1145HOH     H2 3641   1.027   1.711   3.914
 1146HOH      O 3642   0.782   2.249   2.387
 1146HOH     H1 3643   0.758   2.265   2.478
 1146HOH     H2 3644   0.860   2.302   2.373
 1147HOH      O 3645   3.173   0.106   3.591
 1147HOH     H1 3646   3.082   0.112   3.564
 1147HOH     H2 3647   3.202   0.020   3.559
 1148HOH      O 3648   1.750   2.017   3.261
 1148HOH     H1 3649   1.794   2.101   3.269
 1148HOH     H2 3650   1.698   2.008   3.341
 1149HOH      O 3651   1.134   1.957   1.902
 1149HOH     H1 3652   1.186   1.877   1.891
 1149HOH     H2 3653   1.100   1.951   1.991
 1150HOH      O 3654   2.385   0.289   2.764
 1150HOH     H1 3655   2.432   0.359   2.810
 1150HOH     H2 3656   2.296   0.292   2.800
 1151HOH      O 3657   1.416   0.655   0.645
 1151HOH     H1 3658   1.477   0.581   0.645
 1151HOH     H2 3659   1.442   0.707   0.569
 1152HOH      O 3660   1.915   1.071   0.398
 1152HOH     H1 3661   2.008   1.083   0.377
 1152HOH     H2 3662   1.873   1.153   0.370
 1153HOH      O 3663   2.799   2.869   2.748
 1153HOH     H1 3664   2.765   2.944   2.699
 1153HOH     H2 3665   2.725   2.809   2.755
 1154HOH      O 3666   1.446   2.493   2.054
 1154HOH     H1 3667   1.540   2.497   2.035
 1154HOH     H2 3668   1.412   2.431   1.989
 1155HOH      O 3669   2.034   0.700   0.149
 1155HOH     H1 3670   1.947   0.678   0.181
 1155HOH     H2 3671   2.023   0.710   0.054
 1156HOH      O 3672   1.631   0.077   1.060
 1156HOH     H1 3673   1.645  -0.015   1.036
 1156HOH     H2 3674   1.692   0.125   1.004
 1157HOH      O 3675   2.075   0.978   2.361
 1157HOH     H1 3676   2.023   0.899   2.345
 1157HOH     H2 3677   2.013   1.050   2.353
 1158HOH      O 3678   0.449   0.098   3.313
 1158HOH     H1 3679   0.488   0.088   3.226
 1158HOH     H2 3680   0.375   0.156   3.299
 1159HOH      O 3681   2.025   3.900   1.491
 1159HOH     H1 3682   1.972   3.963   1.539
 1159HOH     H2 3683   1.996   3.907   1.400
 1160HOH      O 3684   2.972   3.080   0.692
 1160HOH     H1 3685   2.948   3.007   0.635
 1160HOH     H2 3686   3.042   3.046   0.747
 1161HOH      O 3687   3.425   1.624   3.425
 1161HOH     H1 3688   3.355   1.587   3.479
 1161HOH     H2 3689   3.436   1.561   3.354
 1162HOH      O 3690   1.147   0.504   1.756
 1162HOH     H1 3691   1.141   0.463   1.670
 1162HOH     H2 3692   1.086   0.577   1.752
 1163HOH      O 3693   0.248   0.571   2.557
 1163HOH     H1 3694   0.282   0.654   2.590
 1163HOH     H2 3695   0.298   0.554   2.477
 1164HOH      O 3696   3.944   2.496   3.641
 1164HOH     H1 3697   3.865   2.520   3.591
 1164HOH     H2 3698   3.959   2.404   3.618
 1165HOH      O 3699   2.320   0.681   3.179
 1165HOH     H1 3700   2.360   0.595   3.168
 1165HOH     H2 3701   2.390   0.743   3.157
 1166HOH      O 3702   1.455   1.101   2.150
 1166HOH     H1 3703   1.481   1.158   2.222
 1166HOH     H2 3704   1.464   1.155   2.072
 1167HOH      O 3705   1.501   0.653   0.348
 1167HOH     H1 3706   1.446   0.723   0.315
 1167HOH     H2 3707   1.462   0.573   0.313
 1168HOH      O 3708   2.536   0.307   3.634
 1168HOH     H1 3709   2.607   0.370   3.643
 1168HOH     H2 3710   2.550   0.244   3.705
 1169HOH      O 3711   1.541   3.273   0.958
 1169HOH     H1 3712   1.565   3.234   1.042
 1169HOH     H2 3713   1.620   3.264   0.904
 1170HOH      O 3714   3.045   0.693   3.507
 1170HOH     H1 3715   2.967   0.675   3.455
 1170HOH     H2 3716   3.096   0.613   3.503
 1171HOH      O 3717   2.772   3.815   0.758
 1171HOH     H1 3718   2.740   3.882   0.820
 1171HOH     H2 3719   2.844   3.858   0.712
 1172HOH      O 3720   0.240   0.696   0.149
 1172HOH     H1 3721   0.195   0.636   0.090
 1172HOH     H2 3722   0.333   0.687   0.127
 1173HOH      O 3723   0.944   2.994   0.374
 1173HOH     H1 3724   0.897   3.058   0.320
 1173HOH     H2 3725   1.024   3.039   0.401
 1174HOH      O 3726   1.810   2.805   3.164
 1174HOH     H1 3727   1.864   2.828   3.088
 1174HOH     H2 3728   1.800   2.710   3.159
 1175HOH      O 3729   3.280   1.394   1.966
 1175HOH     H1 3730   3.301   1.443   1.886
 1175HOH     H2 3731   3.261   1.305   1.936
 1176HOH      O 3732   2.679   3.879   1.869
 1176HOH     H1 3733   2.715   3.957   1.912
 1176HOH     H2 3734   2.750   3.815   1.871
 1177HOH      O 3735   1.582   2.219   2.058
 1177HOH     H1 3736   1.494   2.246   2.084
 1177HOH     H2 3737   1.617   2.295   2.010
 1178HOH      O 3738   1.636   3.012   0.150
 1178HOH     H1 3739   1.702   3.081   0.146
 1178HOH     H2 3740   1.664   2.956   0.222
 1179HOH      O 3741   3.273   0.991   2.392
 1179HOH     H1 3742   3.179   1.004   2.385
 1179HOH     H2 3743   3.299   1.041   2.469
 1180HOH      O 3744   1.924   3.980   0.160
 1180HOH     H1 3745   1.888   3.958   0.245
 1180HOH     H2 3746   1.997   3.919   0.149
 1181HOH      O 3747   0.481   1.542   3.478
 1181HOH     H1 3748   0.481   1.593   3.397
 1181HOH     H2 3749   0.391   1.548   3.510
 1182HOH      O 3750   1.670   3.002   3.322
 1182HOH     H1 3751   1.705   2.939   3.258
 1182HOH     H2 3752   1.681   2.959   3.406
 1183HOH      O 3753   0.917   0.166   3.428
 1183HOH     H1 3754   0.824   0.148   3.413
 1183HOH     H2 3755   0.951   0.185   3.340
 1184HOH      O 3756   0.358   0.633   1.733
 1184HOH     H1 3757   0.321   0.712   1.773
 1184HOH     H2 3758   0.435   0.613   1.786
 1185HOH      O 3759   1.073   0.353   1.550
 1185HOH     H1 3760   0.986   0.326   1.580
 1185HOH     H2 3761   1.058   0.392   1.464
 1186HOH      O 3762   3.579   3.449   3.240
 1186HOH     H1 3763   3.671   3.468   3.221
 1186HOH     H2 3764   3.544   3.414   3.158
 1187HOH      O 3765   3.803   3.045   0.921
 1187HOH     H1 3766   3.770   2.986   0.853
 1187HOH     H2 3767   3.893   3.015   0.937
 1188HOH      O 3768   0.606   3.652   0.817
 1188HOH     H1 3769   0.533   3.674   0.876
 1188HOH     H2 3770   0.678   3.708   0.847
 1189HOH      O 3771   0.657   0.624   3.467
 1189HOH     H1 3772   0.578   0.679   3.465
 1189HOH     H2 3773   0.718   0.671   3.524
 1190HOH      O 3774   3.768   2.321   3.830
 1190HOH     H1 3775   3.758   2.397   3.887
 1190HOH     H2 3776   3.705   2.335   3.759
 1191HOH      O 3777   3.969   2.350   2.604
 1191HOH     H1 3778   3.915   2.315   2.533
 1191HOH     H2 3779   3.965   2.445   2.593
 1192HOH      O 3780   2.571   1.924   1.875
 1192HOH     H1 3781   2.512   1.921   1.800
 1192HOH     H2 3782   2.652   1.884   1.843
 1193HOH      O 3783   2.555   1.427   3.793
 1193HOH     H1 3784   2.616   1.400   3.861
 1193HOH     H2 3785   2.469   1.420   3.833
 1194HOH      O 3786   3.920   2.510   1.007
 1194HOH     H1 3787   3.864   2.588   1.006
 1194HOH     H2 3788   3.914   2.476   0.918
 1195HOH      O 3789   1.821   0.312   0.130
 1195HOH     H1 3790   1.805   0.237   0.072
 1195HOH     H2 3791   1.903   0.291   0.175
 1196HOH      O 3792   2.781   1.866   3.273
 1196HOH     H1 3793   2.871   1.834   3.279
 1196HOH     H2 3794   2.740   1.839   3.355
 1197HOH      O 3795   2.556   1.036   3.772
 1197HOH     H1 3796   2.600   1.073   3.696
 1197HOH     H2 3797   2.525   0.950   3.742
 1198HOH      O 3798   2.459   2.280   2.931
 1198HOH     H1 3799   2.458   2.212   2.999
 1198HOH     H2 3800   2.485   2.233   2.851
 1199HOH      O 3801   1.101   1.254   2.192
 1199HOH     H1 3802   1.188   1.265   2.231
 1199HOH     H2 3803   1.108   1.297   2.107
 1200HOH      O 3804   0.043   3.127   3.492
 1200HOH     H1 3805   0.066   3.046   3.538
 1200HOH     H2 3806   0.127   3.164   3.465
 1201HOH      O 3807   1.125   2.328   2.855
 1201HOH     H1 3808   1.169   2.410   2.833
 1201HOH     H2 3809   1.048   2.355   2.903
 1202HOH      O 3810   0.316   1.095   0.806
 1202HOH     H1 3811   0.342   1.186   0.820
 1202HOH     H2 3812   0.340   1.077   0.715
 1203HOH      O 3813   0.662   1.618   3.673
 1203HOH     H1 3814   0.612   1.674   3.732
 1203HOH     H2 3815   0.597   1.575   3.619
 1204HOH      O 3816   3.711   3.270   0.997
 1204HOH     H1 3817   3.626   3.283   0.954
 1204HOH     H2 3818   3.740   3.184   0.967
 1205HOH      O 3819   1.140   1.454   3.777
 1205HOH     H1 3820   1.163   1.386   3.840
 1205HOH     H2 3821   1.148   1.536   3.825
 1206HOH      O 3822   0.049   3.120   1.030
 1206HOH     H1 3823   0.092   3.053   0.975
 1206HOH     H2 3824   0.004   3.176   0.967
 1207HOH      O 3825   2.688   3.004   0.180
 1207HOH     H1 3826   2.634   3.031   0.255
 1207HOH     H2 3827   2.625   2.985   0.111
 1208HOH      O 3828   3.044   1.221   3.882
 1208HOH     H1 3829   3.005   1.270   3.954
 1208HOH     H2 3830   3.132   1.258   3.873
 1209HOH      O 3831   1.237   0.653   1.966
 1209HOH     H1 3832   1.228   0.747   1.952
 1209HOH     H2 3833   1.212   0.613   1.883
 1210HOH      O 3834   0.502   1.642   1.155
 1210HOH     H1 3835   0.584   1.626   1.108
 1210HOH     H2 3836   0.499   1.737   1.167
 1211HOH      O 3837   3.499   3.841   1.557
 1211HOH     H1 3838   3.554   3.842   1.478
 1211HOH     H2 3839   3.559   3.866   1.627
 1212HOH      O 3840   1.967   1.506   2.997
 1212HOH     H1 3841   2.040   1.463   3.042
 1212HOH     H2 3842   1.896   1.507   3.061
 1213HOH      O 3843   1.460   3.949   2.746
 1213HOH     H1 3844   1.397   3.880   2.771
 1213HOH     H2 3845   1.544   3.903   2.739
 1214HOH      O 3846   1.629   1.163   3.260
 1214HOH     H1 3847   1.649   1.070   3.273
 1214HOH     H2 3848   1.607   1.170   3.168
 1215HOH      O 3849   0.154   3.456   0.053
 1215HOH     H1 3850   0.096   3.402   0.107
 1215HOH     H2 3851   0.149   3.417  -0.034
 1216HOH      O 3852   3.226   0.473   3.513
 1216HOH     H1 3853   3.282   0.498   3.587
 1216HOH     H2 3854   3.269   0.395   3.476
 1217HOH      O 3855   0.235   3.545   1.306
 1217HOH     H1 3856   0.252   3.489   1.231
 1217HOH     H2 3857   0.164   3.602   1.278
 1218HOH      O 3858   2.197   0.369   3.005
 1218HOH     H1 3859   2.147   0.293   2.976
 1218HOH     H2 3860   2.140   0.411   3.069
 1219HOH      O 3861   2.318   0.654   0.143
 1219HOH     H1 3862   2.328   0.560   0.155
 1219HOH     H2 3863   2.230   0.673   0.176
 1220HOH      O 3864   2.940   3.059   2.068
 1220HOH     H1 3865   2.940   2.978   2.118
 1220HOH     H2 3866   2.848   3.078   2.052
 1221HOH      O 3867   1.310   2.352   3.444
 1221HOH     H1 3868   1.294   2.421   3.379
 1221HOH     H2 3869   1.261   2.277   3.412
 1222HOH      O 3870   0.938   3.906   3.953
 1222HOH     H1 3871   1.016   3.918   4.007
 1222HOH     H2 3872   0.875   3.969   3.986
 1223HOH      O 3873   0.580   3.890   0.282
 1223HOH     H1 3874   0.561   3.969   0.232
 1223HOH     H2 3875   0.494   3.856   0.307
 1224HOH      O 3876   1.442   0.291   1.824
 1224HOH     H1 3877   1.404   0.378   1.813
 1224HOH     H2 3878   1.485   0.295   1.910
 1225HOH      O 3879   2.965  -0.012   0.062
 1225HOH     H1 3880   2.894   0.045   0.089
 1225HOH     H2 3881   2.987   0.017  -0.026
 1226HOH      O 3882   3.538   0.279   0.583
 1226HOH     H1 3883   3.632   0.284   0.601
 1226HOH     H2 3884   3.506   0.368   0.596
 1227HOH      O 3885   0.278   0.325   0.646
 1227HOH     H1 3886   0.327   0.406   0.631
 1227HOH     H2 3887   0.262   0.324   0.741
 1228HOH      O 3888   2.856   3.794   1.553
 1228HOH     H1 3889   2.906   3.868   1.519
 1228HOH     H2 3890   2.900   3.717   1.519
 1229HOH      O 3891   0.519   1.091   2.487
 1229HOH     H1 3892   0.480   1.177   2.497
 1229HOH     H2 3893   0.597   1.105   2.434
 1230HOH      O 3894   0.859   2.149   1.643
 1230HOH     H1 3895   0.915   2.227   1.647
 1230HOH     H2 3896   0.828   2.146   1.553
 1231HOH      O 3897   0.979   0.432   3.042
 1231HOH     H1 3898   0.918   0.422   2.970
 1231HOH     H2 3899   1.047   0.490   3.008
 1232HOH      O 3900   2.309   3.153   0.253
 1232HOH     H1 3901   2.312   3.137   0.159
 1232HOH     H2 3902   2.401   3.157   0.279
 1233HOH      O 3903   1.585   1.685   0.035
 1233HOH     H1 3904   1.535   1.748   0.086
 1233HOH     H2 3905   1.570   1.711  -0.056
 1234HOH      O 3906   1.515   0.578   1.800
 1234HOH     H1 3907   1.575   0.607   1.869
 1234HOH     H2 3908   1.433   0.624   1.817
 1235HOH      O 3909   2.416   1.618   3.090
 1235HOH     H1 3910   2.393   1.671   3.013
 1235HOH     H2 3911   2.507   1.640   3.108
 1236HOH      O 3912   2.835   1.359   0.867
 1236HOH     H1 3913   2.859   1.266   0.861
 1236HOH     H2 3914   2.776   1.374   0.794
 1237HOH      O 3915   0.102   2.294   0.187
 1237HOH     H1 3916   0.100   2.217   0.131
 1237HOH     H2 3917   0.192   2.325   0.182
 1238HOH      O 3918   3.225   3.213   1.801
 1238HOH     H1 3919   3.208   3.268   1.877
 1238HOH     H2 3920   3.247   3.274   1.731
 1239HOH      O 3921   0.432   3.754   2.606
 1239HOH     H1 3922   0.375   3.826   2.579
 1239HOH     H2 3923   0.483   3.733   2.528
 1240HOH      O 3924   2.638   3.717   3.212
 1240HOH     H1 3925   2.675   3.802   3.186
 1240HOH     H2 3926   2.622   3.726   3.306
 1241HOH      O 3927   1.680   1.731   1.154
 1241HOH     H1 3928   1.653   1.765   1.240
 1241HOH     H2 3929   1.775   1.724   1.161
 1242HOH      O 3930   0.075   3.029   0.376
 1242HOH     H1 3931   0.124   3.110   0.386
 1242HOH     H2 3932  -0.007   3.056   0.334
 1243HOH      O 3933   2.258   3.600   3.997
 1243HOH     H1 3934   2.326   3.552   4.046
 1243HOH     H2 3935   2.273   3.576   3.906
 1244HOH      O 3936   2.470   3.861   2.744
 1244HOH     H1 3937   2.416   3.930   2.707
 1244HOH     H2 3938   2.495   3.894   2.831
 1245HOH      O 3939   1.900   0.829   2.766
 1245HOH     H1 3940   1.894   0.804   2.674
 1245HOH     H2 3941   1.847   0.909   2.773
 1246HOH      O 3942   0.541   3.321   1.164
 1246HOH     H1 3943   0.615   3.356   1.214
 1246HOH     H2 3944   0.468   3.380   1.185
 1247HOH      O 3945   1.248   2.879   1.018
 1247HOH     H1 3946   1.337   2.908   1.037
 1247HOH     H2 3947   1.213   2.852   1.102
 1248HOH      O 3948   3.195   1.539   3.575
 1248HOH     H1 3949   3.156   1.608   3.629
 1248HOH     H2 3950   3.123   1.506   3.522
 1249HOH      O 3951   3.479   2.489   2.659
 1249HOH     H1 3952   3.397   2.470   2.614
 1249HOH     H2 3953   3.520   2.557   2.606
 1250HOH      O 3954   4.002   1.865   3.881
 1250HOH     H1 3955   4.021   1.936   3.942
 1250HOH     H2 3956   3.919   1.889   3.841
 1251HOH      O 3957   0.295   2.315   3.919
 1251HOH     H1 3958   0.330   2.229   3.893
 1251HOH     H2 3959   0.212   2.321   3.872
 1252HOH      O 3960   2.201   1.626   3.572
 1252HOH     H1 3961   2.192   1.679   3.492
 1252HOH     H2 3962   2.134   1.558   3.562
 1253HOH      O 3963   2.775   0.074   2.156
 1253HOH     H1 3964   2.768  -0.014   2.192
 1253HOH     H2 3965   2.685   0.104   2.146
 1254HOH      O 3966   1.009   1.915   0.778
 1254HOH     H1 3967   1.072   1.845   0.793
 1254HOH     H2 3968   1.039   1.957   0.697
 1255HOH      O 3969   3.660   1.532   3.833
 1255HOH     H1 3970   3.626   1.589   3.764
 1255HOH     H2 3971   3.630   1.573   3.915
 1256HOH      O 3972   1.514   2.580   1.356
 1256HOH     H1 3973   1.584   2.645   1.359
 1256HOH     H2 3974   1.452   2.609   1.424
 1257HOH      O 3975   2.351   3.313   2.707
 1257HOH     H1 3976   2.271   3.269   2.738
 1257HOH     H2 3977   2.331   3.406   2.716
 1258HOH      O 3978   2.126   1.917   0.525
 1258HOH     H1 3979   2.212   1.909   0.567
 1258HOH     H2 3980   2.093   2.002   0.554
 1259HOH      O 3981   0.123   0.892   1.378
 1259HOH     H1 3982   0.054   0.833   1.410
 1259HOH     H2 3983   0.101   0.906   1.286
 1260HOH      O 3984   0.115   2.391   2.353
 1260HOH     H1 3985   0.166   2.437   2.419
 1260HOH     H2 3986   0.117   2.449   2.276
 1261HOH      O 3987   3.310   2.162   1.352
 1261HOH     H1 3988   3.299   2.109   1.432
 1261HOH     H2 3989   3.370   2.111   1.298
 1262HOH      O 3990   0.295   1.241   2.658
 1262HOH     H1 3991   0.231   1.304   2.625
 1262HOH     H2 3992   0.360   1.294   2.704
 1263HOH      O 3993   2.001   2.758   3.828
 1263HOH     H1 3994   2.076   2.790   3.778
 1263HOH     H2 3995   1.930   2.753   3.764
 1264HOH      O 3996   0.623   0.392   1.664
 1264HOH     H1 3997   0.634   0.302   1.636
 1264HOH     H2 3998   0.545   0.423   1.617
 1265HOH      O 3999   0.809   3.352   0.594
 1265HOH     H1 4000   0.737   3.335   0.533
 1265HOH     H2 4001   0.854   3.428   0.556
 1266HOH      O 4002   2.321   2.670   0.754
 1266HOH     H1 4003   2.234   2.700   0.782
 1266HOH     H2 4004   2.381   2.711   0.816
 1267HOH      O 4005   2.192   1.433   3.146
 1267HOH     H1 4006   2.234   1.386   3.217
 1267HOH     H2 4007   2.257   1.497   3.117
 1268HOH      O 4008   2.521   2.945   2.969
 1268HOH     H1 4009   2.524   2.992   2.886
 1268HOH     H2 4010   2.539   2.854   2.947
 1269HOH      O 4011   0.833   3.429   2.741
 1269HOH     H1 4012   0.795   3.504   2.696
 1269HOH     H2 4013   0.762   3.397   2.798
 1270HOH      O 4014   2.403   1.529   0.961
 1270HOH     H1 4015   2.335   1.591   0.935
 1270HOH     H2 4016   2.479   1.584   0.981
 1271HOH      O 4017   2.938   1.499   1.808
 1271HOH     H1 4018   2.938   1.533   1.718
 1271HOH     H2 4019   2.979   1.413   1.801
 1272HOH      O 4020   2.473   1.872   0.220
 1272HOH     H1 4021   2.400   1.819   0.251
 1272HOH     H2 4022   2.445   1.904   0.134
 1273HOH      O 4023   2.628   1.625   0.334
 1273HOH     H1 4024   2.602   1.713   0.308
 1273HOH     H2 4025   2.557   1.594   0.391
 1274HOH      O 4026   0.059   2.350   2.918
 1274HOH     H1 4027   0.055   2.385   3.007
 1274HOH     H2 4028   0.031   2.259   2.928
 1275HOH      O 4029   1.403   1.445   1.863
 1275HOH     H1 4030   1.420   1.455   1.956
 1275HOH     H2 4031   1.480   1.483   1.820
 1276HOH      O 4032   2.236   2.186   3.327
 1276HOH     H1 4033   2.250   2.116   3.391
 1276HOH     H2 4034   2.314   2.241   3.335
 1277HOH      O 4035   3.983   3.311   0.851
 1277HOH     H1 4036   4.050   3.368   0.813
 1277HOH     H2 4037   3.902   3.362   0.845
 1278HOH      O 4038   2.722   0.601   2.522
 1278HOH     H1 4039   2.697   0.636   2.608
 1278HOH     H2 4040   2.779   0.667   2.485
 1279HOH      O 4041   3.122   1.002   0.733
 1279HOH     H1 4042   3.164   1.018   0.818
 1279HOH     H2 4043   3.157   0.917   0.706
 1280HOH      O 4044  -0.008   4.033   3.548
 1280HOH     H1 4045   0.079   4.009   3.515
 1280HOH     H2 4046  -0.024   3.971   3.619
 1281HOH      O 4047   1.031   0.518   1.351
 1281HOH     H1 4048   0.947   0.557   1.326
 1281HOH     H2 4049   1.089   0.592   1.367
 1282HOH      O 4050   0.104   2.683   0.942
 1282HOH     H1 4051   0.050   2.749   0.985
 1282HOH     H2 4052   0.093   2.605   0.995
 1283HOH      O 4053   2.851   1.723   0.163
 1283HOH     H1 4054   2.843   1.761   0.075
 1283HOH     H2 4055   2.766   1.681   0.178
 1284HOH      O 4056   1.347   1.678   1.151
 1284HOH     H1 4057   1.362   1.606   1.211
 1284HOH     H2 4058   1.253   1.673   1.130
 1285HOH      O 4059   1.460   0.852   2.763
 1285HOH     H1 4060   1.455   0.851   2.859
 1285HOH     H2 4061   1.552   0.838   2.744
 1286HOH      O 4062   3.810   1.284   0.636
 1286HOH     H1 4063   3.733   1.252   0.683
 1286HOH     H2 4064   3.802   1.380   0.640
 1287HOH      O 4065   1.348   3.282   3.937
 1287HOH     H1 4066   1.334   3.322   4.023
 1287HOH     H2 4067   1.411   3.212   3.954
 1288HOH      O 4068   2.290   3.432   3.299
 1288HOH     H1 4069   2.307   3.379   3.221
 1288HOH     H2 4070   2.225   3.382   3.349
 1289HOH      O 4071   2.290   0.140   1.883
 1289HOH     H1 4072   2.227   0.153   1.954
 1289HOH     H2 4073   2.306   0.046   1.882
 1290HOH      O 4074   3.617   3.166   0.429
 1290HOH     H1 4075   3.528   3.131   0.438
 1290HOH     H2 4076   3.674   3.091   0.445
 1291HOH      O 4077   0.320   1.711   0.694
 1291HOH     H1 4078   0.385   1.730   0.761
 1291HOH     H2 4079   0.270   1.793   0.685
 1292HOH      O 4080   2.699   1.426   1.256
 1292HOH     H1 4081   2.699   1.374   1.337
 1292HOH     H2 4082   2.702   1.361   1.186
 1293HOH      O 4083   0.089   1.059   1.768
 1293HOH     H1 4084   0.121   1.072   1.679
 1293HOH     H2 4085   0.027   1.130   1.783
 1294HOH      O 4086   1.969   1.603   2.189
 1294HOH     H1 4087   2.063   1.588   2.191
 1294HOH     H2 4088   1.935   1.551   2.262
 1295HOH      O 4089   1.246   2.528   2.242
 1295HOH     H1 4090   1.289   2.580   2.310
 1295HOH     H2 4091   1.308   2.527   2.169
 1296HOH      O 4092   3.824   0.614   3.330
 1296HOH     H1 4093   3.878   0.694   3.330
 1296HOH     H2 4094   3.737   0.645   3.307
 1297HOH      O 4095   3.533   3.238   3.523
 1297HOH     H1 4096   3.534   3.331   3.543
 1297HOH     H2 4097   3.624   3.210   3.533
 1298HOH      O 4098   3.272   1.995   1.586
 1298HOH     H1 4099   3.364   1.983   1.611
 1298HOH     H2 4100   3.235   1.907   1.586
 1299HOH      O 4101   0.310   3.754   2.287
 1299HOH     H1 4102   0.309   3.796   2.201
 1299HOH     H2 4103   0.401   3.726   2.299
 1300HOH      O 4104   2.586   1.707   1.025
 1300HOH     H1 4105   2.669   1.662   1.037
 1300HOH     H2 4106   2.569   1.750   1.109
 1301HOH      O 4107   1.775   3.428   3.182
 1301HOH     H1 4108   1.684   3.439   3.210
 1301HOH     H2 4109   1.769   3.416   3.087
 1302HOH      O 4110   2.392   3.512   0.636
 1302HOH     H1 4111   2.412   3.439   0.695
 1302HOH     H2 4112   2.477   3.551   0.616
 1303HOH      O 4113   0.248   4.000   3.448
 1303HOH     H1 4114   0.333   4.045   3.447
 1303HOH     H2 4115   0.257   3.932   3.382
 1304HOH      O 4116   1.235   3.702   3.490
 1304HOH     H1 4117   1.143   3.727   3.499
 1304HOH     H2 4118   1.240   3.656   3.406
 1305HOH      O 4119   1.280   0.058   1.840
 1305HOH     H1 4120   1.291   0.033   1.748
 1305HOH     H2 4121   1.341   0.130   1.853
 1306HOH      O 4122   0.878   0.039   0.993
 1306HOH     H1 4123   0.966   0.003   0.994
 1306HOH     H2 4124   0.888   0.129   1.024
 1307HOH      O 4125   2.481   0.105   1.389
 1307HOH     H1 4126   2.395   0.066   1.402
 1307HOH     H2 4127   2.500   0.151   1.471
 1308HOH      O 4128   2.122   1.373   1.378
 1308HOH     H1 4129   2.084   1.393   1.464
 1308HOH     H2 4130   2.047   1.357   1.321
 1309HOH      O 4131   0.539   0.642   3.799
 1309HOH     H1 4132   0.583   0.573   3.749
 1309HOH     H2 4133   0.457   0.602   3.828
 1310HOH      O 4134   0.196   1.733   0.074
 1310HOH     H1 4135   0.214   1.643   0.048
 1310HOH     H2 4136   0.237   1.786   0.007
 1311HOH      O 4137   3.181   3.516   2.474
 1311HOH     H1 4138   3.203   3.609   2.475
 1311HOH     H2 4139   3.164   3.494   2.565
 1312HOH      O 4140   3.881   1.934   1.164
 1312HOH     H1 4141   3.915   2.010   1.115
 1312HOH     H2 4142   3.830   1.885   1.099
 1313HOH      O 4143   0.664   2.794   1.469
 1313HOH     H1 4144   0.571   2.784   1.447
 1313HOH     H2 4145   0.672   2.884   1.501
 1314HOH      O 4146   0.346   3.819   0.454
 1314HOH     H1 4147   0.355   3.914   0.466
 1314HOH     H2 4148   0.279   3.810   0.386
 1315HOH      O 4149   1.728   0.048   0.538
 1315HOH     H1 4150   1.800   0.081   0.592
 1315HOH     H2 4151   1.662   0.118   0.541
 1316HOH      O 4152   0.110   2.573   2.162
 1316HOH     H1 4153   0.178   2.636   2.181
 1316HOH     H2 4154   0.029   2.614   2.193
 1317HOH      O 4155   0.169   0.509   3.532
 1317HOH     H1 4156   0.144   0.583   3.587
 1317HOH     H2 4157   0.162   0.433   3.589
 1318HOH      O 4158   0.537   0.072   2.467
 1318HOH     H1 4159   0.546   0.154   2.516
 1318HOH     H2 4160   0.470   0.023   2.516
 1319HOH      O 4161   2.210   2.733   1.138
 1319HOH     H1 4162   2.177   2.803   1.082
 1319HOH     H2 4163   2.190   2.652   1.091
 1320HOH      O 4164   1.779   3.082   0.908
 1320HOH     H1 4165   1.806   3.080   1.000
 1320HOH     H2 4166   1.796   3.172   0.880
 1321HOH      O 4167   1.981   2.964   0.071
 1321HOH     H1 4168   1.950   3.054   0.074
 1321HOH     H2 4169   1.910   2.915   0.029
 1322HOH      O 4170   3.185   2.455   1.173
 1322HOH     H1 4171   3.139   2.374   1.196
 1322HOH     H2 4172   3.262   2.455   1.230
 1323HOH      O 4173   1.060   2.903   3.612
 1323HOH     H1 4174   1.071   2.845   3.536
 1323HOH     H2 4175   1.032   2.846   3.682
 1324HOH      O 4176   2.519   0.311   3.994
 1324HOH     H1 4177   2.587   0.268   3.942
 1324HOH     H2 4178   2.547   0.403   3.998
 1325HOH      O 4179   1.653   0.735   1.476
 1325HOH     H1 4180   1.576   0.695   1.435
 1325HOH     H2 4181   1.680   0.802   1.414
 1326HOH      O 4182   1.877   1.128   0.659
 1326HOH     H1 4183   1.879   1.075   0.580
 1326HOH     H2 4184   1.872   1.218   0.628
 1327HOH      O 4185   3.234   3.278   0.380
 1327HOH     H1 4186   3.213   3.276   0.287
 1327HOH     H2 4187   3.155   3.243   0.422
 1328HOH      O 4188   3.360   0.721   3.352
 1328HOH     H1 4189   3.392   0.696   3.439
 1328HOH     H2 4190   3.317   0.805   3.365
 1329HOH      O 4191   3.173   1.791   1.028
 1329HOH     H1 4192   3.108   1.798   0.957
 1329HOH     H2 4193   3.237   1.859   1.008
 1330HOH      O 4194   2.330   4.050   0.967
 1330HOH     H1 4195   2.334   3.994   0.889
 1330HOH     H2 4196   2.341   3.989   1.041
 1331HOH      O 4197   2.845   0.810   1.644
 1331HOH     H1 4198   2.855   0.715   1.644
 1331HOH     H2 4199   2.755   0.825   1.616
 1332HOH      O 4200   3.962   0.175   3.776
 1332HOH     H1 4201   4.049   0.187   3.739
 1332HOH     H2 4202   3.948   0.080   3.774
 1333HOH      O 4203   0.578   1.136   4.010
 1333HOH     H1 4204   0.486   1.128   4.036
 1333HOH     H2 4205   0.575   1.176   3.923
 1334HOH      O 4206   1.437   0.497   2.254
 1334HOH     H1 4207   1.446   0.541   2.338
 1334HOH     H2 4208   1.345   0.508   2.230
 1335HOH      O 4209   0.234   2.035   1.041
 1335HOH     H1 4210   0.150   2.080   1.042
 1335HOH     H2 4211   0.215   1.947   1.073
 1336HOH      O 4212   0.330   0.858   2.571
 1336HOH     H1 4213   0.425   0.860   2.563
 1336HOH     H2 4214   0.309   0.931   2.628
 1337HOH      O 4215   3.665   1.327   3.655
 1337HOH     H1 4216   3.672   1.396   3.721
 1337HOH     H2 4217   3.571   1.314   3.644
 1338HOH      O 4218   0.148   1.979   1.715
 1338HOH     H1 4219   0.171   1.917   1.784
 1338HOH     H2 4220   0.181   2.063   1.746
 1339HOH      O 4221   2.603   3.183   1.774
 1339HOH     H1 4222   2.582   3.150   1.861
 1339HOH     H2 4223   2.566   3.272   1.772
 1340HOH      O 4224   1.944   2.247   0.786
 1340HOH     H1 4225   1.860   2.220   0.822
 1340HOH     H2 4226   1.967   2.325   0.836
 1341HOH      O 4227   3.309   0.977   0.977
 1341HOH     H1 4228   3.322   0.981   1.072
 1341HOH     H2 4229   3.397   0.961   0.942
 1342HOH      O 4230   0.066   3.762   2.932
 1342HOH     H1 4231   0.052   3.667   2.936
 1342HOH     H2 4232   0.009   3.790   2.860
 1343HOH      O 4233   0.390   2.039   0.256
 1343HOH     H1 4234   0.336   1.972   0.297
 1343HOH     H2 4235   0.370   2.032   0.162
 1344HOH      O 4236   2.384   0.220   1.133
 1344HOH     H1 4237   2.334   0.165   1.072
 1344HOH     H2 4238   2.413   0.159   1.201
 1345HOH      O 4239   1.831   1.229   2.928
 1345HOH     H1 4240   1.853   1.140   2.900
 1345HOH     H2 4241   1.739   1.224   2.953
 1346HOH      O 4242   2.567   2.653   1.977
 1346HOH     H1 4243   2.593   2.587   1.912
 1346HOH     H2 4244   2.610   2.733   1.947
 1347HOH      O 4245   0.461   2.944   1.870
 1347HOH     H1 4246   0.458   2.976   1.960
 1347HOH     H2 4247   0.553   2.953   1.844
 1348HOH      O 4248   1.217   3.158   3.458
 1348HOH     H1 4249   1.165   3.086   3.422
 1348HOH     H2 4250   1.244   3.208   3.382
 1349HOH      O 4251   4.029   0.602   2.626
 1349HOH     H1 4252   3.966   0.550   2.577
 1349HOH     H2 4253   4.113   0.559   2.609
 1350HOH      O 4254   2.395   2.042   3.081
 1350HOH     H1 4255   2.377   2.052   3.174
 1350HOH     H2 4256   2.348   1.962   3.056
 1351HOH      O 4257   3.001   0.252   2.049
 1351HOH     H1 4258   2.931   0.188   2.061
 1351HOH     H2 4259   2.998   0.307   2.128
 1352HOH      O 4260   3.470   0.927   1.246
 1352HOH     H1 4261   3.477   0.917   1.341
 1352HOH     H2 4262   3.544   0.982   1.223
 1353HOH      O 4263   0.608   0.417   3.660
 1353HOH     H1 4264   0.569   0.336   3.627
 1353HOH     H2 4265   0.629   0.467   3.581
 1354HOH      O 4266   0.730   3.090   3.778
 1354HOH     H1 4267   0.787   3.082   3.701
 1354HOH     H2 4268   0.775   3.155   3.833
 1355HOH      O 4269   0.697   3.950   2.567
 1355HOH     H1 4270   0.645   4.018   2.524
 1355HOH     H2 4271   0.760   3.998   2.621
 1356HOH      O 4272   3.488   0.917   1.501
 1356HOH     H1 4273   3.446   0.997   1.532
 1356HOH     H2 4274   3.444   0.846   1.549
 1357HOH      O 4275   3.419   2.194   0.094
 1357HOH     H1 4276   3.391   2.279   0.129
 1357HOH     H2 4277   3.500   2.174   0.140
 1358HOH      O 4278   1.193   0.483   3.723
 1358HOH     H1 4279   1.112   0.514   3.765
 1358HOH     H2 4280   1.162   0.432   3.648
 1359HOH      O 4281   3.509   2.051   3.850
 1359HOH     H1 4282   3.524   2.001   3.931
 1359HOH     H2 4283   3.448   2.120   3.876
 1360HOH      O 4284   3.388   2.481   3.563
 1360HOH     H1 4285   3.374   2.491   3.469
 1360HOH     H2 4286   3.477   2.447   3.571
 1361HOH      O 4287   3.060   1.198   0.501
 1361HOH     H1 4288   3.096   1.134   0.562
 1361HOH     H2 4289   2.971   1.169   0.485
 1362HOH      O 4290   2.707   1.403   0.635
 1362HOH     H1 4291   2.730   1.475   0.577
 1362HOH     H2 4292   2.612   1.409   0.645
 1363HOH      O 4293   3.055   1.789   3.613
 1363HOH     H1 4294   2.995   1.732   3.662
 1363HOH     H2 4295   3.006   1.869   3.598
 1364HOH      O 4296   3.202   1.814   3.387
 1364HOH     H1 4297   3.298   1.811   3.394
 1364HOH     H2 4298   3.172   1.783   3.473
 1365HOH      O 4299   3.314   2.229   1.720
 1365HOH     H1 4300   3.287   2.156   1.663
 1365HOH     H2 4301   3.362   2.186   1.791
 1366HOH      O 4302   3.966   0.856   1.893
 1366HOH     H1 4303   4.034   0.905   1.847
 1366HOH     H2 4304   3.884   0.892   1.861
 1367HOH      O 4305   2.961   0.955   2.422
 1367HOH     H1 4306   2.935   1.026   2.364
 1367HOH     H2 4307   2.982   0.998   2.505
 1368HOH      O 4308   1.403   0.628   0.078
 1368HOH     H1 4309   1.434   0.551   0.126
 1368HOH     H2 4310   1.479   0.687   0.077
 1369HOH      O 4311   1.931   1.889   2.822
 1369HOH     H1 4312   1.983   1.968   2.836
 1369HOH     H2 4313   1.851   1.903   2.872
 1370HOH      O 4314   2.008   2.426   2.906
 1370HOH     H1 4315   2.025   2.377   2.987
 1370HOH     H2 4316   1.963   2.364   2.850
 1371HOH      O 4317   1.771   2.093   3.686
 1371HOH     H1 4318   1.820   2.173   3.664
 1371HOH     H2 4319   1.768   2.093   3.782
 1372HOH      O 4320   0.460   2.662   3.658
 1372HOH     H1 4321   0.521   2.591   3.678
 1372HOH     H2 4322   0.476   2.728   3.726
 1373HOH      O 4323   3.170   3.207   2.116
 1373HOH     H1 4324   3.084   3.165   2.124
 1373HOH     H2 4325   3.152   3.300   2.123
 1374HOH      O 4326   2.824   3.795   0.309
 1374HOH     H1 4327   2.737   3.766   0.336
 1374HOH     H2 4328   2.851   3.732   0.242
 1375HOH      O 4329   3.003   2.204   3.082
 1375HOH     H1 4330   3.068   2.140   3.112
 1375HOH     H2 4331   3.016   2.209   2.987
 1376HOH      O 4332   0.192   3.018   2.105
 1376HOH     H1 4333   0.239   3.102   2.096
 1376HOH     H2 4334   0.238   2.973   2.176
 1377HOH      O 4335   0.252   0.240   2.145
 1377HOH     H1 4336   0.240   0.152   2.108
 1377HOH     H2 4337   0.337   0.269   2.111
 1378HOH      O 4338   0.851   2.518   2.631
 1378HOH     H1 4339   0.785   2.457   2.597
 1378HOH     H2 4340   0.816   2.605   2.612
 1379HOH      O 4341   2.906   1.177   1.207
 1379HOH     H1 4342   2.893   1.085   1.229
 1379HOH     H2 4343   2.830   1.200   1.153
 1380HOH      O 4344   3.454   0.651   0.535
 1380HOH     H1 4345   3.499   0.589   0.477
 1380HOH     H2 4346   3.377   0.679   0.486
 1381HOH      O 4347   3.327   0.309   1.751
 1381HOH     H1 4348   3.301   0.220   1.775
 1381HOH     H2 4349   3.422   0.306   1.747
 1382HOH      O 4350   2.779   3.402   0.370
 1382HOH     H1 4351   2.842   3.336   0.398
 1382HOH     H2 4352   2.831   3.468   0.324
 1383HOH      O 4353   2.064   2.570   0.557
 1383HOH     H1 4354   1.995   2.503   0.559
 1383HOH     H2 4355   2.140   2.527   0.596
 1384HOH      O 4356   2.104   0.429   0.497
 1384HOH     H1 4357   2.068   0.340   0.502
 1384HOH     H2 4358   2.030   0.486   0.518
 1385HOH      O 4359   1.471   2.854   1.460
 1385HOH     H1 4360   1.565   2.847   1.442
 1385HOH     H2 4361   1.441   2.928   1.407
 1386HOH      O 4362   0.669   3.757   3.260
 1386HOH     H1 4363   0.630   3.776   3.346
 1386HOH     H2 4364   0.759   3.788   3.267
 1387HOH      O 4365   1.585   3.719   3.917
 1387HOH     H1 4366   1.671   3.689   3.944
 1387HOH     H2 4367   1.552   3.650   3.860
 1388HOH      O 4368   2.554   1.032   1.672
 1388HOH     H1 4369   2.590   1.002   1.588
 1388HOH     H2 4370   2.600   1.115   1.689
 1389HOH      O 4371   3.342   2.105   3.440
 1389HOH     H1 4372   3.295   2.050   3.377
 1389HOH     H2 4373   3.312   2.194   3.422
 1390HOH      O 4374   3.664   3.874   1.345
 1390HOH     H1 4375   3.620   3.913   1.270
 1390HOH     H2 4376   3.743   3.928   1.358
 1391HOH      O 4377   0.939   3.076   2.588
 1391HOH     H1 4378   0.930   2.983   2.609
 1391HOH     H2 4379   1.011   3.106   2.644
 1392HOH      O 4380   1.996   1.029   1.896
 1392HOH     H1 4381   1.950   1.082   1.961
 1392HOH     H2 4382   1.994   0.940   1.931
 1393HOH      O 4383   1.191   2.136   3.662
 1393HOH     H1 4384   1.266   2.163   3.609
 1393HOH     H2 4385   1.169   2.212   3.714
 1394HOH      O 4386   0.490   3.510   1.744
 1394HOH     H1 4387   0.424   3.492   1.811
 1394HOH     H2 4388   0.439   3.521   1.664
 1395HOH      O 4389   0.558   0.971   1.154
 1395HOH     H1 4390   0.558   0.963   1.058
 1395HOH     H2 4391   0.470   0.942   1.180
 1396HOH      O 4392   2.709   2.357   0.550
 1396HOH     H1 4393   2.657   2.422   0.597
 1396HOH     H2 4394   2.679   2.363   0.459
 1397HOH      O 4395   2.558   3.813   1.486
 1397HOH     H1 4396   2.550   3.878   1.555
 1397HOH     H2 4397   2.625   3.752   1.516
 1398HOH      O 4398   0.136   0.562   3.195
 1398HOH     H1 4399   0.209   0.616   3.224
 1398HOH     H2 4400   0.117   0.506   3.269
 1399HOH      O 4401   1.197   1.692   1.806
 1399HOH     H1 4402   1.277   1.646   1.832
 1399HOH     H2 4403   1.157   1.635   1.741
 1400HOH      O 4404   0.012   3.499   1.483
 1400HOH     H1 4405  -0.039   3.418   1.473
 1400HOH     H2 4406   0.038   3.522   1.394
 1401HOH      O 4407   2.291   0.744   0.561
 1401HOH     H1 4408   2.357   0.803   0.526
 1401HOH     H2 4409   2.212   0.763   0.509
 1402HOH      O 4410   3.608   2.635   1.604
 1402HOH     H1 4411   3.660   2.581   1.545
 1402HOH     H2 4412   3.521   2.595   1.603
 1403HOH      O 4413   1.553   2.657   0.624
 1403HOH     H1 4414   1.461   2.658   0.599
 1403HOH     H2 4415   1.596   2.603   0.558
 1404HOH      O 4416   1.855   2.040   0.171
 1404HOH     H1 4417   1.797   2.026   0.246
 1404HOH     H2 4418   1.891   2.127   0.185
 1405HOH      O 4419   0.439   2.631   3.966
 1405HOH     H1 4420   0.358   2.666   3.928
 1405HOH     H2 4421   0.434   2.537   3.951
 1406HOH      O 4422   1.495   1.811   0.583
 1406HOH     H1 4423   1.559   1.783   0.517
 1406HOH     H2 4424   1.492   1.738   0.645
 1407HOH      O 4425   2.023   0.351   1.036
 1407HOH     H1 4426   2.047   0.284   1.100
 1407HOH     H2 4427   2.064   0.322   0.954
 1408HOH      O 4428   2.093   2.741   0.862
 1408HOH     H1 4429   1.999   2.730   0.874
 1408HOH     H2 4430   2.104   2.835   0.851
 1409HOH      O 4431   2.096   0.164   2.658
 1409HOH     H1 4432   2.072   0.163   2.750
 1409HOH     H2 4433   2.013   0.162   2.611
 1410HOH      O 4434   1.160   2.791   1.251
 1410HOH     H1 4435   1.190   2.781   1.341
 1410HOH     H2 4436   1.065   2.776   1.255
 1411HOH      O 4437   0.180   0.202   3.372
 1411HOH     H1 4438   0.103   0.256   3.353
 1411HOH     H2 4439   0.151   0.112   3.356
 1412HOH      O 4440   3.695   1.952   3.023
 1412HOH     H1 4441   3.658   1.974   2.938
 1412HOH     H2 4442   3.636   1.991   3.087
 1413HOH      O 4443   0.914   1.760   0.323
 1413HOH     H1 4444   0.857   1.715   0.260
 1413HOH     H2 4445   0.854   1.788   0.393
 1414HOH      O 4446   0.532   0.818   1.472
 1414HOH     H1 4447   0.579   0.902   1.480
 1414HOH     H2 4448   0.599   0.752   1.488
 1415HOH      O 4449   0.735   1.016   1.427
 1415HOH     H1 4450   0.705   1.103   1.452
 1415HOH     H2 4451   0.692   0.999   1.343
 1416HOH      O 4452   3.764   3.444   3.788
 1416HOH     H1 4453   3.844   3.392   3.784
 1416HOH     H2 4454   3.727   3.438   3.700
 1417HOH      O 4455   2.192   0.623   2.829
 1417HOH     H1 4456   2.258   0.564   2.866
 1417HOH     H2 4457   2.237   0.665   2.755
 1418HOH      O 4458   3.749   2.620   0.667
 1418HOH     H1 4459   3.816   2.553   0.685
 1418HOH     H2 4460   3.666   2.572   0.672
 1419HOH      O 4461   2.935   1.854   0.395
 1419HOH     H1 4462   2.987   1.929   0.368
 1419HOH     H2 4463   2.907   1.813   0.313
 1420HOH      O 4464   3.046   1.713   2.769
 1420HOH     H1 4465   3.046   1.785   2.705
 1420HOH     H2 4466   3.076   1.753   2.850
 1421HOH      O 4467   2.885   1.466   3.191
 1421HOH     H1 4468   2.976   1.494   3.180
 1421HOH     H2 4469   2.890   1.370   3.192
 1422HOH      O 4470   3.636   2.234   1.505
 1422HOH     H1 4471   3.646   2.139   1.490
 1422HOH     H2 4472   3.624   2.242   1.599
 1423HOH      O 4473   1.235   3.705   1.374
 1423HOH     H1 4474   1.220   3.756   1.453
 1423HOH     H2 4475   1.291   3.761   1.320
 1424HOH      O 4476   3.181   3.310   0.101
 1424HOH     H1 4477   3.162   3.217   0.086
 1424HOH     H2 4478   3.110   3.357   0.058
 1425HOH      O 4479   3.099   0.825   1.519
 1425HOH     H1 4480   3.160   0.757   1.547
 1425HOH     H2 4481   3.020   0.810   1.572
 1426HOH      O 4482   1.671   0.857   0.445
 1426HOH     H1 4483   1.629   0.789   0.392
 1426HOH     H2 4484   1.706   0.919   0.381
 1427HOH      O 4485   2.186   1.121   1.743
 1427HOH     H1 4486   2.171   1.212   1.766
 1427HOH     H2 4487   2.115   1.073   1.786
 1428HOH      O 4488   1.399   0.748   0.905
 1428HOH     H1 4489   1.383   0.748   0.811
 1428HOH     H2 4490   1.494   0.739   0.913
 1429HOH      O 4491   0.465   0.338   1.077
 1429HOH     H1 4492   0.487   0.267   1.137
 1429HOH     H2 4493   0.447   0.413   1.133
 1430HOH      O 4494   1.008   3.283   0.743
 1430HOH     H1 4495   1.027   3.324   0.827
 1430HOH     H2 4496   0.921   3.314   0.719
 1431HOH      O 4497   1.041   3.644   0.227
 1431HOH     H1 4498   1.022   3.715   0.288
 1431HOH     H2 4499   1.019   3.564   0.276
 1432HOH      O 4500   2.411   0.752   1.071
 1432HOH     H1 4501   2.444   0.675   1.118
 1432HOH     H2 4502   2.450   0.746   0.984
 1433HOH      O 4503   2.096   0.197   1.680
 1433HOH     H1 4504   2.154   0.142   1.733
 1433HOH     H2 4505   2.020   0.142   1.662
 1434HOH      O 4506   0.730   1.482   1.634
 1434HOH     H1 4507   0.689   1.471   1.720
 1434HOH     H2 4508   0.701   1.568   1.604
 1435HOH      O 4509   1.022   1.903   3.524
 1435HOH     H1 4510   0.957   1.895   3.594
 1435HOH     H2 4511   1.075   1.824   3.531
 1436HOH      O 4512   1.941   2.805   1.481
 1436HOH     H1 4513   2.017   2.750   1.464
 1436HOH     H2 4514   1.977   2.894   1.484
 1437HOH      O 4515   1.633   0.457   1.278
 1437HOH     H1 4516   1.595   0.454   1.190
 1437HOH     H2 4517   1.612   0.545   1.309
 1438HOH      O 4518   3.863   3.882   2.151
 1438HOH     H1 4519   3.908   3.800   2.169
 1438HOH     H2 4520   3.921   3.950   2.184
 1439HOH      O 4521   2.861   3.111   4.026
 1439HOH     H1 4522   2.816   3.121   3.941
 1439HOH     H2 4523   2.793   3.076   4.084
 1440HOH      O 4524   2.352   0.892   2.232
 1440HOH     H1 4525   2.299   0.894   2.311
 1440HOH     H2 4526   2.302   0.838   2.170
 1441HOH      O 4527   0.550   3.099   3.143
 1441HOH     H1 4528   0.553   3.164   3.073
 1441HOH     H2 4529   0.520   3.019   3.101
 1442HOH      O 4530   3.246   3.782   2.482
 1442HOH     H1 4531   3.226   3.825   2.565
 1442HOH     H2 4532   3.185   3.820   2.419
 1443HOH      O 4533   1.111   1.898   1.106
 1443HOH     H1 4534   1.031   1.944   1.080
 1443HOH     H2 4535   1.182   1.947   1.065
 1444HOH      O 4536   2.983   1.239   1.723
 1444HOH     H1 4537   3.000   1.216   1.631
 1444HOH     H2 4538   2.989   1.156   1.770
 1445HOH      O 4539   1.876   0.267   3.845
 1445HOH     H1 4540   1.854   0.203   3.913
 1445HOH     H2 4541   1.845   0.228   3.764
 1446HOH      O 4542   2.291   2.254   0.510
 1446HOH     H1 4543   2.328   2.341   0.526
 1446HOH     H2 4544   2.365   2.203   0.475
 1447HOH      O 4545   2.315   0.275   2.470
 1447HOH     H1 4546   2.399   0.320   2.463
 1447HOH     H2 4547   2.293   0.280   2.563
 1448HOH      O 4548   0.290   1.142   3.989
 1448HOH     H1 4549   0.237   1.176   3.917
 1448HOH     H2 4550   0.253   1.181   4.068
 1449HOH      O 4551   0.403   3.049   0.537
 1449HOH     H1 4552   0.342   3.031   0.466
 1449HOH     H2 4553   0.399   3.144   0.548
 1450HOH      O 4554   0.239   2.907   2.589
 1450HOH     H1 4555   0.197   2.965   2.653
 1450HOH     H2 4556   0.204   2.934   2.505
 1451HOH      O 4557   1.858   1.162   2.351
 1451HOH     H1 4558   1.795   1.103   2.393
 1451HOH     H2 4559   1.861   1.239   2.408
 1452HOH      O 4560   3.643   1.158   1.218
 1452HOH     H1 4561   3.558   1.193   1.191
 1452HOH     H2 4562   3.704   1.192   1.153
 1453HOH      O 4563   1.824   1.753   3.235
 1453HOH     H1 4564   1.793   1.710   3.314
 1453HOH     H2 4565   1.788   1.842   3.240
 1454HOH      O 4566   2.359   3.582   2.806
 1454HOH     H1 4567   2.402   3.651   2.756
 1454HOH     H2 4568   2.352   3.618   2.895
 1455HOH      O 4569   2.744   1.321   3.966
 1455HOH     H1 4570   2.799   1.271   3.907
 1455HOH     H2 4571   2.742   1.270   4.047
 1456HOH      O 4572   0.346   0.060   0.730
 1456HOH     H1 4573   0.308   0.139   0.691
 1456HOH     H2 4574   0.288  -0.011   0.703
 1457HOH      O 4575   0.125   0.849   2.404
 1457HOH     H1 4576   0.062   0.790   2.446
 1457HOH     H2 4577   0.202   0.845   2.459
 1458HOH      O 4578   3.472   2.555   3.278
 1458HOH     H1 4579   3.527   2.632   3.262
 1458HOH     H2 4580   3.533   2.481   3.274
 1459HOH      O 4581   3.807   2.805   2.062
 1459HOH     H1 4582   3.760   2.882   2.095
 1459HOH     H2 4583   3.838   2.831   1.975
 1460HOH      O 4584   0.652   3.459   3.251
 1460HOH     H1 4585   0.562   3.435   3.273
 1460HOH     H2 4586   0.650   3.554   3.241
 1461HOH      O 4587   0.614   1.830   2.584
 1461HOH     H1 4588   0.601   1.888   2.509
 1461HOH     H2 4589   0.653   1.751   2.546
 1462HOH      O 4590   1.047   1.190   1.733
 1462HOH     H1 4591   1.031   1.281   1.708
 1462HOH     H2 4592   1.142   1.184   1.742
 1463HOH      O 4593   0.761   3.598   0.405
 1463HOH     H1 4594   0.823   3.670   0.416
 1463HOH     H2 4595   0.683   3.624   0.455
 1464HOH      O 4596   3.782   2.494   1.438
 1464HOH     H1 4597   3.766   2.404   1.467
 1464HOH     H2 4598   3.724   2.506   1.363
 1465HOH      O 4599   1.048   1.076   3.249
 1465HOH     H1 4600   0.998   1.149   3.212
 1465HOH     H2 4601   1.123   1.066   3.190
 1466HOH      O 4602   3.435   0.022   2.707
 1466HOH     H1 4603   3.472   0.025   2.795
 1466HOH     H2 4604   3.380   0.100   2.701
 1467HOH      O 4605   1.069   0.866   0.562
 1467HOH     H1 4606   1.057   0.937   0.499
 1467HOH     H2 4607   1.146   0.892   0.613
 1468HOH      O 4608   0.566   0.666   2.575
 1468HOH     H1 4609   0.638   0.685   2.635
 1468HOH     H2 4610   0.503   0.617   2.628
 1469HOH      O 4611   3.071   0.137   1.805
 1469HOH     H1 4612   3.066   0.230   1.780
 1469HOH     H2 4613   3.065   0.138   1.901
 1470HOH      O 4614   3.488   3.052   3.823
 1470HOH     H1 4615   3.504   3.146   3.834
 1470HOH     H2 4616   3.530   3.031   3.739
 1471HOH      O 4617   1.708   2.761   1.372
 1471HOH     H1 4618   1.794   2.767   1.414
 1471HOH     H2 4619   1.722   2.799   1.285
 1472HOH      O 4620   2.574   3.757   0.416
 1472HOH     H1 4621   2.590   3.695   0.487
 1472HOH     H2 4622   2.563   3.841   0.459
 1473HOH      O 4623   3.301   3.741   2.784
 1473HOH     H1 4624   3.212   3.761   2.756
 1473HOH     H2 4625   3.343   3.705   2.706
 1474HOH      O 4626   1.923   0.618   0.557
 1474HOH     H1 4627   1.962   0.617   0.644
 1474HOH     H2 4628   1.842   0.668   0.566
 1475HOH      O 4629   3.027   2.457   3.882
 1475HOH     H1 4630   3.094   2.436   3.817
 1475HOH     H2 4631   3.057   2.539   3.922
 1476HOH      O 4632   3.513   2.770   0.507
 1476HOH     H1 4633   3.497   2.677   0.527
 1476HOH     H2 4634   3.428   2.803   0.478
 1477HOH      O 4635   3.225   3.433   3.217
 1477HOH     H1 4636   3.224   3.482   3.135
 1477HOH     H2 4637   3.245   3.343   3.191
 1478HOH      O 4638   2.288   3.774   0.358
 1478HOH     H1 4639   2.384   3.775   0.359
 1478HOH     H2 4640   2.265   3.700   0.302
 1479HOH      O 4641   3.233   2.638   3.111
 1479HOH     H1 4642   3.228   2.547   3.083
 1479HOH     H2 4643   3.325   2.651   3.135
 1480HOH      O 4644   3.044   2.608   3.485
 1480HOH     H1 4645   3.006   2.696   3.479
 1480HOH     H2 4646   2.978   2.551   3.446
 1481HOH      O 4647   0.283   2.094   3.774
 1481HOH     H1 4648   0.245   2.173   3.736
 1481HOH     H2 4649   0.222   2.024   3.751
 1482HOH      O 4650   3.495   0.666   1.161
 1482HOH     H1 4651   3.485   0.760   1.149
 1482HOH     H2 4652   3.539   0.636   1.082
 1483HOH      O 4653   2.051   1.058   3.434
 1483HOH     H1 4654   1.989   1.125   3.408
 1483HOH     H2 4655   2.095   1.033   3.352
 1484HOH      O 4656   3.679   0.898   0.381
 1484HOH     H1 4657   3.610   0.948   0.424
 1484HOH     H2 4658   3.735   0.868   0.453
 1485HOH      O 4659   2.060   3.018   0.772
 1485HOH     H1 4660   2.127   3.087   0.768
 1485HOH     H2 4661   1.999   3.041   0.703
 1486HOH      O 4662   2.867   1.167   2.257
 1486HOH     H1 4663   2.918   1.246   2.279
 1486HOH     H2 4664   2.776   1.193   2.270
 1487HOH      O 4665   3.721   1.966   2.436
 1487HOH     H1 4666   3.767   2.049   2.429
 1487HOH     H2 4667   3.702   1.942   2.346
 1488HOH      O 4668   3.591   2.123   3.565
 1488HOH     H1 4669   3.577   2.127   3.659
 1488HOH     H2 4670   3.504   2.107   3.528
 1489HOH      O 4671   0.579   2.467   0.383
 1489HOH     H1 4672   0.670   2.496   0.389
 1489HOH     H2 4673   0.527   2.546   0.399
 1490HOH      O 4674   0.039   3.221   1.797
 1490HOH     H1 4675   0.027   3.146   1.855
 1490HOH     H2 4676  -0.043   3.270   1.804
 1491HOH      O 4677   1.124   2.068   2.743
 1491HOH     H1 4678   1.124   2.157   2.781
 1491HOH     H2 4679   1.153   2.081   2.653
 1492HOH      O 4680   2.443   3.152   1.491
 1492HOH     H1 4681   2.459   3.109   1.575
 1492HOH     H2 4682   2.402   3.235   1.514
 1493HOH      O 4683   2.688   2.181   1.621
 1493HOH     H1 4684   2.634   2.233   1.681
 1493HOH     H2 4685   2.634   2.171   1.543
 1494HOH      O 4686   2.401   1.634   2.743
 1494HOH     H1 4687   2.437   1.554   2.783
 1494HOH     H2 4688   2.470   1.699   2.754
 1495HOH      O 4689   0.431   0.838   3.466
 1495HOH     H1 4690   0.389   0.877   3.543
 1495HOH     H2 4691   0.473   0.912   3.422
 1496HOH      O 4692   1.898   1.088   1.595
 1496HOH     H1 4693   1.841   1.154   1.634
 1496HOH     H2 4694   1.907   1.021   1.663
 1497HOH      O 4695   2.102   3.569   0.295
 1497HOH     H1 4696   2.193   3.546   0.312
 1497HOH     H2 4697   2.055   3.486   0.298
 1498HOH      O 4698   0.641   3.127   0.328
 1498HOH     H1 4699   0.621   3.137   0.235
 1498HOH     H2 4700   0.558   3.097   0.366
 1499HOH      O 4701   2.527   0.832   2.445
 1499HOH     H1 4702   2.557   0.761   2.389
 1499HOH     H2 4703   2.569   0.910   2.410
 1500HOH      O 4704   1.625   0.754   0.087
 1500HOH     H1 4705   1.674   0.830   0.120
 1500HOH     H2 4706   1.674   0.679   0.121
 1501HOH      O 4707   1.500   3.440   3.289
 1501HOH     H1 4708   1.418   3.490   3.294
 1501HOH     H2 4709   1.472   3.349   3.282
 1502HOH      O 4710   2.062   2.547   2.034
 1502HOH     H1 4711   1.991   2.507   1.983
 1502HOH     H2 4712   2.017   2.596   2.103
 1503HOH      O 4713   0.909   3.823   2.742
 1503HOH     H1 4714   0.841   3.817   2.675
 1503HOH     H2 4715   0.860   3.834   2.824
 1504HOH      O 4716   0.714   0.324   1.280
 1504HOH     H1 4717   0.714   0.419   1.282
 1504HOH     H2 4718   0.778   0.301   1.212
 1505HOH      O 4719   2.795   3.845   1.161
 1505HOH     H1 4720   2.700   3.845   1.154
 1505HOH     H2 4721   2.813   3.878   1.248
 1506HOH      O 4722   3.692   3.796   0.088
 1506HOH     H1 4723   3.614   3.783   0.141
 1506HOH     H2 4724   3.686   3.728   0.020
 1507HOH      O 4725   2.251   0.672   2.088
 1507HOH     H1 4726   2.221   0.589   2.125
 1507HOH     H2 4727   2.178   0.700   2.033
 1508HOH      O 4728   3.648   3.412   0.526
 1508HOH     H1 4729   3.590   3.429   0.452
 1508HOH     H2 4730   3.654   3.316   0.529
 1509HOH      O 4731   3.140   1.813   0.576
 1509HOH     H1 4732   3.195   1.891   0.576
 1509HOH     H2 4733   3.060   1.839   0.530
 1510HOH      O 4734   0.834   0.227   1.524
 1510HOH     H1 4735   0.790   0.267   1.449
 1510HOH     H2 4736   0.833   0.133   1.504
 1511HOH      O 4737   1.001   3.420   3.468
 1511HOH     H1 4738   1.063   3.384   3.531
 1511HOH     H2 4739   0.915   3.404   3.507
 1512HOH      O 4740   1.564   1.161   3.010
 1512HOH     H1 4741   1.577   1.066   3.006
 1512HOH     H2 4742   1.471   1.173   2.993
 1513HOH      O 4743   3.352   1.999   0.499
 1513HOH     H1 4744   3.397   2.038   0.425
 1513HOH     H2 4745   3.289   2.066   0.527
 1514HOH      O 4746   1.857   3.090   3.076
 1514HOH     H1 4747   1.883   3.005   3.042
 1514HOH     H2 4748   1.907   3.100   3.157
 1515HOH      O 4749   2.542   2.991   0.886
 1515HOH     H1 4750   2.469   3.014   0.943
 1515HOH     H2 4751   2.592   2.927   0.936
 1516HOH      O 4752   0.095   1.955   2.256
 1516HOH     H1 4753   0.044   1.875   2.268
 1516HOH     H2 4754   0.049   2.002   2.186
 1517HOH      O 4755   0.291   0.877   1.862
 1517HOH     H1 4756   0.330   0.961   1.839
 1517HOH     H2 4757   0.198   0.898   1.877
 1518HOH      O 4758   1.182   1.971   3.083
 1518HOH     H1 4759   1.179   1.985   2.989
 1518HOH     H2 4760   1.142   1.885   3.096
 1519HOH      O 4761   1.188   1.489   2.964
 1519HOH     H1 4762   1.238   1.550   3.017
 1519HOH     H2 4763   1.151   1.542   2.893
 1520HOH      O 4764   3.888   0.435   2.861
 1520HOH     H1 4765   3.882   0.489   2.940
 1520HOH     H2 4766   3.916   0.496   2.792
 1521HOH      O 4767   0.302   3.617   3.852
 1521HOH     H1 4768   0.382   3.604   3.903
 1521HOH     H2 4769   0.330   3.612   3.761
 1522HOH      O 4770   3.835   3.397   1.193
 1522HOH     H1 4771   3.798   3.350   1.118
 1522HOH     H2 4772   3.792   3.483   1.190
 1523HOH      O 4773   1.450   1.513   1.348
 1523HOH     H1 4774   1.412   1.512   1.435
 1523HOH     H2 4775   1.497   1.596   1.343
 1524HOH      O 4776   2.864   3.107   2.985
 1524HOH     H1 4777   2.921   3.137   2.914
 1524HOH     H2 4778   2.825   3.026   2.952
 1525HOH      O 4779   2.812   1.020   2.011
 1525HOH     H1 4780   2.817   1.078   2.087
 1525HOH     H2 4781   2.724   1.033   1.977
 1526HOH      O 4782   1.411   3.508   3.808
 1526HOH     H1 4783   1.369   3.432   3.848
 1526HOH     H2 4784   1.451   3.473   3.728
 1527HOH      O 4785   1.138  -0.009   0.971
 1527HOH     H1 4786   1.138  -0.045   0.882
 1527HOH     H2 4787   1.191   0.070   0.965
 1528HOH      O 4788   3.355   2.390   2.996
 1528HOH     H1 4789   3.409   2.337   3.056
 1528HOH     H2 4790   3.358   2.342   2.913
 1529HOH      O 4791   2.141   2.377   3.516
 1529HOH     H1 4792   2.207   2.348   3.579
 1529HOH     H2 4793   2.153   2.320   3.440
 1530HOH      O 4794   2.299   0.748   2.596
 1530HOH     H1 4795   2.294   0.844   2.595
 1530HOH     H2 4796   2.387   0.728   2.565
 1531HOH      O 4797   3.781   0.109   0.667
 1531HOH     H1 4798   3.752   0.031   0.715
 1531HOH     H2 4799   3.819   0.075   0.586
 1532HOH      O 4800   2.392   1.561   0.479
 1532HOH     H1 4801   2.380   1.514   0.562
 1532HOH     H2 4802   2.317   1.621   0.475
 1533HOH      O 4803   3.444   0.576   2.481
 1533HOH     H1 4804   3.457   0.648   2.419
 1533HOH     H2 4805   3.432   0.619   2.566
 1534HOH      O 4806   3.226   0.346   0.686
 1534HOH     H1 4807   3.175   0.357   0.766
 1534HOH     H2 4808   3.214   0.428   0.638
 1535HOH      O 4809   2.938   2.375   0.234
 1535HOH     H1 4810   2.881   2.402   0.162
 1535HOH     H2 4811   2.917   2.436   0.305
 1536HOH      O 4812   3.452   2.502   0.284
 1536HOH     H1 4813   3.427   2.536   0.198
 1536HOH     H2 4814   3.530   2.553   0.308
 1537HOH      O 4815   0.504   3.804   1.759
 1537HOH     H1 4816   0.498   3.847   1.674
 1537HOH     H2 4817   0.506   3.711   1.738
 1538HOH      O 4818   3.276   3.917   3.394
 1538HOH     H1 4819   3.206   3.873   3.441
 1538HOH     H2 4820   3.315   3.848   3.340
 1539HOH      O 4821   3.093   2.885   3.164
 1539HOH     H1 4822   3.037   2.884   3.086
 1539HOH     H2 4823   3.160   2.819   3.146
 1540HOH      O 4824   0.955   0.720   1.739
 1540HOH     H1 4825   0.998   0.793   1.694
 1540HOH     H2 4826   0.906   0.760   1.810
 1541HOH      O 4827   1.081   0.517   0.223
 1541HOH     H1 4828   1.128   0.594   0.192
 1541HOH     H2 4829   1.033   0.548   0.300
 1542HOH      O 4830   2.681   1.712   2.819
 1542HOH     H1 4831   2.676   1.808   2.818
 1542HOH     H2 4832   2.679   1.689   2.911
 1543HOH      O 4833   2.979   3.632   3.184
 1543HOH     H1 4834   3.033   3.595   3.254
 1543HOH     H2 4835   2.967   3.560   3.122
 1544HOH      O 4836   0.483   3.182   2.845
 1544HOH     H1 4837   0.470   3.178   2.750
 1544HOH     H2 4838   0.535   3.261   2.859
 1545HOH      O 4839   3.418   3.535   3.563
 1545HOH     H1 4840   3.342   3.492   3.602
 1545HOH     H2 4841   3.382   3.592   3.496
 1546HOH      O 4842   0.749   2.764   1.954
 1546HOH     H1 4843   0.825   2.745   1.899
 1546HOH     H2 4844   0.762   2.855   1.981
 1547HOH      O 4845   0.006   0.035   2.275
 1547HOH     H1 4846   0.086   0.043   2.223
 1547HOH     H2 4847  -0.024   0.125   2.286
 1548HOH      O 4848   3.099   1.077   3.222
 1548HOH     H1 4849   3.004   1.069   3.231
 1548HOH     H2 4850   3.134   1.038   3.302
 1549HOH      O 4851   0.680   1.478   0.450
 1549HOH     H1 4852   0.772   1.456   0.435
 1549HOH     H2 4853   0.673   1.486   0.546
 1550HOH      O 4854   0.551   0.146   0.166
 1550HOH     H1 4855   0.553   0.226   0.219
 1550HOH     H2 4856   0.529   0.177   0.078
 1551HOH      O 4857   2.727   3.180   3.229
 1551HOH     H1 4858   2.683   3.261   3.203
 1551HOH     H2 4859   2.774   3.152   3.150
 1552HOH      O 4860   3.180   2.263   0.470
 1552HOH     H1 4861   3.111   2.274   0.536
 1552HOH     H2 4862   3.138   2.219   0.397
 1553HOH      O 4863   2.175   1.201   0.324
 1553HOH     H1 4864   2.143   1.137   0.260
 1553HOH     H2 4865   2.210   1.273   0.272
 1554HOH      O 4866   2.574   2.226   1.381
 1554HOH     H1 4867   2.496   2.177   1.357
 1554HOH     H2 4868   2.586   2.288   1.310
 1555HOH      O 4869   3.256   1.099   1.859
 1555HOH     H1 4870   3.177   1.054   1.830
 1555HOH     H2 4871   3.302   1.121   1.778
 1556HOH      O 4872   2.436   1.689   3.975
 1556HOH     H1 4873   2.370   1.621   3.990
 1556HOH     H2 4874   2.399   1.768   4.016
 1557HOH      O 4875   1.595   2.315   1.313
 1557HOH     H1 4876   1.667   2.335   1.253
 1557HOH     H2 4877   1.553   2.399   1.330
 1558HOH      O 4878   1.639   1.448   1.068
 1558HOH     H1 4879   1.576   1.508   1.108
 1558HOH     H2 4880   1.617   1.362   1.102
 1559HOH      O 4881   2.237   0.851   3.840
 1559HOH     H1 4882   2.188   0.786   3.788
 1559HOH     H2 4883   2.301   0.800   3.888
 1560HOH      O 4884   0.921   0.501   2.654
 1560HOH     H1 4885   1.002   0.463   2.618
 1560HOH     H2 4886   0.887   0.556   2.584
 1561HOH      O 4887   0.887   2.982   1.294
 1561HOH     H1 4888   0.915   2.895   1.267
 1561HOH     H2 4889   0.939   3.001   1.372
 1562HOH      O 4890   0.022   1.566   1.149
 1562HOH     H1 4891   0.034   1.658   1.174
 1562HOH     H2 4892   0.110   1.535   1.127
 1563HOH      O 4893   3.805   3.702   1.808
 1563HOH     H1 4894   3.811   3.797   1.819
 1563HOH     H2 4895   3.846   3.685   1.723
 1564HOH      O 4896   3.147   3.895   0.274
 1564HOH     H1 4897   3.125   3.802   0.278
 1564HOH     H2 4898   3.073   3.939   0.316
 1565HOH      O 4899   2.224   2.800   3.676
 1565HOH     H1 4900   2.206   2.778   3.584
 1565HOH     H2 4901   2.303   2.750   3.697
 1566HOH      O 4902   2.880   2.091   1.807
 1566HOH     H1 4903   2.897   2.172   1.855
 1566HOH     H2 4904   2.804   2.111   1.753
 1567HOH      O 4905   0.211   3.477   1.943
 1567HOH     H1 4906   0.181   3.498   1.855
 1567HOH     H2 4907   0.182   3.551   1.996
 1568HOH      O 4908   2.111   0.408   3.866
 1568HOH     H1 4909   2.032   0.358   3.845
 1568HOH     H2 4910   2.159   0.414   3.783
 1569HOH      O 4911   3.276   1.515   2.720
 1569HOH     H1 4912   3.208   1.582   2.726
 1569HOH     H2 4913   3.347   1.549   2.775
 1570HOH      O 4914   4.029   2.894   0.603
 1570HOH     H1 4915   4.056   2.954   0.534
 1570HOH     H2 4916   3.939   2.871   0.581
 1571HOH      O 4917   2.590   0.515   3.114
 1571HOH     H1 4918   2.673   0.505   3.069
 1571HOH     H2 4919   2.596   0.455   3.189
 1572HOH      O 4920   0.858   0.889   1.928
 1572HOH     H1 4921   0.822   0.949   1.862
 1572HOH     H2 4922   0.788   0.881   1.993
 1573HOH      O 4923   0.539   2.563   0.810
 1573HOH     H1 4924   0.524   2.485   0.756
 1573HOH     H2 4925   0.607   2.537   0.872
 1574HOH      O 4926   1.853   1.962   0.699
 1574HOH     H1 4927   1.823   1.985   0.788
 1574HOH     H2 4928   1.854   1.867   0.698
 1575HOH      O 4929   0.239   0.056   1.972
 1575HOH     H1 4930   0.240   0.103   1.888
 1575HOH     H2 4931   0.270  -0.032   1.950
 1576HOH      O 4932   2.316   0.589   1.744
 1576HOH     H1 4933   2.228   0.572   1.778
 1576HOH     H2 4934   2.312   0.680   1.714
 1577HOH      O 4935   0.752   3.465   0.936
 1577HOH     H1 4936   0.701   3.384   0.937
 1577HOH     H2 4937   0.701   3.525   0.881
 1578HOH      O 4938   3.404   3.438   1.912
 1578HOH     H1 4939   3.432   3.452   1.822
 1578HOH     H2 4940   3.468   3.375   1.947
 1579HOH      O 4941   3.218   2.057   3.184
 1579HOH     H1 4942   3.279   2.130   3.179
 1579HOH     H2 4943   3.269   1.981   3.158
 1580HOH      O 4944   2.787   3.889   2.847
 1580HOH     H1 4945   2.769   3.796   2.830
 1580HOH     H2 4946   2.711   3.919   2.896
 1581HOH      O 4947   1.079   1.623   1.096
 1581HOH     H1 4948   1.072   1.718   1.082
 1581HOH     H2 4949   1.017   1.605   1.167
 1582HOH      O 4950   0.625   2.351   2.628
 1582HOH     H1 4951   0.552   2.312   2.677
 1582HOH     H2 4952   0.583   2.408   2.564
 1583HOH      O 4953   3.479   3.035   2.672
 1583HOH     H1 4954   3.548   3.047   2.738
 1583HOH     H2 4955   3.409   2.988   2.719
 1584HOH      O 4956   2.842   2.587   0.367
 1584HOH     H1 4957   2.848   2.680   0.344
 1584HOH     H2 4958   2.859   2.584   0.461
 1585HOH      O 4959   2.373   3.111   3.152
 1585HOH     H1 4960   2.372   3.200   3.118
 1585HOH     H2 4961   2.448   3.070   3.108
 1586HOH      O 4962   0.156   3.848   0.257
 1586HOH     H1 4963   0.184   3.936   0.230
 1586HOH     H2 4964   0.075   3.833   0.207
 1587HOH      O 4965   0.829   1.812   3.711
 1587HOH     H1 4966   0.836   1.812   3.807
 1587HOH     H2 4967   0.776   1.735   3.691
 1588HOH      O 4968   2.504   2.109   0.391
 1588HOH     H1 4969   2.455   2.037   0.352
 1588HOH     H2 4970   2.585   2.069   0.423
 1589HOH      O 4971   0.366   1.675   1.885
 1589HOH     H1 4972   0.387   1.710   1.799
 1589HOH     H2 4973   0.329   1.749   1.933
 1590HOH      O 4974   0.248   0.335   0.318
 1590HOH     H1 4975   0.341   0.356   0.331
 1590HOH     H2 4976   0.201   0.408   0.358
 1591HOH      O 4977   3.531   1.619   0.014
 1591HOH     H1 4978   3.452   1.576  -0.018
 1591HOH     H2 4979   3.529   1.607   0.108
 1592HOH      O 4980   0.055   3.729   1.252
 1592HOH     H1 4981   0.072   3.823   1.251
 1592HOH     H2 4982  -0.003   3.715   1.177
 1593HOH      O 4983   0.663   3.687   2.998
 1593HOH     H1 4984   0.668   3.768   2.947
 1593HOH     H2 4985   0.674   3.715   3.089
 1594HOH      O 4986   3.482   3.859   0.573
 1594HOH     H1 4987   3.496   3.943   0.529
 1594HOH     H2 4988   3.387   3.849   0.576
 1595HOH      O 4989   3.575   4.056   0.083
 1595HOH     H1 4990   3.483   4.045   0.104
 1595HOH     H2 4991   3.605   3.969   0.057
 1596HOH      O 4992   0.439   0.497   1.491
 1596HOH     H1 4993   0.456   0.574   1.436
 1596HOH     H2 4994   0.389   0.531   1.564
 1597HOH      O 4995   1.845   1.172   2.079
 1597HOH     H1 4996   1.790   1.250   2.067
 1597HOH     H2 4997   1.833   1.148   2.170
 1598HOH      O 4998   0.818   0.064   0.052
 1598HOH     H1 4999   0.731   0.029   0.067
 1598HOH     H2 5000   0.841   0.108   0.134
 1599HOH      O 5001   0.949   1.564   0.634
 1599HOH     H1 5002   1.018   1.578   0.698
 1599HOH     H2 5003   0.986   1.503   0.571
 1600HOH      O 5004   3.643   2.697   3.800
 1600HOH     H1 5005   3.553   2.703   3.768
 1600HOH     H2 5006   3.637   2.639   3.876
 1601HOH      O 5007   0.056   2.596   0.240
 1601HOH     H1 5008   0.032   2.524   0.181
 1601HOH     H2 5009   0.079   2.553   0.323
 1602HOH      O 5010   1.459   2.253   3.807
 1602HOH     H1 5011   1.457   2.158   3.813
 1602HOH     H2 5012   1.529   2.272   3.744
 1603HOH      O 5013   3.205   0.281   0.394
 1603HOH     H1 5014   3.138   0.288   0.462
 1603HOH     H2 5015   3.223   0.371   0.368
 1604HOH      O 5016   2.310   3.351   1.623
 1604HOH     H1 5017   2.276   3.264   1.647
 1604HOH     H2 5018   2.352   3.383   1.703
 1605HOH      O 5019  -0.001   3.865   1.781
 1605HOH     H1 5020  -0.046   3.865   1.697
 1605HOH     H2 5021   0.088   3.893   1.762
 1606HOH      O 5022   3.620   0.628   3.540
 1606HOH     H1 5023   3.656   0.573   3.470
 1606HOH     H2 5024   3.679   0.704   3.543
 1607HOH      O 5025   2.139   4.002   3.913
 1607HOH     H1 5026   2.160   4.050   3.994
 1607HOH     H2 5027   2.155   3.910   3.935
 1608HOH      O 5028   3.199   3.158   3.145
 1608HOH     H1 5029   3.167   3.068   3.141
 1608HOH     H2 5030   3.294   3.151   3.140
 1609HOH      O 5031   1.159   2.132   2.399
 1609HOH     H1 5032   1.195   2.128   2.310
 1609HOH     H2 5033   1.189   2.215   2.434
 1610HOH      O 5034   0.587   3.308   3.535
 1610HOH     H1 5035   0.660   3.320   3.596
 1610HOH     H2 5036   0.604   3.222   3.495
 1611HOH      O 5037   2.820   2.457   0.836
 1611HOH     H1 5038   2.781   2.375   0.865
 1611HOH     H2 5039   2.864   2.491   0.913
 1612HOH      O 5040   0.839   0.720   3.663
 1612HOH     H1 5041   0.880   0.807   3.664
 1612HOH     H2 5042   0.896   0.668   3.606
 1613HOH      O 5043   1.731   2.133   0.507
 1613HOH     H1 5044   1.748   2.048   0.547
 1613HOH     H2 5045   1.807   2.186   0.531
 1614HOH      O 5046   3.370   2.491   1.621
 1614HOH     H1 5047   3.303   2.536   1.674
 1614HOH     H2 5048   3.366   2.400   1.651
 1615HOH      O 5049   0.704   0.730   2.794
 1615HOH     H1 5050   0.697   0.679   2.875
 1615HOH     H2 5051   0.718   0.820   2.824
 1616HOH      O 5052   2.765   1.144   0.550
 1616HOH     H1 5053   2.745   1.237   0.557
 1616HOH     H2 5054   2.694   1.108   0.497
 1617HOH      O 5055   0.751   3.970   2.963
 1617HOH     H1 5056   0.692   4.027   3.011
 1617HOH     H2 5057   0.835   4.017   2.963
 1618HOH      O 5058   0.941   1.884   1.681
 1618HOH     H1 5059   1.000   1.899   1.755
 1618HOH     H2 5060   0.922   1.972   1.648
 1619HOH      O 5061   0.868   2.988   2.911
 1619HOH     H1 5062   0.865   3.056   2.979
 1619HOH     H2 5063   0.815   3.023   2.839
 1620HOH      O 5064   1.896   0.260   2.519
 1620HOH     H1 5065   1.912   0.319   2.592
 1620HOH     H2 5066   1.836   0.307   2.462
 1621HOH      O 5067   1.227   0.366   0.471
 1621HOH     H1 5068   1.201   0.434   0.532
 1621HOH     H2 5069   1.149   0.350   0.418
 1622HOH      O 5070   2.799   0.124   1.115
 1622HOH     H1 5071   2.785   0.070   1.193
 1622HOH     H2 5072   2.893   0.138   1.112
 1623HOH      O 5073   0.565   2.339   1.782
 1623HOH     H1 5074   0.578   2.324   1.876
 1623HOH     H2 5075   0.621   2.414   1.762
 1624HOH      O 5076   1.471   2.716   3.758
 1624HOH     H1 5077   1.480   2.757   3.672
 1624HOH     H2 5078   1.476   2.788   3.820
 1625HOH      O 5079   0.363   3.089   2.341
 1625HOH     H1 5080   0.453   3.100   2.313
 1625HOH     H2 5081   0.311   3.134   2.275
 1626HOH      O 5082   2.791   3.347   2.039
 1626HOH     H1 5083   2.845   3.345   1.959
 1626HOH     H2 5084   2.750   3.260   2.042
 1627HOH      O 5085   3.015   3.467   1.838
 1627HOH     H1 5086   3.100   3.494   1.871
 1627HOH     H2 5087   3.022   3.477   1.743
 1628HOH      O 5088   3.037   3.475   1.165
 1628HOH     H1 5089   3.052   3.411   1.094
 1628HOH     H2 5090   3.104   3.542   1.150
 1629HOH      O 5091   1.304   2.181   2.156
 1629HOH     H1 5092   1.287   2.269   2.189
 1629HOH     H2 5093   1.273   2.184   2.065
 1630HOH      O 5094   3.622   1.832   1.879
 1630HOH     H1 5095   3.629   1.749   1.925
 1630HOH     H2 5096   3.708   1.873   1.890
 1631HOH      O 5097   0.736   2.226   3.923
 1631HOH     H1 5098   0.716   2.132   3.929
 1631HOH     H2 5099   0.665   2.268   3.971
 1632HOH      O 5100   2.200   2.087   2.270
 1632HOH     H1 5101   2.287   2.046   2.273
 1632HOH     H2 5102   2.146   2.024   2.223
 1633HOH      O 5103   2.798   2.078   0.839
 1633HOH     H1 5104   2.892   2.082   0.820
 1633HOH     H2 5105   2.790   2.117   0.926
 1634HOH      O 5106   3.035   0.615  -0.034
 1634HOH     H1 5107   3.035   0.556   0.041
 1634HOH     H2 5108   3.050   0.702   0.004
 1635HOH      O 5109   2.529   2.410   2.142
 1635HOH     H1 5110   2.460   2.425   2.077
 1635HOH     H2 5111   2.598   2.365   2.093
 1636HOH      O 5112   1.050   2.558   0.909
 1636HOH     H1 5113   1.107   2.504   0.855
 1636HOH     H2 5114   1.097   2.567   0.992
 1637HOH      O 5115   1.717   2.980   0.658
 1637HOH     H1 5116   1.762   3.007   0.738
 1637HOH     H2 5117   1.636   2.940   0.690
 1638HOH      O 5118   1.771   0.978   0.170
 1638HOH     H1 5119   1.815   1.015   0.247
 1638HOH     H2 5120   1.843   0.945   0.116
 1639HOH      O 5121   1.643   1.019   2.452
 1639HOH     H1 5122   1.644   0.948   2.388
 1639HOH     H2 5123   1.551   1.045   2.457
 1640HOH      O 5124   0.126   3.575   2.427
 1640HOH     H1 5125   0.156   3.656   2.386
 1640HOH     H2 5126   0.187   3.509   2.396
 1641HOH      O 5127   3.283   0.253   0.121
 1641HOH     H1 5128   3.312   0.195   0.192
 1641HOH     H2 5129   3.217   0.310   0.162
 1642HOH      O 5130   3.548   3.549   2.624
 1642HOH     H1 5131   3.643   3.540   2.625
 1642HOH     H2 5132   3.527   3.578   2.535
 1643HOH      O 5133   0.077   0.720   2.860
 1643HOH     H1 5134   0.152   0.665   2.884
 1643HOH     H2 5135   0.036   0.674   2.787
 1644HOH      O 5136   0.501   1.747   0.386
 1644HOH     H1 5137   0.520   1.789   0.470
 1644HOH     H2 5138   0.406   1.753   0.377
 1645HOH      O 5139   1.581   1.178   1.914
 1645HOH     H1 5140   1.653   1.214   1.862
 1645HOH     H2 5141   1.606   1.086   1.928
 1646HOH      O 5142   0.540   0.452   0.610
 1646HOH     H1 5143   0.530   0.405   0.693
 1646HOH     H2 5144   0.577   0.537   0.635
 1647HOH      O 5145   1.716   3.970   1.353
 1647HOH     H1 5146   1.658   4.044   1.336
 1647HOH     H2 5147   1.692   3.939   1.440
 1648HOH      O 5148   2.708   0.396   1.537
 1648HOH     H1 5149   2.743   0.379   1.449
 1648HOH     H2 5150   2.785   0.392   1.593
 1649HOH      O 5151   3.808   3.954   1.876
 1649HOH     H1 5152   3.901   3.968   1.857
 1649HOH     H2 5153   3.805   3.931   1.969
 1650HOH      O 5154   2.216   3.476   1.400
 1650HOH     H1 5155   2.251   3.439   1.481
 1650HOH     H2 5156   2.155   3.410   1.367
 1651HOH      O 5157   0.849   2.538   2.057
 1651HOH     H1 5158   0.916   2.554   1.991
 1651HOH     H2 5159   0.796   2.618   2.057
 1652HOH      O 5160   3.296   1.206   2.573
 1652HOH     H1 5161   3.281   1.287   2.523
 1652HOH     H2 5162   3.391   1.204   2.586
 1653HOH      O 5163   2.621   0.344   2.416
 1653HOH     H1 5164   2.686   0.274   2.416
 1653HOH     H2 5165   2.656   0.409   2.477
 1654HOH      O 5166   1.276   2.120   0.767
 1654HOH     H1 5167   1.205   2.078   0.718
 1654HOH     H2 5168   1.304   2.193   0.711
 1655HOH      O 5169   2.263   3.187   0.783
 1655HOH     H1 5170   2.309   3.139   0.852
 1655HOH     H2 5171   2.314   3.267   0.771
 1656HOH      O 5172   2.692   1.659   3.105
 1656HOH     H1 5173   2.717   1.740   3.148
 1656HOH     H2 5174   2.766   1.600   3.120
 1657HOH      O 5175   1.838   2.457   1.249
 1657HOH     H1 5176   1.814   2.523   1.315
 1657HOH     H2 5177   1.921   2.421   1.280
 1658HOH      O 5178   2.683   0.526   3.981
 1658HOH     H1 5179   2.688   0.561   4.070
 1658HOH     H2 5180   2.738   0.585   3.929
 1659HOH      O 5181   0.894   2.078   1.021
 1659HOH     H1 5182   0.822   2.133   1.051
 1659HOH     H2 5183   0.905   2.101   0.929
 1660HOH      O 5184   0.551   3.098   1.515
 1660HOH     H1 5185   0.571   3.182   1.556
 1660HOH     H2 5186   0.456   3.090   1.524
 1661HOH      O 5187   3.853   0.395   2.515
 1661HOH     H1 5188   3.779   0.354   2.560
 1661HOH     H2 5189   3.913   0.322   2.496
 1662HOH      O 5190   0.502   0.376   0.334
 1662HOH     H1 5191   0.549   0.429   0.269
 1662HOH     H2 5192   0.526   0.415   0.418
 1663HOH      O 5193   1.509   1.463   0.372
 1663HOH     H1 5194   1.572   1.534   0.364
 1663HOH     H2 5195   1.537   1.415   0.450
 1664HOH      O 5196   3.964   2.853   1.072
 1664HOH     H1 5197   4.018   2.850   1.151
 1664HOH     H2 5198   3.874   2.848   1.104
 1665HOH      O 5199   0.841   0.685   3.234
 1665HOH     H1 5200   0.884   0.755   3.185
 1665HOH     H2 5201   0.751   0.716   3.247
 1666HOH      O 5202   3.662   3.718   3.817
 1666HOH     H1 5203   3.687   3.626   3.806
 1666HOH     H2 5204   3.663   3.754   3.728
 1667HOH      O 5205   2.446   3.208   3.604
 1667HOH     H1 5206   2.495   3.256   3.538
 1667HOH     H2 5207   2.402   3.138   3.555
 1668HOH      O 5208   2.283   3.891   1.859
 1668HOH     H1 5209   2.216   3.889   1.928
 1668HOH     H2 5210   2.243   3.843   1.786
 1669HOH      O 5211   1.028   3.464   0.953
 1669HOH     H1 5212   0.933   3.475   0.948
 1669HOH     H2 5213   1.063   3.544   0.914
 1670HOH      O 5214   3.512   2.325   0.924
 1670HOH     H1 5215   3.569   2.301   0.852
 1670HOH     H2 5216   3.568   2.320   1.002
 1671HOH      O 5217   3.702   0.789   2.119
 1671HOH     H1 5218   3.784   0.739   2.121
 1671HOH     H2 5219   3.722   0.870   2.166
 1672HOH      O 5220   3.530   1.522   2.463
 1672HOH     H1 5221   3.523   1.434   2.500
 1672HOH     H2 5222   3.481   1.517   2.381
 1673HOH      O 5223   0.797   3.952   1.751
 1673HOH     H1 5224   0.775   3.873   1.799
 1673HOH     H2 5225   0.890   3.966   1.769
 1674HOH      O 5226   3.020   2.794   2.910
 1674HOH     H1 5227   2.936   2.804   2.866
 1674HOH     H2 5228   3.013   2.711   2.958
 1675HOH      O 5229   3.852   2.848   3.729
 1675HOH     H1 5230   3.814   2.868   3.643
 1675HOH     H2 5231   3.784   2.800   3.775
 1676HOH      O 5232   1.403   1.058   1.405
 1676HOH     H1 5233   1.408   1.062   1.500
 1676HOH     H2 5234   1.486   1.021   1.377
 1677HOH      O 5235   0.980   0.237   2.278
 1677HOH     H1 5236   0.913   0.177   2.245
 1677HOH     H2 5237   0.975   0.313   2.220
 1678HOH      O 5238   2.367   3.736   1.320
 1678HOH     H1 5239   2.315   3.666   1.358
 1678HOH     H2 5240   2.434   3.755   1.385
 1679HOH      O 5241   3.795   1.855   3.468
 1679HOH     H1 5242   3.873   1.894   3.509
 1679HOH     H2 5243   3.824   1.831   3.380
 1680HOH      O 5244   0.678   3.736   3.745
 1680HOH     H1 5245   0.746   3.694   3.797
 1680HOH     H2 5246   0.626   3.663   3.711
 1681HOH      O 5247   0.817   2.370   2.887
 1681HOH     H1 5248   0.858   2.443   2.841
 1681HOH     H2 5249   0.731   2.360   2.846
 1682HOH      O 5250   3.212   0.810   0.424
 1682HOH     H1 5251   3.130   0.768   0.452
 1682HOH     H2 5252   3.203   0.820   0.329
 1683HOH      O 5253   3.973   2.659   1.582
 1683HOH     H1 5254   3.948   2.752   1.579
 1683HOH     H2 5255   3.894   2.612   1.554
 1684HOH      O 5256   0.804   1.322   0.063
 1684HOH     H1 5257   0.748   1.313  -0.014
 1684HOH     H2 5258   0.766   1.263   0.127
 1685HOH      O 5259   2.996   1.397   0.074
 1685HOH     H1 5260   2.951   1.472   0.035
 1685HOH     H2 5261   3.080   1.431   0.104
 1686HOH      O 5262   1.535   2.053   2.531
 1686HOH     H1 5263   1.506   2.139   2.562
 1686HOH     H2 5264   1.562   2.068   2.441
 1687HOH      O 5265   0.672   1.274   1.495
 1687HOH     H1 5266   0.606   1.310   1.436
 1687HOH     H2 5267   0.715   1.350   1.533
 1688HOH      O 5268   3.142   1.297   3.049
 1688HOH     H1 5269   3.135   1.229   3.116
 1688HOH     H2 5270   3.233   1.292   3.020
 1689HOH      O 5271   0.952   3.219   2.194
 1689HOH     H1 5272   0.916   3.271   2.265
 1689HOH     H2 5273   1.039   3.256   2.177
 1690HOH      O 5274   1.305   1.526   0.881
 1690HOH     H1 5275   1.233   1.464   0.889
 1690HOH     H2 5276   1.272   1.606   0.921
 1691HOH      O 5277   1.236   3.877   1.622
 1691HOH     H1 5278   1.186   3.834   1.692
 1691HOH     H2 5279   1.170   3.922   1.570
 1692HOH      O 5280   3.968   0.859   3.293
 1692HOH     H1 5281   3.980   0.945   3.334
 1692HOH     H2 5282   4.046   0.847   3.239
 1693HOH      O 5283   2.048   3.733   0.077
 1693HOH     H1 5284   2.129   3.694   0.045
 1693HOH     H2 5285   2.042   3.706   0.168
 1694HOH      O 5286   2.312   3.018   1.026
 1694HOH     H1 5287   2.227   2.982   1.003
 1694HOH     H2 5288   2.342   2.965   1.100
 1695HOH      O 5289   2.985   3.890   2.037
 1695HOH     H1 5290   3.054   3.928   1.983
 1695HOH     H2 5291   2.959   3.810   1.992
 1696HOH      O 5292   1.715   1.157   3.847
 1696HOH     H1 5293   1.739   1.124   3.760
 1696HOH     H2 5294   1.624   1.130   3.859
 1697HOH      O 5295   2.037   2.340   1.409
 1697HOH     H1 5296   2.004   2.351   1.498
 1697HOH     H2 5297   2.123   2.299   1.420
 1698HOH      O 5298   0.182   0.599   1.197
 1698HOH     H1 5299   0.156   0.507   1.197
 1698HOH     H2 5300   0.138   0.635   1.274
 1699HOH      O 5301   3.976   1.816   1.593
 1699HOH     H1 5302   4.012   1.794   1.679
 1699HOH     H2 5303   4.052   1.821   1.536
 1700HOH      O 5304   2.749   3.924   2.558
 1700HOH     H1 5305   2.684   3.927   2.629
 1700HOH     H2 5306   2.744   4.010   2.518
 1701HOH      O 5307   1.657   1.437   0.086
 1701HOH     H1 5308   1.597   1.375   0.044
 1701HOH     H2 5309   1.625   1.523   0.058
 1702HOH      O 5310   3.538   3.240   1.517
 1702HOH     H1 5311   3.461   3.267   1.468
 1702HOH     H2 5312   3.543   3.145   1.502
 1703HOH      O 5313   1.717   2.163   1.558
 1703HOH     H1 5314   1.783   2.221   1.595
 1703HOH     H2 5315   1.670   2.217   1.494
 1704HOH      O 5316   3.173   1.698   1.580
 1704HOH     H1 5317   3.155   1.647   1.501
 1704HOH     H2 5318   3.087   1.712   1.620
 1705HOH      O 5319   0.349   1.849   2.298
 1705HOH     H1 5320   0.413   1.902   2.345
 1705HOH     H2 5321   0.272   1.906   2.289
 1706HOH      O 5322   1.174   3.888   3.073
 1706HOH     H1 5323   1.139   3.871   3.160
 1706HOH     H2 5324   1.229   3.966   3.085
 1707HOH      O 5325   0.060   2.351   1.980
 1707HOH     H1 5326   0.045   2.400   2.061
 1707HOH     H2 5327   0.016   2.403   1.913
 1708HOH      O 5328   2.962   2.884   2.441
 1708HOH     H1 5329   2.958   2.856   2.350
 1708HOH     H2 5330   2.896   2.831   2.485
 1709HOH      O 5331   0.317   3.453   1.066
 1709HOH     H1 5332   0.221   3.455   1.058
 1709HOH     H2 5333   0.345   3.398   0.993
 1710HOH      O 5334   2.785   2.646   2.515
 1710HOH     H1 5335   2.819   2.563   2.482
 1710HOH     H2 5336   2.690   2.636   2.514
 1711HOH      O 5337   1.205   2.598   2.792
 1711HOH     H1 5338   1.183   2.604   2.885
 1711HOH     H2 5339   1.296   2.568   2.791
 1712HOH      O 5340   2.415   2.817   0.453
 1712HOH     H1 5341   2.340   2.844   0.506
 1712HOH     H2 5342   2.380   2.751   0.393
 1713HOH      O 5343   0.338   0.054   0.340
 1713HOH     H1 5344   0.407   0.095   0.288
 1713HOH     H2 5345   0.289   0.127   0.377
 1714HOH      O 5346   4.013   1.809   2.665
 1714HOH     H1 5347   4.014   1.904   2.666
 1714HOH     H2 5348   4.092   1.784   2.617
 1715HOH      O 5349   3.341   2.572   0.068
 1715HOH     H1 5350   3.282   2.514   0.115
 1715HOH     H2 5351   3.285   2.639   0.030
 1716HOH      O 5352   3.668   2.705   3.147
 1716HOH     H1 5353   3.697   2.724   3.058
 1716HOH     H2 5354   3.650   2.791   3.185
 1717HOH      O 5355   0.825   1.727   1.859
 1717HOH     H1 5356   0.908   1.683   1.878
 1717HOH     H2 5357   0.845   1.787   1.787
 1718HOH      O 5358   3.162   2.886   0.224
 1718HOH     H1 5359   3.152   2.943   0.148
 1718HOH     H2 5360   3.082   2.835   0.227
 1719HOH      O 5361   2.838   0.789   0.426
 1719HOH     H1 5362   2.794   0.821   0.505
 1719HOH     H2 5363   2.787   0.825   0.353
 1720HOH      O 5364   3.574   3.810   2.195
 1720HOH     H1 5365   3.578   3.886   2.137
 1720HOH     H2 5366   3.602   3.736   2.141
 1721HOH      O 5367   1.163   0.608   2.214
 1721HOH     H1 5368   1.070   0.629   2.222
 1721HOH     H2 5369   1.180   0.608   2.120
 1722HOH      O 5370   3.627   1.746   2.591
 1722HOH     H1 5371   3.604   1.682   2.524
 1722HOH     H2 5372   3.654   1.824   2.542
 1723HOH      O 5373   1.375   0.249   3.435
 1723HOH     H1 5374   1.395   0.155   3.434
 1723HOH     H2 5375   1.458   0.291   3.455
 1724HOH      O 5376   0.922   1.122   2.351
 1724HOH     H1 5377   0.845   1.100   2.298
 1724HOH     H2 5378   0.987   1.152   2.287
 1725HOH      O 5379   1.154   2.795   2.463
 1725HOH     H1 5380   1.123   2.827   2.548
 1725HOH     H2 5381   1.241   2.835   2.453
 1726HOH      O 5382   2.694   2.838   1.041
 1726HOH     H1 5383   2.650   2.797   1.116
 1726HOH     H2 5384   2.750   2.905   1.080
 1727HOH      O 5385   1.341   2.317   1.155
 1727HOH     H1 5386   1.338   2.412   1.143
 1727HOH     H2 5387   1.421   2.302   1.205
 1728HOH      O 5388   2.759   3.704   3.949
 1728HOH     H1 5389   2.703   3.731   4.022
 1728HOH     H2 5390   2.848   3.723   3.980
 1729HOH      O 5391   1.791   0.062   2.789
 1729HOH     H1 5392   1.772  -0.032   2.787
 1729HOH     H2 5393   1.726   0.100   2.730
 1730HOH      O 5394   0.152   2.065   0.782
 1730HOH     H1 5395   0.169   2.145   0.733
 1730HOH     H2 5396   0.226   2.057   0.842
 1731HOH      O 5397   0.875   0.469   0.687
 1731HOH     H1 5398   0.955   0.459   0.739
 1731HOH     H2 5399   0.805   0.448   0.748
 1732HOH      O 5400   3.352   1.519   1.706
 1732HOH     H1 5401   3.311   1.605   1.711
 1732HOH     H2 5402   3.333   1.488   1.618
 1733HOH      O 5403   3.645   0.223   2.602
 1733HOH     H1 5404   3.592   0.202   2.679
 1733HOH     H2 5405   3.694   0.142   2.584
 1734HOH      O 5406   1.252   2.628   3.365
 1734HOH     H1 5407   1.271   2.722   3.369
 1734HOH     H2 5408   1.168   2.619   3.410
 1735HOH      O 5409   1.274   0.202   2.217
 1735HOH     H1 5410   1.204   0.241   2.165
 1735HOH     H2 5411   1.235   0.122   2.252
 1736HOH      O 5412   3.782   1.626   1.695
 1736HOH     H1 5413   3.824   1.587   1.618
 1736HOH     H2 5414   3.854   1.668   1.743
 1737HOH      O 5415   3.232   3.375   3.788
 1737HOH     H1 5416   3.205   3.293   3.746
 1737HOH     H2 5417   3.323   3.360   3.813
 1738HOH      O 5418   0.354   3.844   2.013
 1738HOH     H1 5419   0.432   3.876   2.059
 1738HOH     H2 5420   0.382   3.831   1.923
 1739HOH      O 5421   0.146   3.572   1.724
 1739HOH     H1 5422   0.201   3.613   1.656
 1739HOH     H2 5423   0.070   3.540   1.676
 1740HOH      O 5424   0.497   2.363   0.618
 1740HOH     H1 5425   0.480   2.272   0.592
 1740HOH     H2 5426   0.534   2.403   0.539
 1741HOH      O 5427   3.517   3.615   1.306
 1741HOH     H1 5428   3.454   3.683   1.332
 1741HOH     H2 5429   3.585   3.618   1.374
 1742HOH      O 5430   3.085   0.440   0.169
 1742HOH     H1 5431   3.026   0.419   0.241
 1742HOH     H2 5432   3.151   0.497   0.209
 1743HOH      O 5433   1.832   0.644   1.734
 1743HOH     H1 5434   1.792   0.565   1.771
 1743HOH     H2 5435   1.775   0.669   1.661
 1744HOH      O 5436   3.669   0.565   1.821
 1744HOH     H1 5437   3.748   0.514   1.802
 1744HOH     H2 5438   3.680   0.646   1.770
 1745HOH      O 5439   3.731   3.352   2.810
 1745HOH     H1 5440   3.742   3.380   2.719
 1745HOH     H2 5441   3.661   3.287   2.807
 1746HOH      O 5442   3.151   3.740   3.826
 1746HOH     H1 5443   3.216   3.679   3.861
 1746HOH     H2 5444   3.165   3.740   3.732
 1747HOH      O 5445   3.927   2.674   2.247
 1747HOH     H1 5446   3.864   2.630   2.304
 1747HOH     H2 5447   3.874   2.713   2.178
 1748HOH      O 5448   0.935   3.295   0.133
 1748HOH     H1 5449   0.974   3.368   0.182
 1748HOH     H2 5450   0.841   3.310   0.140
 1749HOH      O 5451   3.555   0.538   3.024
 1749HOH     H1 5452   3.473   0.499   3.054
 1749HOH     H2 5453   3.623   0.478   3.055
 1750HOH      O 5454   2.276   1.504   2.215
 1750HOH     H1 5455   2.276   1.523   2.122
 1750HOH     H2 5456   2.287   1.409   2.221
 1751HOH      O 5457   3.664   1.897   2.170
 1751HOH     H1 5458   3.604   1.828   2.142
 1751HOH     H2 5459   3.726   1.906   2.098
 1752HOH      O 5460   3.700   3.780   3.109
 1752HOH     H1 5461   3.637   3.834   3.156
 1752HOH     H2 5462   3.647   3.715   3.062
 1753HOH      O 5463   1.945   2.286   1.679
 1753HOH     H1 5464   2.036   2.273   1.703
 1753HOH     H2 5465   1.906   2.331   1.754
 1754HOH      O 5466   2.535   1.831   1.263
 1754HOH     H1 5467   2.442   1.814   1.283
 1754HOH     H2 5468   2.540   1.925   1.250
 1755HOH      O 5469   0.754   2.164   1.353
 1755HOH     H1 5470   0.721   2.189   1.266
 1755HOH     H2 5471   0.721   2.233   1.411
 1756HOH      O 5472   3.494   1.398   0.569
 1756HOH     H1 5473   3.513   1.436   0.655
 1756HOH     H2 5474   3.412   1.440   0.542
 1757HOH      O 5475   2.961   0.060   3.839
 1757HOH     H1 5476   3.037   0.116   3.857
 1757HOH     H2 5477   2.977   0.026   3.751
 1758HOH      O 5478   2.156   2.091   3.585
 1758HOH     H1 5479   2.094   2.021   3.606
 1758HOH     H2 5480   2.241   2.057   3.612
 1759HOH      O 5481   0.072   0.894   2.119
 1759HOH     H1 5482   0.091   0.821   2.177
 1759HOH     H2 5483   0.020   0.857   2.049
 1760HOH      O 5484   2.953   1.367   3.576
 1760HOH     H1 5485   2.871   1.366   3.526
 1760HOH     H2 5486   2.964   1.459   3.600
 1761HOH      O 5487   3.486   2.896   3.012
 1761HOH     H1 5488   3.493   2.802   2.993
 1761HOH     H2 5489   3.406   2.923   2.969
 1762HOH      O 5490   2.758   1.341   2.706
 1762HOH     H1 5491   2.839   1.358   2.754
 1762HOH     H2 5492   2.762   1.400   2.631
 1763HOH      O 5493   3.958   3.735   1.014
 1763HOH     H1 5494   4.004   3.683   0.948
 1763HOH     H2 5495   3.888   3.678   1.046
 1764HOH      O 5496   1.538   2.374   3.563
 1764HOH     H1 5497   1.451   2.362   3.524
 1764HOH     H2 5498   1.596   2.386   3.489
 1765HOH      O 5499   4.020   1.708   2.355
 1765HOH     H1 5500   4.021   1.746   2.443
 1765HOH     H2 5501   3.934   1.668   2.347
 1766HOH      O 5502   2.501   3.952   1.688
 1766HOH     H1 5503   2.430   3.955   1.752
 1766HOH     H2 5504   2.581   3.949   1.741
 1767HOH      O 5505   0.172   1.581   1.444
 1767HOH     H1 5506   0.122   1.512   1.400
 1767HOH     H2 5507   0.263   1.563   1.421
 1768HOH      O 5508   3.815   0.033   2.657
 1768HOH     H1 5509   3.893   0.043   2.711
 1768HOH     H2 5510   3.773  -0.047   2.689
 1769HOH      O 5511   2.142   0.787   1.062
 1769HOH     H1 5512   2.106   0.731   1.130
 1769HOH     H2 5513   2.232   0.757   1.051
 1770HOH      O 5514   2.703   0.129   1.892
 1770HOH     H1 5515   2.733   0.138   1.982
 1770HOH     H2 5516   2.636   0.197   1.882
 1771HOH      O 5517   0.600   2.710   1.120
 1771HOH     H1 5518   0.533   2.774   1.096
 1771HOH     H2 5519   0.630   2.740   1.206
 1772HOH      O 5520   0.930   3.780   0.683
 1772HOH     H1 5521   0.855   3.799   0.740
 1772HOH     H2 5522   1.000   3.836   0.715
 1773HOH      O 5523   1.869   2.010   2.464
 1773HOH     H1 5524   1.800   2.025   2.398
 1773HOH     H2 5525   1.850   2.074   2.533
 1774HOH      O 5526   3.730   3.578   1.501
 1774HOH     H1 5527   3.791   3.505   1.489
 1774HOH     H2 5528   3.786   3.654   1.513
 1775HOH      O 5529   0.678   0.394   3.308
 1775HOH     H1 5530   0.595   0.391   3.356
 1775HOH     H2 5531   0.710   0.484   3.322
 1776HOH      O 5532   3.412   0.964   0.106
 1776HOH     H1 5533   3.466   0.911   0.165
 1776HOH     H2 5534   3.389   0.904   0.035
 1777HOH      O 5535   3.848   1.753   2.889
 1777HOH     H1 5536   3.790   1.828   2.899
 1777HOH     H2 5537   3.888   1.764   2.803
 1778HOH      O 5538   1.658   0.914   1.900
 1778HOH     H1 5539   1.625   0.833   1.937
 1778HOH     H2 5540   1.752   0.912   1.916
 1779HOH      O 5541   3.155   0.885   3.011
 1779HOH     H1 5542   3.243   0.916   2.987
 1779HOH     H2 5543   3.139   0.923   3.097
 1780HOH      O 5544   0.687   0.925   0.536
 1780HOH     H1 5545   0.751   0.996   0.544
 1780HOH     H2 5546   0.720   0.873   0.463
 1781HOH      O 5547   1.381   0.895   0.310
 1781HOH     H1 5548   1.391   0.939   0.394
 1781HOH     H2 5549   1.382   0.966   0.245
 1782HOH      O 5550   1.756   2.348   2.473
 1782HOH     H1 5551   1.705   2.360   2.553
 1782HOH     H2 5552   1.842   2.386   2.494
 1783HOH      O 5553   0.442   1.557   1.402
 1783HOH     H1 5554   0.468   1.601   1.321
 1783HOH     H2 5555   0.449   1.625   1.469
 1784HOH      O 5556   3.554   3.723   1.906
 1784HOH     H1 5557   3.636   3.716   1.858
 1784HOH     H2 5558   3.517   3.634   1.903
 1785HOH      O 5559   3.211   1.921   2.920
 1785HOH     H1 5560   3.216   2.013   2.947
 1785HOH     H2 5561   3.298   1.902   2.883
 1786HOH      O 5562   0.812   2.701   2.966
 1786HOH     H1 5563   0.826   2.792   2.940
 1786HOH     H2 5564   0.750   2.667   2.902
 1787HOH      O 5565   3.415   1.179   3.558
 1787HOH     H1 5566   3.373   1.171   3.472
 1787HOH     H2 5567   3.352   1.229   3.610
 1788HOH      O 5568   3.741   1.078   2.188
 1788HOH     H1 5569   3.708   1.125   2.111
 1788HOH     H2 5570   3.677   1.098   2.257
 1789HOH      O 5571   3.462   1.594   2.913
 1789HOH     H1 5572   3.468   1.689   2.902
 1789HOH     H2 5573   3.553   1.564   2.906
 1790HOH      O 5574   2.100   1.430   0.874
 1790HOH     H1 5575   2.044   1.431   0.952
 1790HOH     H2 5576   2.131   1.521   0.866
 1791HOH      O 5577   1.254   1.805   0.070
 1791HOH     H1 5578   1.208   1.862   0.132
 1791HOH     H2 5579   1.304   1.745   0.126
 1792HOH      O 5580   3.302   2.735   2.714
 1792HOH     H1 5581   3.228   2.683   2.684
 1792HOH     H2 5582   3.314   2.709   2.805
 1793HOH      O 5583  -0.011   3.352   3.662
 1793HOH     H1 5584  -0.011   3.261   3.631
 1793HOH     H2 5585   0.070   3.360   3.711
 1794HOH      O 5586   0.835   1.777   3.985
 1794HOH     H1 5587   0.816   1.724   4.062
 1794HOH     H2 5588   0.818   1.867   4.013
 1795HOH      O 5589   2.342   2.616   0.309
 1795HOH     H1 5590   2.257   2.577   0.291
 1795HOH     H2 5591   2.398   2.586   0.237
 1796HOH      O 5592   2.749   2.273   1.051
 1796HOH     H1 5593   2.823   2.328   1.079
 1796HOH     H2 5594   2.754   2.196   1.108
 1797HOH      O 5595   2.489   1.349   0.347
 1797HOH     H1 5596   2.430   1.333   0.273
 1797HOH     H2 5597   2.454   1.427   0.390
 1798HOH      O 5598   3.888   2.761   0.243
 1798HOH     H1 5599   3.871   2.784   0.152
 1798HOH     H2 5600   3.977   2.726   0.243
 1799HOH      O 5601   0.747   2.496   3.197
 1799HOH     H1 5602   0.772   2.530   3.112
 1799HOH     H2 5603   0.679   2.430   3.179
 1800HOH      O 5604   3.276   3.913   2.996
 1800HOH     H1 5605   3.296   3.851   2.926
 1800HOH     H2 5606   3.189   3.887   3.026
 1801HOH      O 5607   2.968   0.160   0.779
 1801HOH     H1 5608   2.928   0.192   0.860
 1801HOH     H2 5609   3.032   0.094   0.808
 1802HOH      O 5610   3.380   0.500   1.368
 1802HOH     H1 5611   3.416   0.574   1.319
 1802HOH     H2 5612   3.456   0.461   1.412
 1803HOH      O 5613   1.516   0.911   3.490
 1803HOH     H1 5614   1.442   0.970   3.473
 1803HOH     H2 5615   1.495   0.832   3.440
 1804HOH      O 5616   1.002   1.448   2.567
 1804HOH     H1 5617   0.993   1.522   2.507
 1804HOH     H2 5618   0.923   1.396   2.552
 1805HOH      O 5619   2.493   0.299   1.798
 1805HOH     H1 5620   2.486   0.336   1.886
 1805HOH     H2 5621   2.419   0.238   1.792
 1806HOH      O 5622   4.004   3.466   3.406
 1806HOH     H1 5623   4.023   3.559   3.394
 1806HOH     H2 5624   3.996   3.454   3.500
 1807HOH      O 5625   3.957   1.520   1.502
 1807HOH     H1 5626   4.046   1.555   1.509
 1807HOH     H2 5627   3.955   1.477   1.417
 1808HOH      O 5628   0.611   2.794   3.435
 1808HOH     H1 5629   0.532   2.768   3.387
 1808HOH     H2 5630   0.593   2.769   3.526
 1809HOH      O 5631   0.567   3.928   2.167
 1809HOH     H1 5632   0.574   4.022   2.182
 1809HOH     H2 5633   0.644   3.891   2.211
 1810HOH      O 5634   2.603   0.548   2.219
 1810HOH     H1 5635   2.522   0.499   2.203
 1810HOH     H2 5636   2.644   0.503   2.293
 1811HOH      O 5637   3.927   3.999   1.352
 1811HOH     H1 5638   3.936   4.091   1.374
 1811HOH     H2 5639   4.015   3.972   1.323
 1812HOH      O 5640   1.832   1.479   1.575
 1812HOH     H1 5641   1.822   1.463   1.481
 1812HOH     H2 5642   1.925   1.495   1.588
 1813HOH      O 5643   3.054   2.209   1.285
 1813HOH     H1 5644   3.146   2.188   1.302
 1813HOH     H2 5645   3.010   2.124   1.283
 1814HOH      O 5646   0.423   2.253   2.802
 1814HOH     H1 5647   0.329   2.267   2.796
 1814HOH     H2 5648   0.432   2.159   2.814
 1815HOH      O 5649   0.691   3.962   1.162
 1815HOH     H1 5650   0.720   4.017   1.089
 1815HOH     H2 5651   0.726   3.875   1.143
 1816HOH      O 5652   2.065   0.216   0.204
 1816HOH     H1 5653   2.050   0.129   0.166
 1816HOH     H2 5654   2.149   0.244   0.167
 1817HOH      O 5655   3.371   0.836   3.909
 1817HOH     H1 5656   3.303   0.821   3.844
 1817HOH     H2 5657   3.425   0.906   3.873
 1818HOH      O 5658   0.550   3.599   2.381
 1818HOH     H1 5659   0.634   3.578   2.339
 1818HOH     H2 5660   0.494   3.525   2.362
 1819HOH      O 5661   2.809   1.018   3.642
 1819HOH     H1 5662   2.838   0.975   3.723
 1819HOH     H2 5663   2.890   1.039   3.595
 1820HOH      O 5664   3.606   0.719   3.243
 1820HOH     H1 5665   3.523   0.703   3.287
 1820HOH     H2 5666   3.592   0.688   3.153
 1821HOH      O 5667   3.634   3.820   2.730
 1821HOH     H1 5668   3.563   3.883   2.719
 1821HOH     H2 5669   3.657   3.793   2.640
 1822HOH      O 5670   1.742   1.488   3.142
 1822HOH     H1 5671   1.682   1.454   3.076
 1822HOH     H2 5672   1.741   1.582   3.128
 1823HOH      O 5673   1.627   1.973   3.501
 1823HOH     H1 5674   1.661   2.028   3.573
 1823HOH     H2 5675   1.599   1.892   3.544
 1824HOH      O 5676   1.883   1.453   2.430
 1824HOH     H1 5677   1.818   1.506   2.476
 1824HOH     H2 5678   1.947   1.430   2.497
 1825HOH      O 5679   2.119   3.002   1.418
 1825HOH     H1 5680   2.137   3.077   1.360
 1825HOH     H2 5681   2.181   2.935   1.389
 1826HOH      O 5682   1.652   0.378   3.576
 1826HOH     H1 5683   1.699   0.444   3.628
 1826HOH     H2 5684   1.613   0.320   3.642
 1827HOH      O 5685   0.907   3.431   1.583
 1827HOH     H1 5686   0.980   3.417   1.523
 1827HOH     H2 5687   0.947   3.434   1.670
 1828HOH      O 5688   3.465   2.595   1.064
 1828HOH     H1 5689   3.381   2.637   1.045
 1828HOH     H2 5690   3.466   2.518   1.006
 1829HOH      O 5691   2.509   3.275   1.085
 1829HOH     H1 5692   2.562   3.287   1.007
 1829HOH     H2 5693   2.572   3.251   1.153
 1830HOH      O 5694   1.110   3.990   3.475
 1830HOH     H1 5695   1.053   3.951   3.542
 1830HOH     H2 5696   1.070   4.075   3.457
 1831HOH      O 5697   3.240   1.533   0.547
 1831HOH     H1 5698   3.217   1.625   0.537
 1831HOH     H2 5699   3.214   1.493   0.464
 1832HOH      O 5700   1.539   1.986   0.833
 1832HOH     H1 5701   1.452   2.028   0.834
 1832HOH     H2 5702   1.536   1.928   0.757
 1833HOH      O 5703   0.864   2.973   2.106
 1833HOH     H1 5704   0.907   3.049   2.145
 1833HOH     H2 5705   0.866   2.907   2.175
 1834HOH      O 5706   1.392   1.040   2.511
 1834HOH     H1 5707   1.309   1.023   2.468
 1834HOH     H2 5708   1.388   0.988   2.592
 1835HOH      O 5709   1.717   3.836   2.775
 1835HOH     H1 5710   1.759   3.760   2.734
 1835HOH     H2 5711   1.708   3.812   2.867
 1836HOH      O 5712   3.732   2.915   0.479
 1836HOH     H1 5713   3.653   2.861   0.481
 1836HOH     H2 5714   3.782   2.883   0.405
 1837HOH      O 5715   3.831   0.253   2.228
 1837HOH     H1 5716   3.792   0.307   2.297
 1837HOH     H2 5717   3.758   0.229   2.172
 1838HOH      O 5718   0.151   1.148   3.203
 1838HOH     H1 5719   0.237   1.107   3.214
 1838HOH     H2 5720   0.114   1.107   3.125
 1839HOH      O 5721   0.606   1.084   3.391
 1839HOH     H1 5722   0.688   1.045   3.421
 1839HOH     H2 5723   0.633   1.167   3.351
 1840HOH      O 5724   1.933   1.957   1.923
 1840HOH     H1 5725   1.925   2.049   1.947
 1840HOH     H2 5726   1.900   1.952   1.834
 1841HOH      O 5727   3.036   0.640   0.609
 1841HOH     H1 5728   2.975   0.654   0.682
 1841HOH     H2 5729   3.117   0.681   0.638
 1842HOH      O 5730   0.874   3.809   3.585
 1842HOH     H1 5731   0.781   3.795   3.600
 1842HOH     H2 5732   0.917   3.756   3.653
 1843HOH      O 5733   0.951   1.747   3.314
 1843HOH     H1 5734   0.973   1.831   3.355
 1843HOH     H2 5735   0.979   1.682   3.378
 1844HOH      O 5736   0.524   3.529   3.983
 1844HOH     H1 5737   0.499   3.440   4.010
 1844HOH     H2 5738   0.538   3.576   4.065
 1845HOH      O 5739   0.859   3.164   3.159
 1845HOH     H1 5740   0.765   3.148   3.166
 1845HOH     H2 5741   0.871   3.252   3.194
 1846HOH      O 5742   2.253   0.024   0.112
 1846HOH     H1 5743   2.260  -0.069   0.131
 1846HOH     H2 5744   2.339   0.060   0.132
 1847HOH      O 5745   2.253   2.992   2.895
 1847HOH     H1 5746   2.278   3.012   2.986
 1847HOH     H2 5747   2.337   2.984   2.849
 1848HOH      O 5748   3.957   2.170   1.393
 1848HOH     H1 5749   3.922   2.178   1.305
 1848HOH     H2 5750   4.001   2.254   1.410
 1849HOH      O 5751   2.307   2.501   1.565
 1849HOH     H1 5752   2.218   2.525   1.590
 1849HOH     H2 5753   2.358   2.581   1.578
 1850HOH      O 5754   1.984   1.044   3.694
 1850HOH     H1 5755   2.059   1.077   3.743
 1850HOH     H2 5756   2.009   1.056   3.602
 1851HOH      O 5757   0.875   3.106   3.538
 1851HOH     H1 5758   0.937   3.043   3.576
 1851HOH     H2 5759   0.901   3.112   3.446
 1852HOH      O 5760   3.336   1.654   0.835
 1852HOH     H1 5761   3.276   1.704   0.890
 1852HOH     H2 5762   3.284   1.631   0.758
 1853HOH      O 5763   3.995   2.716   3.086
 1853HOH     H1 5764   3.938   2.744   3.014
 1853HOH     H2 5765   3.978   2.780   3.155
 1854HOH      O 5766   0.677   0.413   0.898
 1854HOH     H1 5767   0.605   0.437   0.955
 1854HOH     H2 5768   0.659   0.322   0.874
 1855HOH      O 5769   1.080   2.214   1.224
 1855HOH     H1 5770   1.009   2.157   1.195
 1855HOH     H2 5771   1.154   2.190   1.168
 1856HOH      O 5772   2.312   3.737   3.465
 1856HOH     H1 5773   2.223   3.738   3.501
 1856HOH     H2 5774   2.325   3.648   3.434
 1857HOH      O 5775   0.755   2.853   0.021
 1857HOH     H1 5776   0.740   2.780   0.082
 1857HOH     H2 5777   0.848   2.872   0.029
 1858HOH      O 5778   1.161   2.156   0.267
 1858HOH     H1 5779   1.158   2.060   0.268
 1858HOH     H2 5780   1.245   2.176   0.225
 1859HOH      O 5781   0.567   2.306   3.154
 1859HOH     H1 5782   0.547   2.214   3.175
 1859HOH     H2 5783   0.590   2.304   3.061
 1860HOH      O 5784   2.709   2.942   3.360
 1860HOH     H1 5785   2.699   3.021   3.306
 1860HOH     H2 5786   2.624   2.898   3.352
 1861HOH      O 5787   3.304   1.435   1.434
 1861HOH     H1 5788   3.375   1.459   1.374
 1861HOH     H2 5789   3.244   1.382   1.382
 1862HOH      O 5790   3.038   2.408   3.278
 1862HOH     H1 5791   3.073   2.350   3.210
 1862HOH     H2 5792   2.967   2.455   3.234
 1863HOH      O 5793   0.044   0.604   2.159
 1863HOH     H1 5794   0.048   0.540   2.088
 1863HOH     H2 5795  -0.050   0.617   2.175
 1864HOH      O 5796   2.800   2.422   4.020
 1864HOH     H1 5797   2.891   2.434   3.994
 1864HOH     H2 5798   2.772   2.344   3.973
 1865HOH      O 5799   0.510   2.987   0.897
 1865HOH     H1 5800   0.583   3.035   0.936
 1865HOH     H2 5801   0.458   2.958   0.972
 1866HOH      O 5802   1.262   0.941   1.953
 1866HOH     H1 5803   1.186   0.924   2.010
 1866HOH     H2 5804   1.321   0.993   2.008
 1867HOH      O 5805   3.398   0.761   2.301
 1867HOH     H1 5806   3.409   0.754   2.207
 1867HOH     H2 5807   3.352   0.845   2.314
 1868HOH      O 5808   0.263   1.233   3.469
 1868HOH     H1 5809   0.235   1.162   3.526
 1868HOH     H2 5810   0.228   1.211   3.384
 1869HOH      O 5811   3.306   0.466   2.063
 1869HOH     H1 5812   3.378   0.404   2.050
 1869HOH     H2 5813   3.280   0.453   2.155
 1870HOH      O 5814   2.066   2.548   0.271
 1870HOH     H1 5815   2.011   2.593   0.206
 1870HOH     H2 5816   2.026   2.571   0.355
 1871HOH      O 5817   0.164   0.303   1.191
 1871HOH     H1 5818   0.096   0.274   1.251
 1871HOH     H2 5819   0.174   0.232   1.129
 1872HOH      O 5820   2.646   3.597   0.637
 1872HOH     H1 5821   2.728   3.547   0.643
 1872HOH     H2 5822   2.662   3.676   0.689
 1873HOH      O 5823   0.210   3.984   1.657
 1873HOH     H1 5824   0.167   4.068   1.640
 1873HOH     H2 5825   0.298   3.994   1.620
 1874HOH      O 5826   1.675   2.487   3.756
 1874HOH     H1 5827   1.605   2.552   3.764
 1874HOH     H2 5828   1.662   2.449   3.669
 1875HOH      O 5829   0.683   1.951   2.095
 1875HOH     H1 5830   0.714   1.994   2.016
 1875HOH     H2 5831   0.703   1.858   2.081
 1876HOH      O 5832   2.020   2.264   0.264
 1876HOH     H1 5833   2.009   2.269   0.359
 1876HOH     H2 5834   1.999   2.352   0.233
 1877HOH      O 5835   1.835   2.359   2.205
 1877HOH     H1 5836   1.774   2.396   2.269
 1877HOH     H2 5837   1.799   2.382   2.120
 1878HOH      O 5838   1.874   1.911   1.632
 1878HOH     H1 5839   1.867   1.990   1.578
 1878HOH     H2 5840   1.784   1.890   1.656
 1879HOH      O 5841   2.807   3.420   1.315
 1879HOH     H1 5842   2.867   3.483   1.276
 1879HOH     H2 5843   2.806   3.347   1.253
 1880HOH      O 5844   0.531   1.443   1.890
 1880HOH     H1 5845   0.477   1.521   1.880
 1880HOH     H2 5846   0.492   1.396   1.964
 1881HOH      O 5847   2.552   3.992   2.958
 1881HOH     H1 5848   2.564   3.967   3.050
 1881HOH     H2 5849   2.589   4.080   2.952
 1882HOH      O 5850   1.320   1.889   2.806
 1882HOH     H1 5851   1.238   1.938   2.819
 1882HOH     H2 5852   1.346   1.910   2.717
 1883HOH      O 5853   0.897   3.950   3.250
 1883HOH     H1 5854   0.881   3.928   3.342
 1883HOH     H2 5855   0.950   4.030   3.254
 1884HOH      O 5856   2.867   2.828   2.198
 1884HOH     H1 5857   2.835   2.739   2.211
 1884HOH     H2 5858   2.789   2.883   2.208
 1885HOH      O 5859   3.807   1.488   3.367
 1885HOH     H1 5860   3.790   1.576   3.336
 1885HOH     H2 5861   3.722   1.457   3.399
 1886HOH      O 5862   2.510   3.484   0.049
 1886HOH     H1 5863   2.541   3.397   0.073
 1886HOH     H2 5864   2.540   3.496  -0.041
 1887HOH      O 5865   1.047   1.170   0.765
 1887HOH     H1 5866   1.060   1.253   0.812
 1887HOH     H2 5867   1.107   1.109   0.809
 1888HOH      O 5868   0.483   2.678   2.218
 1888HOH     H1 5869   0.568   2.720   2.214
 1888HOH     H2 5870   0.471   2.640   2.131
 1889HOH      O 5871   1.405   3.826   0.730
 1889HOH     H1 5872   1.491   3.798   0.763
 1889HOH     H2 5873   1.412   3.821   0.635
 1890HOH      O 5874   2.519   2.712   2.272
 1890HOH     H1 5875   2.562   2.654   2.208
 1890HOH     H2 5876   2.564   2.796   2.261
 1891HOH      O 5877   0.503   3.256   1.905
 1891HOH     H1 5878   0.520   3.273   1.813
 1891HOH     H2 5879   0.585   3.278   1.949
 1892HOH      O 5880   0.193   0.093   0.993
 1892HOH     H1 5881   0.135   0.051   0.930
 1892HOH     H2 5882   0.272   0.115   0.943
 1893HOH      O 5883   3.401   3.336   2.727
 1893HOH     H1 5884   3.444   3.401   2.672
 1893HOH     H2 5885   3.426   3.252   2.688
 1894HOH      O 5886   1.958   0.518   2.753
 1894HOH     H1 5887   1.884   0.573   2.779
 1894HOH     H2 5888   2.033   0.553   2.801
 1895HOH      O 5889   0.424   3.329   0.246
 1895HOH     H1 5890   0.436   3.424   0.248
 1895HOH     H2 5891   0.398   3.311   0.156
 1896HOH      O 5892   1.459   0.738   3.240
 1896HOH     H1 5893   1.377   0.716   3.284
 1896HOH     H2 5894   1.520   0.670   3.266
 1897HOH      O 5895   2.915   1.592   1.564
 1897HOH     H1 5896   2.951   1.563   1.480
 1897HOH     H2 5897   2.833   1.636   1.541
 1898HOH      O 5898   2.406   1.477   1.383
 1898HOH     H1 5899   2.333   1.417   1.397
 1898HOH     H2 5900   2.439   1.456   1.296
 1899HOH      O 5901   0.822   0.236   2.531
 1899HOH     H1 5902   0.735   0.275   2.536
 1899HOH     H2 5903   0.844   0.237   2.438
 1900HOH      O 5904   2.048   1.659   2.768
 1900HOH     H1 5905   2.041   1.602   2.844
 1900HOH     H2 5906   2.009   1.742   2.798
 1901HOH      O 5907   3.245   0.723   0.769
 1901HOH     H1 5908   3.323   0.669   0.756
 1901HOH     H2 5909   3.249   0.750   0.860
 1902HOH      O 5910   2.941   0.101   2.854
 1902HOH     H1 5911   2.944   0.010   2.824
 1902HOH     H2 5912   2.944   0.153   2.774
 1903HOH      O 5913   1.100   2.571   3.028
 1903HOH     H1 5914   1.131   2.576   3.119
 1903HOH     H2 5915   1.008   2.597   3.034
 1904HOH      O 5916   0.442   0.823   2.991
 1904HOH     H1 5917   0.514   0.875   3.025
 1904HOH     H2 5918   0.426   0.858   2.903
 1905HOH      O 5919   0.349   3.640   1.535
 1905HOH     H1 5920   0.312   3.604   1.454
 1905HOH     H2 5921   0.429   3.685   1.507
 1906HOH      O 5922   1.334   2.889   0.513
 1906HOH     H1 5923   1.359   2.945   0.439
 1906HOH     H2 5924   1.377   2.929   0.589
 1907HOH      O 5925   0.560   0.378   2.538
 1907HOH     H1 5926   0.516   0.382   2.623
 1907HOH     H2 5927   0.556   0.467   2.504
 1908HOH      O 5928   0.890   2.709   1.270
 1908HOH     H1 5929   0.912   2.617   1.286
 1908HOH     H2 5930   0.819   2.727   1.332
 1909HOH      O 5931   1.526   0.923   1.655
 1909HOH     H1 5932   1.586   0.871   1.601
 1909HOH     H2 5933   1.563   0.918   1.744
 1910HOH      O 5934   1.380   1.162   0.464
 1910HOH     H1 5935   1.456   1.141   0.519
 1910HOH     H2 5936   1.418   1.195   0.383
 1911HOH      O 5937   0.682   3.145   0.712
 1911HOH     H1 5938   0.704   3.229   0.672
 1911HOH     H2 5939   0.650   3.169   0.800
 1912HOH      O 5940   2.062   0.598   0.783
 1912HOH     H1 5941   2.102   0.681   0.806
 1912HOH     H2 5942   2.112   0.532   0.832
 1913HOH      O 5943   0.011   2.840   1.316
 1913HOH     H1 5944   0.048   2.927   1.302
 1913HOH     H2 5945   0.081   2.790   1.358
 1914HOH      O 5946   1.694   3.939   0.835
 1914HOH     H1 5947   1.718   3.962   0.745
 1914HOH     H2 5948   1.771   3.892   0.868
 1915HOH      O 5949   2.291   0.331   1.536
 1915HOH     H1 5950   2.252   0.365   1.455
 1915HOH     H2 5951   2.217   0.289   1.582
 1916HOH      O 5952   0.981   0.083   2.674
 1916HOH     H1 5953   0.937   0.143   2.614
 1916HOH     H2 5954   1.041   0.033   2.619
 1917HOH      O 5955   2.939   3.676   0.934
 1917HOH     H1 5956   2.883   3.728   0.875
 1917HOH     H2 5957   2.891   3.674   1.016
 1918HOH      O 5958   0.479   2.480   2.445
 1918HOH     H1 5959   0.489   2.566   2.405
 1918HOH     H2 5960   0.395   2.483   2.490
 1919HOH      O 5961   3.728   2.520   1.853
 1919HOH     H1 5962   3.687   2.578   1.788
 1919HOH     H2 5963   3.819   2.549   1.856
 1920HOH      O 5964   1.258   0.191   1.254
 1920HOH     H1 5965   1.292   0.118   1.202
 1920HOH     H2 5966   1.210   0.245   1.191
 1921HOH      O 5967   2.050   0.575   1.177
 1921HOH     H1 5968   2.012   0.540   1.257
 1921HOH     H2 5969   2.029   0.511   1.110
 1922HOH      O 5970   0.198   1.761   3.731
 1922HOH     H1 5971   0.185   1.675   3.693
 1922HOH     H2 5972   0.143   1.761   3.810
 1923HOH      O 5973   2.096   1.473   1.639
 1923HOH     H1 5974   2.094   1.442   1.730
 1923HOH     H2 5975   2.136   1.560   1.645
 1924HOH      O 5976   1.606   1.770   2.162
 1924HOH     H1 5977   1.531   1.803   2.212
 1924HOH     H2 5978   1.679   1.827   2.188
 1925HOH      O 5979   1.089   2.550   0.167
 1925HOH     H1 5980   1.050   2.482   0.112
 1925HOH     H2 5981   1.155   2.591   0.110
 1926HOH      O 5982   2.896   3.499   0.723
 1926HOH     H1 5983   2.937   3.550   0.792
 1926HOH     H2 5984   2.965   3.441   0.691
 1927HOH      O 5985   0.230   0.894   3.978
 1927HOH     H1 5986   0.275   0.865   4.058
 1927HOH     H2 5987   0.243   0.989   3.977
 1928HOH      O 5988   3.142   3.396   0.688
 1928HOH     H1 5989   3.188   3.457   0.746
 1928HOH     H2 5990   3.211   3.361   0.632
 1929HOH      O 5991   0.237   0.117   3.864
 1929HOH     H1 5992   0.289   0.040   3.888
 1929HOH     H2 5993   0.214   0.157   3.948
 1930HOH      O 5994   0.595   3.844   3.964
 1930HOH     H1 5995   0.671   3.810   4.012
 1930HOH     H2 5996   0.608   3.814   3.874
 1931HOH      O 5997   3.140   3.819   0.718
 1931HOH     H1 5998   3.126   3.867   0.636
 1931HOH     H2 5999   3.165   3.886   0.782
 1932HOH      O 6000   1.705   0.537   3.789
 1932HOH     H1 6001   1.730   0.464   3.845
 1932HOH     H2 6002   1.610   0.542   3.797
 1933HOH      O 6003   3.701   2.713   1.003
 1933HOH     H1 6004   3.682   2.776   0.933
 1933HOH     H2 6005   3.615   2.684   1.032
 1934HOH      O 6006   0.767   1.603   0.166
 1934HOH     H1 6007   0.690   1.606   0.222
 1934HOH     H2 6008   0.777   1.510   0.144
 1935HOH      O 6009   1.872   0.697   3.362
 1935HOH     H1 6010   1.804   0.629   3.368
 1935HOH     H2 6011   1.887   0.723   3.453
 1936HOH      O 6012   0.771   2.774   2.600
 1936HOH     H1 6013   0.709   2.831   2.645
 1936HOH     H2 6014   0.857   2.804   2.631
 1937HOH      O 6015   2.780   0.428   3.687
 1937HOH     H1 6016   2.837   0.391   3.755
 1937HOH     H2 6017   2.784   0.523   3.702
 1938HOH      O 6018   3.919   3.037   2.923
 1938HOH     H1 6019   3.959   3.046   3.009
 1938HOH     H2 6020   3.991   3.051   2.861
 1939HOH      O 6021   0.824   0.887   0.857
 1939HOH     H1 6022   0.860   0.943   0.788
 1939HOH     H2 6023   0.729   0.899   0.851
 1940HOH      O 6024   3.243   2.556   0.495
 1940HOH     H1 6025   3.231   2.508   0.413
 1940HOH     H2 6026   3.168   2.532   0.548
 1941HOH      O 6027   3.904   1.230   1.957
 1941HOH     H1 6028   3.931   1.252   1.868
 1941HOH     H2 6029   3.810   1.216   1.951
 1942HOH      O 6030   3.771   1.741   3.204
 1942HOH     H1 6031   3.720   1.806   3.155
 1942HOH     H2 6032   3.849   1.728   3.150
 1943HOH      O 6033   0.550   3.075   3.417
 1943HOH     H1 6034   0.570   3.113   3.331
 1943HOH     H2 6035   0.556   2.981   3.404
 1944HOH      O 6036   2.326   2.130   1.051
 1944HOH     H1 6037   2.375   2.210   1.033
 1944HOH     H2 6038   2.310   2.133   1.146
 1945HOH      O 6039   2.406   2.120   1.986
 1945HOH     H1 6040   2.456   2.041   1.966
 1945HOH     H2 6041   2.397   2.119   2.081
 1946HOH      O 6042   2.342   1.281   0.127
 1946HOH     H1 6043   2.252   1.291   0.097
 1946HOH     H2 6044   2.378   1.211   0.073
 1947HOH      O 6045   1.571   0.439   0.652
 1947HOH     H1 6046   1.663   0.418   0.670
 1947HOH     H2 6047   1.539   0.365   0.601
 1948HOH      O 6048   1.846   0.304   0.720
 1948HOH     H1 6049   1.875   0.227   0.770
 1948HOH     H2 6050   1.898   0.376   0.756
 1949HOH      O 6051   1.540   1.738   1.895
 1949HOH     H1 6052   1.480   1.811   1.887
 1949HOH     H2 6053   1.576   1.746   1.983
 1950HOH      O 6054   1.654   2.271   0.140
 1950HOH     H1 6055   1.679   2.231   0.057
 1950HOH     H2 6056   1.675   2.364   0.130
 1951HOH      O 6057   1.473   2.512   0.237
 1951HOH     H1 6058   1.436   2.568   0.305
 1951HOH     H2 6059   1.406   2.444   0.223
 1952HOH      O 6060   3.723   1.771   0.540
 1952HOH     H1 6061   3.791   1.712   0.570
 1952HOH     H2 6062   3.767   1.855   0.528
 1953HOH      O 6063   0.415   0.882   3.730
 1953HOH     H1 6064   0.340   0.853   3.782
 1953HOH     H2 6065   0.468   0.804   3.718
 1954HOH      O 6066   1.868   0.328   3.103
 1954HOH     H1 6067   1.855   0.421   3.087
 1954HOH     H2 6068   1.857   0.318   3.197
 1955HOH      O 6069   3.005   0.414   3.815
 1955HOH     H1 6070   3.011   0.479   3.885
 1955HOH     H2 6071   3.061   0.343   3.844
 1956HOH      O 6072   3.969   3.147   0.106
 1956HOH     H1 6073   3.981   3.087   0.033
 1956HOH     H2 6074   3.882   3.185   0.093
 1957HOH      O 6075   1.640   0.885   3.893
 1957HOH     H1 6076   1.618   0.823   3.963
 1957HOH     H2 6077   1.729   0.913   3.914
 1958HOH      O 6078   2.673   1.207   1.070
 1958HOH     H1 6079   2.699   1.224   0.980
 1958HOH     H2 6080   2.659   1.112   1.074
 1959HOH      O 6081   2.040   2.287   2.365
 1959HOH     H1 6082   2.084   2.206   2.340
 1959HOH     H2 6083   1.976   2.302   2.295
 1960HOH      O 6084   3.920   3.998   3.294
 1960HOH     H1 6085   3.825   4.001   3.297
 1960HOH     H2 6086   3.948   4.009   3.385
 1961HOH      O 6087   0.174   3.358   2.641
 1961HOH     H1 6088   0.172   3.426   2.708
 1961HOH     H2 6089   0.157   3.405   2.559
 1962HOH      O 6090   2.403   1.783   2.450
 1962HOH     H1 6091   2.436   1.866   2.416
 1962HOH     H2 6092   2.479   1.724   2.446
 1963HOH      O 6093   0.338   0.836   1.201
 1963HOH     H1 6094   0.291   0.882   1.271
 1963HOH     H2 6095   0.296   0.750   1.196
 1964HOH      O 6096   1.231   3.670   0.834
 1964HOH     H1 6097   1.270   3.639   0.916
 1964HOH     H2 6098   1.285   3.745   0.808
 1965HOH      O 6099   3.634   0.198   3.892
 1965HOH     H1 6100   3.601   0.137   3.957
 1965HOH     H2 6101   3.559   0.215   3.835
 1966HOH      O 6102   2.277   0.841   3.414
 1966HOH     H1 6103   2.284   0.770   3.350
 1966HOH     H2 6104   2.247   0.916   3.364
 1967HOH      O 6105   3.834   3.981   0.412
 1967HOH     H1 6106   3.745   4.016   0.411
 1967HOH     H2 6107   3.824   3.889   0.385
 1968HOH      O 6108   3.241   0.645   1.064
 1968HOH     H1 6109   3.210   0.704   1.132
 1968HOH     H2 6110   3.325   0.611   1.097
 1969HOH      O 6111   0.514   1.930   1.197
 1969HOH     H1 6112   0.469   1.933   1.282
 1969HOH     H2 6113   0.572   2.006   1.199
 1970HOH      O 6114   2.092   1.830   2.440
 1970HOH     H1 6115   2.070   1.846   2.348
 1970HOH     H2 6116   2.018   1.867   2.488
 1971HOH      O 6117   2.170   1.070   1.479
 1971HOH     H1 6118   2.080   1.051   1.503
 1971HOH     H2 6119   2.213   1.093   1.562
 1972HOH      O 6120   0.005   1.715   1.819
 1972HOH     H1 6121  -0.041   1.693   1.900
 1972HOH     H2 6122   0.080   1.656   1.818
 1973HOH      O 6123   2.287   1.765   3.307
 1973HOH     H1 6124   2.216   1.749   3.244
 1973HOH     H2 6125   2.343   1.688   3.299
 1974HOH      O 6126   2.079   0.617   2.503
 1974HOH     H1 6127   2.163   0.655   2.526
 1974HOH     H2 6128   2.038   0.597   2.587
 1975HOH      O 6129   2.606   0.548   1.100
 1975HOH     H1 6130   2.661   0.522   1.173
 1975HOH     H2 6131   2.638   0.495   1.026
 1976HOH      O 6132   3.746   3.719   0.385
 1976HOH     H1 6133   3.656   3.717   0.417
 1976HOH     H2 6134   3.760   3.633   0.345
 1977HOH      O 6135   2.012   0.761   1.975
 1977HOH     H1 6136   1.988   0.689   1.916
 1977HOH     H2 6137   1.984   0.730   2.062
 1978HOH      O 6138   3.794   3.405   2.561
 1978HOH     H1 6139   3.792   3.310   2.550
 1978HOH     H2 6140   3.815   3.439   2.474
 1979HOH      O 6141   3.604   1.347   0.310
 1979HOH     H1 6142   3.642   1.430   0.280
 1979HOH     H2 6143   3.580   1.363   0.401
 1980HOH      O 6144   2.040   2.255   3.128
 1980HOH     H1 6145   2.100   2.236   3.200
 1980HOH     H2 6146   1.965   2.199   3.144
 1981HOH      O 6147   1.768   0.570   0.212
 1981HOH     H1 6148   1.765   0.491   0.158
 1981HOH     H2 6149   1.753   0.538   0.301
 1982HOH      O 6150   2.069   3.239   3.728
 1982HOH     H1 6151   2.087   3.302   3.798
 1982HOH     H2 6152   2.109   3.157   3.759
 1983HOH      O 6153   2.481   3.700   1.916
 1983HOH     H1 6154   2.396   3.744   1.917
 1983HOH     H2 6155   2.545   3.771   1.903
 1984HOH      O 6156   3.004   1.579   2.064
 1984HOH     H1 6157   3.016   1.555   1.972
 1984HOH     H2 6158   2.912   1.602   2.072
 1985HOH      O 6159   2.445   0.552   1.407
 1985HOH     H1 6160   2.381   0.495   1.365
 1985HOH     H2 6161   2.402   0.638   1.412
 1986HOH      O 6162   0.971   1.189   3.618
 1986HOH     H1 6163   1.031   1.240   3.672
 1986HOH     H2 6164   0.942   1.250   3.550
 1987HOH      O 6165   3.022   0.323   1.122
 1987HOH     H1 6166   3.044   0.367   1.039
 1987HOH     H2 6167   3.105   0.320   1.170
 1988HOH      O 6168   0.235   1.397   1.672
 1988HOH     H1 6169   0.325   1.368   1.661
 1988HOH     H2 6170   0.230   1.478   1.622
 1989HOH      O 6171   2.266   1.172   3.605
 1989HOH     H1 6172   2.346   1.197   3.558
 1989HOH     H2 6173   2.230   1.100   3.553
 1990HOH      O 6174   0.214   3.246   0.407
 1990HOH     H1 6175   0.284   3.261   0.344
 1990HOH     H2 6176   0.162   3.326   0.405
 1991HOH      O 6177   3.682   2.349   3.225
 1991HOH     H1 6178   3.675   2.335   3.130
 1991HOH     H2 6179   3.689   2.261   3.262
 1992HOH      O 6180   3.325   0.679   1.577
 1992HOH     H1 6181   3.319   0.633   1.661
 1992HOH     H2 6182   3.327   0.609   1.512
 1993HOH      O 6183   3.438   1.847   3.183
 1993HOH     H1 6184   3.389   1.766   3.188
 1993HOH     H2 6185   3.447   1.876   3.274
 1994HOH      O 6186   3.618   1.034   2.764
 1994HOH     H1 6187   3.637   1.041   2.858
 1994HOH     H2 6188   3.602   0.941   2.750
 1995HOH      O 6189   0.472   2.233   2.292
 1995HOH     H1 6190   0.519   2.289   2.353
 1995HOH     H2 6191   0.443   2.292   2.222
 1996HOH      O 6192   1.481   1.377   0.737
 1996HOH     H1 6193   1.419   1.427   0.789
 1996HOH     H2 6194   1.532   1.328   0.801
 1997HOH      O 6195   3.287   0.246   2.751
 1997HOH     H1 6196   3.313   0.333   2.721
 1997HOH     H2 6197   3.324   0.239   2.839
 1998HOH      O 6198   3.958   3.860   0.132
 1998HOH     H1 6199   3.959   3.909   0.049
 1998HOH     H2 6200   3.871   3.820   0.135
 1999HOH      O 6201   2.428   2.162   0.102
 1999HOH     H1 6202   2.338   2.130   0.109
 1999HOH     H2 6203   2.439   2.220   0.177
 2000HOH      O 6204   3.572   0.353   1.512
 2000HOH     H1 6205   3.520   0.272   1.506
 2000HOH     H2 6206   3.658   0.329   1.478
 2001HOH      O 6207   3.273   1.293   0.978
 2001HOH     H1 6208   3.301   1.208   0.944
 2001HOH     H2 6209   3.210   1.325   0.914
 2002HOH      O 6210   4.010   1.310   1.737
 2002HOH     H1 6211   4.099   1.323   1.706
 2002HOH     H2 6212   3.955   1.356   1.674
 2003HOH      O 6213   2.424   1.191   1.489
 2003HOH     H1 6214   2.447   1.112   1.538
 2003HOH     H2 6215   2.490   1.255   1.515
 2004HOH      O 6216   0.234   2.805   0.242
 2004HOH     H1 6217   0.164   2.740   0.250
 2004HOH     H2 6218   0.199   2.884   0.284
 2005HOH      O 6219   2.558   2.633   0.900
 2005HOH     H1 6220   2.623   2.691   0.940
 2005HOH     H2 6221   2.604   2.550   0.888
 2006HOH      O 6222   3.898   2.111   2.988
 2006HOH     H1 6223   3.851   2.178   2.939
 2006HOH     H2 6224   3.836   2.039   2.997
 2007HOH      O 6225   1.294   3.772   2.864
 2007HOH     H1 6226   1.229   3.710   2.835
 2007HOH     H2 6227   1.252   3.819   2.937
 2008HOH      O 6228   0.861   1.315   1.060
 2008HOH     H1 6229   0.841   1.222   1.058
 2008HOH     H2 6230   0.896   1.330   1.148
 2009HOH      O 6231   1.554   0.147   2.704
 2009HOH     H1 6232   1.524   0.161   2.615
 2009HOH     H2 6233   1.500   0.076   2.738
 2010HOH      O 6234   0.999   1.509   1.709
 2010HOH     H1 6235   1.010   1.517   1.614
 2010HOH     H2 6236   0.906   1.495   1.721
 2011HOH      O 6237   2.076   2.206   3.903
 2011HOH     H1 6238   2.128   2.287   3.907
 2011HOH     H2 6239   2.006   2.226   3.841
 2012HOH      O 6240   3.635   2.856   0.766
 2012HOH     H1 6241   3.665   2.773   0.729
 2012HOH     H2 6242   3.635   2.916   0.691
 2013HOH      O 6243   3.934   3.694   0.632
 2013HOH     H1 6244   3.897   3.708   0.545
 2013HOH     H2 6245   3.893   3.613   0.663
 2014HOH      O 6246   3.851   1.007   0.988
 2014HOH     H1 6247   3.880   1.067   0.921
 2014HOH     H2 6248   3.756   1.005   0.979
 2015HOH      O 6249   1.481   3.631   3.552
 2015HOH     H1 6250   1.387   3.650   3.549
 2015HOH     H2 6251   1.495   3.567   3.483
 2016HOH      O 6252   0.173   1.178   0.209
 2016HOH     H1 6253   0.083   1.211   0.210
 2016HOH     H2 6254   0.165   1.084   0.224
 2017HOH      O 6255   0.290   3.203   3.459
 2017HOH     H1 6256   0.290   3.289   3.415
 2017HOH     H2 6257   0.383   3.179   3.461
 2018HOH      O 6258   2.674   3.112   0.654
 2018HOH     H1 6259   2.631   3.063   0.724
 2018HOH     H2 6260   2.765   3.119   0.683
 2019HOH      O 6261   0.614   3.423   2.933
 2019HOH     H1 6262   0.633   3.515   2.916
 2019HOH     H2 6263   0.620   3.414   3.028
 2020HOH      O 6264   0.205   0.474   2.938
 2020HOH     H1 6265   0.151   0.400   2.911
 2020HOH     H2 6266   0.186   0.485   3.031
 2021HOH      O 6267   3.655   1.389   3.040
 2021HOH     H1 6268   3.692   1.438   2.966
 2021HOH     H2 6269   3.713   1.314   3.049
 2022HOH      O 6270   1.177   0.287   0.132
 2022HOH     H1 6271   1.141   0.373   0.153
 2022HOH     H2 6272   1.125   0.256   0.058
 2023HOH      O 6273   0.057   2.817   1.867
 2023HOH     H1 6274   0.056   2.881   1.796
 2023HOH     H2 6275   0.057   2.870   1.947
 2024HOH      O 6276   3.762   1.023   0.128
 2024HOH     H1 6277   3.819   0.948   0.149
 2024HOH     H2 6278   3.702   1.028   0.202
 2025HOH      O 6279   0.395   1.068   3.216
 2025HOH     H1 6280   0.464   1.082   3.281
 2025HOH     H2 6281   0.433   1.006   3.154
 2026HOH      O 6282   0.090   0.979   2.930
 2026HOH     H1 6283   0.078   0.884   2.928
 2026HOH     H2 6284   0.042   1.010   2.853
 2027HOH      O 6285   1.604   3.344   0.227
 2027HOH     H1 6286   1.649   3.320   0.308
 2027HOH     H2 6287   1.635   3.432   0.207
 2028HOH      O 6288   1.913   0.743   2.310
 2028HOH     H1 6289   1.822   0.745   2.341
 2028HOH     H2 6290   1.960   0.695   2.378
 2029HOH      O 6291   0.790   1.807   0.585
 2029HOH     H1 6292   0.839   1.725   0.583
 2029HOH     H2 6293   0.838   1.862   0.647
 2030HOH      O 6294   3.951   1.259   0.195
 2030HOH     H1 6295   3.909   1.344   0.210
 2030HOH     H2 6296   3.885   1.208   0.148
 2031HOH      O 6297   3.326   3.814   1.292
 2031HOH     H1 6298   3.256   3.815   1.356
 2031HOH     H2 6299   3.348   3.907   1.280
 2032HOH      O 6300   2.086   1.038   0.119
 2032HOH     H1 6301   2.113   1.086   0.040
 2032HOH     H2 6302   2.029   0.969   0.087
 2033HOH      O 6303   2.519   2.242   3.425
 2033HOH     H1 6304   2.510   2.147   3.416
 2033HOH     H2 6305   2.585   2.266   3.359
 2034HOH      O 6306   2.542   1.423   1.992
 2034HOH     H1 6307   2.484   1.346   1.995
 2034HOH     H2 6308   2.484   1.496   1.971
 2035HOH      O 6309   2.513   0.210   2.124
 2035HOH     H1 6310   2.446   0.264   2.083
 2035HOH     H2 6311   2.468   0.165   2.196
 2036HOH      O 6312   3.518   1.950   1.648
 2036HOH     H1 6313   3.578   1.930   1.576
 2036HOH     H2 6314   3.553   1.902   1.723
 2037HOH      O 6315   0.779   0.615   1.300
 2037HOH     H1 6316   0.828   0.690   1.264
 2037HOH     H2 6317   0.788   0.623   1.394
 2038HOH      O 6318   3.426   0.478   3.711
 2038HOH     H1 6319   3.420   0.515   3.799
 2038HOH     H2 6320   3.496   0.528   3.669
 2039HOH      O 6321   2.524   3.808   1.112
 2039HOH     H1 6322   2.534   3.726   1.063
 2039HOH     H2 6323   2.466   3.785   1.184
 2040HOH      O 6324   3.822   2.803   4.017
 2040HOH     H1 6325   3.881   2.872   3.989
 2040HOH     H2 6326   3.840   2.730   3.958
 2041HOH      O 6327   3.683   2.301   2.967
 2041HOH     H1 6328   3.644   2.280   2.882
 2041HOH     H2 6329   3.745   2.371   2.948
 2042HOH      O 6330   2.088   3.282   3.408
 2042HOH     H1 6331   2.062   3.265   3.498
 2042HOH     H2 6332   2.069   3.200   3.362
 2043HOH      O 6333   3.051   3.965   1.161
 2043HOH     H1 6334   3.050   3.871   1.178
 2043HOH     H2 6335   2.959   3.988   1.147
 2044HOH      O 6336   0.965   0.587   3.469
 2044HOH     H1 6337   0.918   0.597   3.386
 2044HOH     H2 6338   1.013   0.505   3.459
 2045HOH      O 6339   1.886   1.614   0.213
 2045HOH     H1 6340   1.925   1.692   0.175
 2045HOH     H2 6341   1.826   1.581   0.146
 2046HOH      O 6342   1.334   1.455   0.162
 2046HOH     H1 6343   1.381   1.435   0.243
 2046HOH     H2 6344   1.393   1.427   0.092
 2047HOH      O 6345   2.926   3.271   3.414
 2047HOH     H1 6346   2.847   3.250   3.464
 2047HOH     H2 6347   2.905   3.248   3.324
 2048HOH      O 6348   2.497   3.864   3.900
 2048HOH     H1 6349   2.520   3.850   3.992
 2048HOH     H2 6350   2.466   3.779   3.869
 2049HOH      O 6351   3.515   0.997   3.729
 2049HOH     H1 6352   3.460   1.034   3.659
 2049HOH     H2 6353   3.604   0.999   3.693
 2050HOH      O 6354   0.098   1.836   1.178
 2050HOH     H1 6355   0.008   1.866   1.164
 2050HOH     H2 6356   0.117   1.860   1.268
 2051HOH      O 6357   0.242   2.934   3.211
 2051HOH     H1 6358   0.253   3.029   3.215
 2051HOH     H2 6359   0.214   2.917   3.120
 2052HOH      O 6360   2.316   3.788   0.697
 2052HOH     H1 6361   2.349   3.838   0.622
 2052HOH     H2 6362   2.373   3.712   0.701
 2053HOH      O 6363   0.755   2.589   0.149
 2053HOH     H1 6364   0.848   2.597   0.168
 2053HOH     H2 6365   0.741   2.494   0.139
 2054HOH      O 6366   1.796   2.958   3.911
 2054HOH     H1 6367   1.816   2.888   3.849
 2054HOH     H2 6368   1.791   3.037   3.857
 2055HOH      O 6369   1.824   2.686   0.847
 2055HOH     H1 6370   1.808   2.737   0.768
 2055HOH     H2 6371   1.745   2.698   0.900
 2056HOH      O 6372   2.126   1.238   2.136
 2056HOH     H1 6373   2.156   1.212   2.223
 2056HOH     H2 6374   2.031   1.225   2.140
 2057HOH      O 6375   1.327   1.238   2.933
 2057HOH     H1 6376   1.294   1.326   2.952
 2057HOH     H2 6377   1.309   1.226   2.839
 2058HOH      O 6378   2.748   1.713   1.782
 2058HOH     H1 6379   2.680   1.686   1.721
 2058HOH     H2 6380   2.810   1.640   1.782
 2059HOH      O 6381   0.670   1.362   3.838
 2059HOH     H1 6382   0.606   1.338   3.772
 2059HOH     H2 6383   0.701   1.449   3.810
 2060HOH      O 6384   3.707   2.907   3.513
 2060HOH     H1 6385   3.691   2.871   3.426
 2060HOH     H2 6386   3.727   3.000   3.498
 2061HOH      O 6387   0.365   2.414   2.134
 2061HOH     H1 6388   0.432   2.442   2.072
 2061HOH     H2 6389   0.284   2.452   2.101
 2062HOH      O 6390   0.655   3.664   1.215
 2062HOH     H1 6391   0.581   3.690   1.160
 2062HOH     H2 6392   0.706   3.604   1.160
 2063HOH      O 6393   0.273   1.796   2.884
 2063HOH     H1 6394   0.218   1.847   2.945
 2063HOH     H2 6395   0.350   1.851   2.870
 2064HOH      O 6396   1.172   0.532   0.733
 2064HOH     H1 6397   1.248   0.589   0.722
 2064HOH     H2 6398   1.117   0.578   0.797
 2065HOH      O 6399   2.330   3.024   3.426
 2065HOH     H1 6400   2.362   2.936   3.404
 2065HOH     H2 6401   2.347   3.075   3.348
 2066HOH      O 6402   2.139   2.827   1.715
 2066HOH     H1 6403   2.049   2.860   1.707
 2066HOH     H2 6404   2.130   2.732   1.713
 2067HOH      O 6405   3.662   2.200   0.725
 2067HOH     H1 6406   3.616   2.219   0.644
 2067HOH     H2 6407   3.658   2.105   0.734
 2068HOH      O 6408   2.840   0.031   1.641
 2068HOH     H1 6409   2.790   0.063   1.717
 2068HOH     H2 6410   2.900  -0.033   1.677
 2069HOH      O 6411   1.480   1.686   3.476
 2069HOH     H1 6412   1.428   1.611   3.448
 2069HOH     H2 6413   1.469   1.751   3.407
 2070HOH      O 6414   0.607   3.014   1.249
 2070HOH     H1 6415   0.701   3.024   1.263
 2070HOH     H2 6416   0.567   3.048   1.329
 2071HOH      O 6417   3.291   0.318   1.198
 2071HOH     H1 6418   3.332   0.391   1.246
 2071HOH     H2 6419   3.359   0.289   1.137
 2072HOH      O 6420   2.147   3.671   0.893
 2072HOH     H1 6421   2.180   3.722   0.819
 2072HOH     H2 6422   2.225   3.646   0.942
 2073HOH      O 6423   3.322   0.514   3.181
 2073HOH     H1 6424   3.245   0.522   3.126
 2073HOH     H2 6425   3.307   0.575   3.253
 2074HOH      O 6426   3.933   0.636   3.057
 2074HOH     H1 6427   4.026   0.615   3.053
 2074HOH     H2 6428   3.909   0.622   3.149
 2075HOH      O 6429   2.065   2.972   0.343
 2075HOH     H1 6430   2.030   2.959   0.255
 2075HOH     H2 6431   2.142   3.027   0.330
 2076HOH      O 6432   0.681   1.641   2.055
 2076HOH     H1 6433   0.724   1.686   1.982
 2076HOH     H2 6434   0.695   1.548   2.038
 2077HOH      O 6435   1.425   1.321   3.952
 2077HOH     H1 6436   1.441   1.370   3.871
 2077HOH     H2 6437   1.368   1.249   3.925
 2078HOH      O 6438   1.254   0.926   1.205
 2078HOH     H1 6439   1.275   0.945   1.296
 2078HOH     H2 6440   1.321   0.972   1.155
 2079HOH      O 6441   2.847   1.608   1.007
 2079HOH     H1 6442   2.895   1.667   0.949
 2079HOH     H2 6443   2.846   1.524   0.960
 2080HOH      O 6444   0.278   1.275   1.262
 2080HOH     H1 6445   0.304   1.365   1.245
 2080HOH     H2 6446   0.319   1.224   1.192
 2081HOH      O 6447   1.322   2.603   0.441
 2081HOH     H1 6448   1.299   2.696   0.439
 2081HOH     H2 6449   1.238   2.557   0.435
 2082HOH      O 6450   3.976   0.342   0.916
 2082HOH     H1 6451   4.010   0.384   0.995
 2082HOH     H2 6452   4.044   0.280   0.891
 2083HOH      O 6453   4.023   0.034   3.051
 2083HOH     H1 6454   3.988   0.028   3.140
 2083HOH     H2 6455   3.997  -0.049   3.010
 2084HOH      O 6456   1.737   3.910   3.436
 2084HOH     H1 6457   1.755   3.833   3.382
 2084HOH     H2 6458   1.784   3.894   3.518
 2085HOH      O 6459   2.759   2.354   2.524
 2085HOH     H1 6460   2.825   2.327   2.460
 2085HOH     H2 6461   2.676   2.330   2.484
 2086HOH      O 6462   1.180   3.155   0.130
 2086HOH     H1 6463   1.085   3.156   0.126
 2086HOH     H2 6464   1.206   3.245   0.107
 2087HOH      O 6465   1.822   3.659   0.585
 2087HOH     H1 6466   1.841   3.569   0.557
 2087HOH     H2 6467   1.783   3.649   0.672
 2088HOH      O 6468   1.251   2.688   4.025
 2088HOH     H1 6469   1.241   2.631   3.949
 2088HOH     H2 6470   1.346   2.698   4.035
 2089HOH      O 6471   1.985   0.181   0.454
 2089HOH     H1 6472   2.023   0.187   0.366
 2089HOH     H2 6473   1.985   0.088   0.475
 2090HOH      O 6474   1.064   1.561   3.532
 2090HOH     H1 6475   1.091   1.543   3.622
 2090HOH     H2 6476   1.007   1.487   3.510
 2091HOH      O 6477   1.963   3.607   1.408
 2091HOH     H1 6478   2.059   3.611   1.417
 2091HOH     H2 6479   1.930   3.654   1.484
 2092HOH      O 6480   2.073   3.046   3.243
 2092HOH     H1 6481   2.161   3.025   3.211
 2092HOH     H2 6482   2.054   2.980   3.308
 2093HOH      O 6483   2.901   2.340   2.308
 2093HOH     H1 6484   2.971   2.379   2.256
 2093HOH     H2 6485   2.896   2.249   2.278
 2094HOH      O 6486   1.493   3.680   3.023
 2094HOH     H1 6487   1.459   3.730   2.949
 2094HOH     H2 6488   1.498   3.743   3.094
 2095HOH      O 6489   1.606   1.273   2.651
 2095HOH     H1 6490   1.513   1.271   2.630
 2095HOH     H2 6491   1.631   1.365   2.642
 2096HOH      O 6492   0.415   2.680   0.405
 2096HOH     H1 6493   0.366   2.726   0.337
 2096HOH     H2 6494   0.429   2.745   0.473
 2097HOH      O 6495   3.927   1.668   0.915
 2097HOH     H1 6496   3.949   1.626   0.998
 2097HOH     H2 6497   3.840   1.704   0.928
 2098HOH      O 6498   0.654   1.027   2.821
 2098HOH     H1 6499   0.681   1.008   2.731
 2098HOH     H2 6500   0.559   1.037   2.816
 2099HOH      O 6501   2.438   1.081   4.026
 2099HOH     H1 6502   2.357   1.095   3.977
 2099HOH     H2 6503   2.506   1.081   3.958
 2100HOH      O 6504   2.314   3.033   3.800
 2100HOH     H1 6505   2.322   3.079   3.717
 2100HOH     H2 6506   2.294   2.943   3.776
 2101HOH      O 6507   2.710   1.459   3.435
 2101HOH     H1 6508   2.664   1.541   3.453
 2101HOH     H2 6509   2.758   1.476   3.354
 2102HOH      O 6510   1.640   3.678   1.100
 2102HOH     H1 6511   1.647   3.646   1.010
 2102HOH     H2 6512   1.595   3.607   1.147
 2103HOH      O 6513   3.071   1.111   3.635
 2103HOH     H1 6514   3.074   1.131   3.729
 2103HOH     H2 6515   3.047   1.194   3.594
 2104HOH      O 6516   1.522   2.886   3.548
 2104HOH     H1 6517   1.462   2.943   3.595
 2104HOH     H2 6518   1.475   2.864   3.467
 2105HOH      O 6519   1.499   0.857   2.281
 2105HOH     H1 6520   1.483   0.942   2.241
 2105HOH     H2 6521   1.492   0.794   2.209
 2106HOH      O 6522   2.668   0.303   0.931
 2106HOH     H1 6523   2.595   0.254   0.895
 2106HOH     H2 6524   2.705   0.246   0.998
 2107HOH      O 6525   3.881   1.905   1.937
 2107HOH     H1 6526   3.954   1.884   1.879
 2107HOH     H2 6527   3.919   1.965   2.002
 2108HOH      O 6528   3.732   0.143   2.987
 2108HOH     H1 6529   3.762   0.215   2.931
 2108HOH     H2 6530   3.773   0.065   2.948
 2109HOH      O 6531   2.149   3.755   1.672
 2109HOH     H1 6532   2.163   3.671   1.628
 2109HOH     H2 6533   2.121   3.814   1.602
   4.04076   4.04076   4.04076   0.00000   0.00000   0.00000   0.00000   0.00000   0.00000
