Protein in water Generated with MDTraj
 5889
    1TYR      N    1   0.933   3.017   1.906
    1TYR     H1    2   0.867   3.011   1.986
    1TYR     H2    3   0.991   2.931   1.914
    1TYR     H3    4   0.986   3.105   1.926
    1TYR     CA    5   0.852   3.028   1.786
    1TYR     HA    6   0.790   2.939   1.789
    1TYR     CB    7   0.770   3.159   1.815
    1TYR    HB1    8   0.733   3.155   1.920
    1TYR    HB2    9   0.819   3.257   1.797
    1TYR     CG   10   0.649   3.158   1.725
    1TYR    CD1   11   0.642   3.249   1.616
    1TYR    HD1   12   0.721   3.323   1.613
    1TYR    CE1   13   0.542   3.239   1.523
    1TYR    HE1   14   0.537   3.319   1.450
    1TYR     CZ   15   0.451   3.139   1.526
    1TYR     OH   16   0.345   3.142   1.437
    1TYR     HH   17   0.391   3.137   1.353
    1TYR    CD2   18   0.560   3.055   1.725
    1TYR    HD2   19   0.566   2.982   1.805
    1TYR    CE2   20   0.454   3.050   1.629
    1TYR    HE2   21   0.385   2.968   1.641
    1TYR      C   22   0.947   3.028   1.662
    1TYR      O   23   1.069   3.008   1.663
    2TYR      N   24   0.891   3.047   1.541
    2TYR     HN   25   0.797   3.079   1.529
    2TYR     CA   26   0.971   3.061   1.418
    2TYR     HA   27   1.041   2.979   1.424
    2TYR     CB   28   0.871   3.032   1.300
    2TYR    HB1   29   0.834   2.933   1.336
    2TYR    HB2   30   0.792   3.110   1.291
    2TYR     CG   31   0.937   3.004   1.167
    2TYR    CD1   32   0.899   3.093   1.067
    2TYR    HD1   33   0.833   3.175   1.093
    2TYR    CE1   34   0.959   3.077   0.937
    2TYR    HE1   35   0.949   3.156   0.864
    2TYR     CZ   36   1.035   2.965   0.910
    2TYR     OH   37   1.090   2.950   0.783
    2TYR     HH   38   1.075   2.859   0.754
    2TYR    CD2   39   1.020   2.894   1.139
    2TYR    HD2   40   1.037   2.812   1.207
    2TYR    CE2   41   1.065   2.870   1.006
    2TYR    HE2   42   1.134   2.790   0.984
    2TYR      C   43   1.041   3.188   1.390
    2TYR      O   44   0.994   3.302   1.411
    3ASP      N   45   1.161   3.180   1.338
    3ASP     HN   46   1.217   3.098   1.347
    3ASP     CA   47   1.239   3.285   1.280
    3ASP     HA   48   1.211   3.385   1.310
    3ASP     CB   49   1.382   3.265   1.326
    3ASP    HB1   50   1.397   3.267   1.436
    3ASP    HB2   51   1.415   3.165   1.290
    3ASP     CG   52   1.472   3.374   1.267
    3ASP    OD1   53   1.449   3.488   1.297
    3ASP    OD2   54   1.576   3.338   1.207
    3ASP      C   55   1.241   3.276   1.129
    3ASP      O   56   1.287   3.175   1.072
    4PRO      N   57   1.196   3.380   1.054
    4PRO     CD   58   1.100   3.478   1.106
    4PRO    HD1   59   1.148   3.575   1.130
    4PRO    HD2   60   1.035   3.448   1.192
    4PRO     CA   61   1.193   3.373   0.909
    4PRO     HA   62   1.146   3.283   0.870
    4PRO     CB   63   1.102   3.485   0.865
    4PRO    HB1   64   1.152   3.583   0.852
    4PRO    HB2   65   1.051   3.447   0.773
    4PRO     CG   66   1.006   3.484   0.985
    4PRO    HG1   67   0.939   3.572   0.997
    4PRO    HG2   68   0.953   3.387   0.978
    4PRO      C   69   1.326   3.385   0.853
    4PRO      O   70   1.346   3.358   0.733
    5GLU      N   71   1.424   3.442   0.932
    5GLU     HN   72   1.418   3.482   1.023
    5GLU     CA   73   1.561   3.450   0.876
    5GLU     HA   74   1.561   3.504   0.783
    5GLU     CB   75   1.638   3.551   0.965
    5GLU    HB1   76   1.577   3.644   0.968
    5GLU    HB2   77   1.637   3.507   1.067
    5GLU     CG   78   1.775   3.585   0.930
    5GLU    HG1   79   1.829   3.489   0.917
    5GLU    HG2   80   1.793   3.630   0.830
    5GLU     CD   81   1.845   3.670   1.034
    5GLU    OE1   82   1.830   3.794   1.029
    5GLU    OE2   83   1.926   3.607   1.108
    5GLU      C   84   1.642   3.330   0.861
    5GLU      O   85   1.678   3.295   0.749
    6THR      N   86   1.671   3.262   0.973
    6THR     HN   87   1.640   3.295   1.062
    6THR     CA   88   1.736   3.130   0.985
    6THR     HA   89   1.824   3.141   0.924
    6THR     CB   90   1.788   3.098   1.125
    6THR     HB   91   1.836   2.998   1.130
    6THR    OG1   92   1.694   3.103   1.237
    6THR    HG1   93   1.657   3.190   1.253
    6THR    CG2   94   1.897   3.202   1.155
    6THR   HG21   95   1.860   3.306   1.139
    6THR   HG22   96   1.934   3.191   1.258
    6THR   HG23   97   1.982   3.189   1.084
    6THR      C   98   1.667   3.007   0.931
    6THR      O   99   1.732   2.918   0.880
    7GLY      N  100   1.531   3.005   0.936
    7GLY     HN  101   1.480   3.075   0.987
    7GLY     CA  102   1.452   2.891   0.891
    7GLY    HA1  103   1.357   2.929   0.857
    7GLY    HA2  104   1.499   2.840   0.808
    7GLY      C  105   1.433   2.792   1.008
    7GLY      O  106   1.421   2.669   0.987
    8THR      N  107   1.432   2.843   1.133
    8THR     HN  108   1.440   2.941   1.151
    8THR     CA  109   1.447   2.761   1.255
    8THR     HA  110   1.436   2.657   1.229
    8THR     CB  111   1.578   2.781   1.326
    8THR     HB  112   1.596   2.884   1.361
    8THR    OG1  113   1.682   2.746   1.242
    8THR    HG1  114   1.759   2.765   1.296
    8THR    CG2  115   1.589   2.677   1.436
    8THR   HG21  116   1.548   2.717   1.532
    8THR   HG22  117   1.520   2.593   1.414
    8THR   HG23  118   1.687   2.630   1.460
    8THR      C  119   1.337   2.796   1.356
    8THR      O  120   1.298   2.914   1.378
    9TRP      N  121   1.284   2.696   1.423
    9TRP     HN  122   1.291   2.601   1.396
    9TRP     CA  123   1.181   2.716   1.524
    9TRP     HA  124   1.131   2.812   1.527
    9TRP     CB  125   1.086   2.599   1.521
    9TRP    HB1  126   1.143   2.504   1.511
    9TRP    HB2  127   1.033   2.587   1.618
    9TRP     CG  128   0.986   2.602   1.403
    9TRP    CD1  129   1.000   2.556   1.273
    9TRP    HD1  130   1.087   2.509   1.231
    9TRP    NE1  131   0.884   2.576   1.201
    9TRP    HE1  132   0.853   2.520   1.128
    9TRP    CE2  133   0.786   2.628   1.284
    9TRP    CD2  134   0.848   2.648   1.409
    9TRP    CE3  135   0.775   2.695   1.522
    9TRP    HE3  136   0.832   2.722   1.610
    9TRP    CZ3  137   0.637   2.719   1.503
    9TRP    HZ3  138   0.585   2.741   1.595
    9TRP    CZ2  139   0.653   2.662   1.270
    9TRP    HZ2  140   0.601   2.659   1.176
    9TRP    CH2  141   0.576   2.690   1.384
    9TRP    HH2  142   0.472   2.715   1.374
    9TRP      C  143   1.256   2.709   1.659
    9TRP      O  144   1.309   2.607   1.691
   10TYR      N  145   1.263   2.821   1.734
   10TYR     HN  146   1.202   2.896   1.710
   10TYR     CA  147   1.320   2.821   1.865
   10TYR     HA  148   1.401   2.751   1.877
   10TYR     CB  149   1.400   2.959   1.877
   10TYR    HB1  150   1.331   3.044   1.855
   10TYR    HB2  151   1.457   2.967   1.972
   10TYR     CG  152   1.511   2.972   1.775
   10TYR    CD1  153   1.633   2.898   1.790
   10TYR    HD1  154   1.646   2.831   1.874
   10TYR    CE1  155   1.735   2.906   1.695
   10TYR    HE1  156   1.826   2.850   1.708
   10TYR     CZ  157   1.722   2.998   1.587
   10TYR     OH  158   1.831   3.014   1.490
   10TYR     HH  159   1.786   3.042   1.410
   10TYR    CD2  160   1.493   3.057   1.662
   10TYR    HD2  161   1.401   3.112   1.651
   10TYR    CE2  162   1.603   3.071   1.575
   10TYR    HE2  163   1.594   3.144   1.496
   10TYR      C  164   1.212   2.803   1.978
   10TYR    OT1  165   1.087   2.814   1.949
   10TYR    OT2  166   1.242   2.774   2.097
   11SOL     OW  167   0.923   2.673   3.146
   11SOL    HW1  168   0.993   2.655   3.082
   11SOL    HW2  169   0.844   2.678   3.093
   12SOL     OW  170   0.753   2.847   2.427
   12SOL    HW1  171   0.808   2.911   2.473
   12SOL    HW2  172   0.784   2.762   2.458
   13SOL     OW  173   3.442   2.995   3.387
   13SOL    HW1  174   3.476   2.970   3.474
   13SOL    HW2  175   3.426   3.089   3.394
   14SOL     OW  176   0.321   0.414   0.585
   14SOL    HW1  177   0.272   0.332   0.594
   14SOL    HW2  178   0.406   0.387   0.551
   15SOL     OW  179   1.716   1.910   0.619
   15SOL    HW1  180   1.738   1.971   0.549
   15SOL    HW2  181   1.796   1.905   0.672
   16SOL     OW  182   0.135   3.705   0.299
   16SOL    HW1  183   0.044   3.687   0.274
   16SOL    HW2  184   0.172   3.619   0.318
   17SOL     OW  185   0.430   2.162   2.648
   17SOL    HW1  186   0.343   2.203   2.648
   17SOL    HW2  187   0.484   2.223   2.597
   18SOL     OW  188   3.749   1.770   3.271
   18SOL    HW1  189   3.745   1.747   3.178
   18SOL    HW2  190   3.657   1.777   3.297
   19SOL     OW  191   0.585   2.205   1.147
   19SOL    HW1  192   0.663   2.259   1.134
   19SOL    HW2  193   0.615   2.132   1.201
   20SOL     OW  194   2.834   2.502   2.175
   20SOL    HW1  195   2.859   2.453   2.096
   20SOL    HW2  196   2.741   2.481   2.188
   21SOL     OW  197   1.286   2.298   0.088
   21SOL    HW1  198   1.282   2.216   0.136
   21SOL    HW2  199   1.373   2.298   0.049
   22SOL     OW  200   1.536   3.926   2.563
   22SOL    HW1  201   1.616   3.874   2.573
   22SOL    HW2  202   1.554   3.985   2.490
   23SOL     OW  203   2.454   2.098   0.242
   23SOL    HW1  204   2.546   2.109   0.218
   23SOL    HW2  205   2.416   2.185   0.232
   24SOL     OW  206   3.109   2.256   0.877
   24SOL    HW1  207   3.114   2.225   0.967
   24SOL    HW2  208   3.121   2.351   0.884
   25SOL     OW  209   1.012   0.565   2.094
   25SOL    HW1  210   1.084   0.608   2.141
   25SOL    HW2  211   1.056   0.517   2.023
   26SOL     OW  212   3.381   0.638   1.588
   26SOL    HW1  213   3.348   0.599   1.670
   26SOL    HW2  214   3.388   0.564   1.528
   27SOL     OW  215   1.297   3.730   1.535
   27SOL    HW1  216   1.287   3.823   1.555
   27SOL    HW2  217   1.209   3.700   1.513
   28SOL     OW  218   1.816   1.072   2.676
   28SOL    HW1  219   1.851   1.122   2.602
   28SOL    HW2  220   1.724   1.096   2.679
   29SOL     OW  221   2.750   2.133   3.719
   29SOL    HW1  222   2.686   2.066   3.692
   29SOL    HW2  223   2.697   2.209   3.740
   30SOL     OW  224   3.633   3.451   2.012
   30SOL    HW1  225   3.559   3.391   2.011
   30SOL    HW2  226   3.710   3.395   2.012
   31SOL     OW  227   0.635   3.727   0.089
   31SOL    HW1  228   0.723   3.764   0.101
   31SOL    HW2  229   0.588   3.793   0.038
   32SOL     OW  230   2.536   3.696   1.116
   32SOL    HW1  231   2.449   3.732   1.102
   32SOL    HW2  232   2.591   3.772   1.136
   33SOL     OW  233   1.289   2.321   0.804
   33SOL    HW1  234   1.378   2.353   0.791
   33SOL    HW2  235   1.234   2.383   0.756
   34SOL     OW  236   0.674   0.643   2.256
   34SOL    HW1  237   0.663   0.718   2.313
   34SOL    HW2  238   0.721   0.578   2.309
   35SOL     OW  239   1.892   0.782   2.495
   35SOL    HW1  240   1.825   0.767   2.562
   35SOL    HW2  241   1.942   0.700   2.492
   36SOL     OW  242   3.080   1.498   1.363
   36SOL    HW1  243   3.053   1.414   1.325
   36SOL    HW2  244   3.169   1.481   1.395
   37SOL     OW  245   1.595   2.143   3.236
   37SOL    HW1  246   1.620   2.058   3.201
   37SOL    HW2  247   1.616   2.205   3.165
   38SOL     OW  248   2.607   1.061   3.710
   38SOL    HW1  249   2.615   0.975   3.667
   38SOL    HW2  250   2.643   1.047   3.797
   39SOL     OW  251   2.100   2.219   0.397
   39SOL    HW1  252   2.108   2.257   0.310
   39SOL    HW2  253   2.109   2.293   0.457
   40SOL     OW  254   1.592   1.081   0.641
   40SOL    HW1  255   1.562   1.041   0.559
   40SOL    HW2  256   1.530   1.153   0.657
   41SOL     OW  257   2.412   1.444   2.062
   41SOL    HW1  258   2.427   1.480   1.975
   41SOL    HW2  259   2.455   1.359   2.061
   42SOL     OW  260   1.360   0.601   3.245
   42SOL    HW1  261   1.443   0.574   3.284
   42SOL    HW2  262   1.299   0.604   3.319
   43SOL     OW  263   1.535   1.113   2.764
   43SOL    HW1  264   1.499   1.062   2.691
   43SOL    HW2  265   1.462   1.125   2.824
   44SOL     OW  266   3.573   2.944  -0.006
   44SOL    HW1  267   3.653   2.995  -0.016
   44SOL    HW2  268   3.534   2.975   0.076
   45SOL     OW  269   3.675   1.580   0.269
   45SOL    HW1  270   3.706   1.668   0.287
   45SOL    HW2  271   3.590   1.575   0.313
   46SOL     OW  272   1.279   0.730   2.618
   46SOL    HW1  273   1.199   0.699   2.576
   46SOL    HW2  274   1.261   0.723   2.712
   47SOL     OW  275   2.855   2.429   3.132
   47SOL    HW1  276   2.771   2.420   3.178
   47SOL    HW2  277   2.884   2.518   3.151
   48SOL     OW  278   2.594   0.168   1.560
   48SOL    HW1  279   2.579   0.183   1.653
   48SOL    HW2  280   2.663   0.102   1.557
   49SOL     OW  281   0.637   0.639   3.561
   49SOL    HW1  282   0.724   0.651   3.522
   49SOL    HW2  283   0.653   0.639   3.656
   50SOL     OW  284   2.566   3.016   1.747
   50SOL    HW1  285   2.639   3.078   1.751
   50SOL    HW2  286   2.494   3.060   1.793
   51SOL     OW  287   1.594   3.342   1.782
   51SOL    HW1  288   1.540   3.420   1.772
   51SOL    HW2  289   1.542   3.272   1.743
   52SOL     OW  290   2.931   3.034   2.294
   52SOL    HW1  291   3.007   3.040   2.352
   52SOL    HW2  292   2.903   2.942   2.300
   53SOL     OW  293   3.498   2.106   3.543
   53SOL    HW1  294   3.560   2.095   3.470
   53SOL    HW2  295   3.417   2.134   3.501
   54SOL     OW  296   2.858   0.906   3.233
   54SOL    HW1  297   2.778   0.903   3.285
   54SOL    HW2  298   2.926   0.935   3.294
   55SOL     OW  299   0.604   2.112   2.856
   55SOL    HW1  300   0.533   2.050   2.839
   55SOL    HW2  301   0.651   2.119   2.773
   56SOL     OW  302   2.196   1.332   3.512
   56SOL    HW1  303   2.237   1.402   3.564
   56SOL    HW2  304   2.117   1.373   3.475
   57SOL     OW  305   3.655   1.162   3.299
   57SOL    HW1  306   3.595   1.232   3.325
   57SOL    HW2  307   3.618   1.083   3.338
   58SOL     OW  308   2.583   0.491   0.869
   58SOL    HW1  309   2.493   0.524   0.873
   58SOL    HW2  310   2.575   0.409   0.820
   59SOL     OW  311   0.336   1.768   3.282
   59SOL    HW1  312   0.270   1.738   3.221
   59SOL    HW2  313   0.417   1.727   3.252
   60SOL     OW  314   3.450   3.842   1.182
   60SOL    HW1  315   3.369   3.804   1.215
   60SOL    HW2  316   3.423   3.922   1.137
   61SOL     OW  317   1.910   3.459   0.050
   61SOL    HW1  318   1.959   3.404   0.111
   61SOL    HW2  319   1.823   3.468   0.090
   62SOL     OW  320   0.466   2.962   0.892
   62SOL    HW1  321   0.468   3.005   0.977
   62SOL    HW2  322   0.375   2.970   0.863
   63SOL     OW  323   2.836   1.003   1.363
   63SOL    HW1  324   2.821   1.060   1.438
   63SOL    HW2  325   2.822   0.914   1.396
   64SOL     OW  326   0.683   2.400   3.251
   64SOL    HW1  327   0.748   2.329   3.258
   64SOL    HW2  328   0.674   2.414   3.157
   65SOL     OW  329   2.691   2.393   0.377
   65SOL    HW1  330   2.784   2.413   0.370
   65SOL    HW2  331   2.681   2.308   0.334
   66SOL     OW  332   2.141   1.784   3.377
   66SOL    HW1  333   2.138   1.756   3.469
   66SOL    HW2  334   2.058   1.756   3.341
   67SOL     OW  335   0.715   2.729   2.953
   67SOL    HW1  336   0.739   2.800   2.894
   67SOL    HW2  337   0.638   2.762   3.000
   68SOL     OW  338   1.226   0.716   1.148
   68SOL    HW1  339   1.239   0.633   1.194
   68SOL    HW2  340   1.154   0.699   1.088
   69SOL     OW  341   1.677   3.863   1.327
   69SOL    HW1  342   1.730   3.784   1.335
   69SOL    HW2  343   1.739   3.933   1.308
   70SOL     OW  344   2.152   1.242   0.831
   70SOL    HW1  345   2.151   1.232   0.736
   70SOL    HW2  346   2.220   1.180   0.861
   71SOL     OW  347   0.281   1.923   1.267
   71SOL    HW1  348   0.339   1.959   1.200
   71SOL    HW2  349   0.318   1.837   1.287
   72SOL     OW  350   1.005   1.733   2.903
   72SOL    HW1  351   1.040   1.711   2.817
   72SOL    HW2  352   1.020   1.655   2.956
   73SOL     OW  353   3.803   3.347   0.225
   73SOL    HW1  354   3.727   3.357   0.282
   73SOL    HW2  355   3.876   3.331   0.285
   74SOL     OW  356   3.090   3.501   0.048
   74SOL    HW1  357   3.049   3.489  -0.038
   74SOL    HW2  358   3.158   3.434   0.051
   75SOL     OW  359   3.715   3.765   2.132
   75SOL    HW1  360   3.799   3.809   2.121
   75SOL    HW2  361   3.734   3.673   2.115
   76SOL     OW  362   3.244   3.360   2.686
   76SOL    HW1  363   3.166   3.366   2.742
   76SOL    HW2  364   3.318   3.368   2.746
   77SOL     OW  365   3.808   3.518   3.165
   77SOL    HW1  366   3.791   3.602   3.207
   77SOL    HW2  367   3.884   3.483   3.212
   78SOL     OW  368   1.495   1.908   3.742
   78SOL    HW1  369   1.445   1.840   3.698
   78SOL    HW2  370   1.438   1.985   3.741
   79SOL     OW  371   3.476   1.303   0.661
   79SOL    HW1  372   3.521   1.370   0.712
   79SOL    HW2  373   3.383   1.322   0.672
   80SOL     OW  374   1.576   1.012   0.919
   80SOL    HW1  375   1.573   1.022   0.824
   80SOL    HW2  376   1.484   1.006   0.946
   81SOL     OW  377  -0.002   0.348   3.083
   81SOL    HW1  378   0.087   0.315   3.067
   81SOL    HW2  379  -0.057   0.298   3.023
   82SOL     OW  380   2.384   0.053   1.425
   82SOL    HW1  381   2.365  -0.023   1.478
   82SOL    HW2  382   2.452   0.100   1.473
   83SOL     OW  383   0.310   0.659   2.936
   83SOL    HW1  384   0.372   0.714   2.983
   83SOL    HW2  385   0.225   0.679   2.975
   84SOL     OW  386   2.487   2.009   3.756
   84SOL    HW1  387   2.440   2.020   3.673
   84SOL    HW2  388   2.421   2.025   3.823
   85SOL     OW  389   1.341   3.731   1.267
   85SOL    HW1  390   1.388   3.648   1.271
   85SOL    HW2  391   1.360   3.773   1.351
   86SOL     OW  392   1.005   0.308   2.459
   86SOL    HW1  393   1.062   0.381   2.483
   86SOL    HW2  394   1.053   0.262   2.390
   87SOL     OW  395   1.979   0.744   2.850
   87SOL    HW1  396   1.906   0.709   2.798
   87SOL    HW2  397   1.948   0.829   2.881
   88SOL     OW  398   3.024   3.374   0.717
   88SOL    HW1  399   3.036   3.281   0.697
   88SOL    HW2  400   2.946   3.376   0.772
   89SOL     OW  401   3.769   2.163   2.513
   89SOL    HW1  402   3.780   2.132   2.423
   89SOL    HW2  403   3.715   2.242   2.504
   90SOL     OW  404   2.445   0.942   2.545
   90SOL    HW1  405   2.429   0.854   2.511
   90SOL    HW2  406   2.400   1.001   2.484
   91SOL     OW  407   1.589   0.436   0.556
   91SOL    HW1  408   1.546   0.516   0.586
   91SOL    HW2  409   1.537   0.365   0.594
   92SOL     OW  410   0.690   3.275   3.770
   92SOL    HW1  411   0.609   3.289   3.819
   92SOL    HW2  412   0.711   3.183   3.785
   93SOL     OW  413   2.627   3.936   1.267
   93SOL    HW1  414   2.613   3.871   1.337
   93SOL    HW2  415   2.539   3.965   1.243
   94SOL     OW  416   3.084   3.956   3.447
   94SOL    HW1  417   3.122   3.880   3.404
   94SOL    HW2  418   3.123   3.956   3.535
   95SOL     OW  419   1.725   3.685   1.575
   95SOL    HW1  420   1.705   3.650   1.488
   95SOL    HW2  421   1.711   3.610   1.634
   96SOL     OW  422   2.465   2.647   3.053
   96SOL    HW1  423   2.517   2.567   3.044
   96SOL    HW2  424   2.379   2.617   3.080
   97SOL     OW  425   2.251   0.592   1.125
   97SOL    HW1  426   2.183   0.655   1.150
   97SOL    HW2  427   2.315   0.597   1.196
   98SOL     OW  428   0.727   3.141   0.570
   98SOL    HW1  429   0.746   3.049   0.592
   98SOL    HW2  430   0.806   3.171   0.525
   99SOL     OW  431   0.238   0.495   3.382
   99SOL    HW1  432   0.303   0.517   3.314
   99SOL    HW2  433   0.289   0.491   3.463
  100SOL     OW  434   2.785   3.299   0.037
  100SOL    HW1  435   2.726   3.357   0.085
  100SOL    HW2  436   2.828   3.355  -0.027
  101SOL     OW  437   2.337   1.496   3.672
  101SOL    HW1  438   2.333   1.440   3.749
  101SOL    HW2  439   2.389   1.571   3.700
  102SOL     OW  440   0.897   0.770   0.316
  102SOL    HW1  441   0.850   0.699   0.271
  102SOL    HW2  442   0.889   0.748   0.409
  103SOL     OW  443   2.198   3.753   2.918
  103SOL    HW1  444   2.264   3.770   2.851
  103SOL    HW2  445   2.207   3.825   2.980
  104SOL     OW  446   3.384   1.752   0.225
  104SOL    HW1  447   3.338   1.697   0.288
  104SOL    HW2  448   3.319   1.770   0.157
  105SOL     OW  449   2.466   0.111   0.913
  105SOL    HW1  450   2.407   0.158   0.855
  105SOL    HW2  451   2.436   0.133   1.001
  106SOL     OW  452   3.535   0.887   1.673
  106SOL    HW1  453   3.475   0.825   1.631
  106SOL    HW2  454   3.602   0.904   1.607
  107SOL     OW  455   1.161   3.629   2.993
  107SOL    HW1  456   1.130   3.649   2.905
  107SOL    HW2  457   1.087   3.650   3.050
  108SOL     OW  458   2.544   2.537   2.693
  108SOL    HW1  459   2.501   2.570   2.614
  108SOL    HW2  460   2.629   2.581   2.694
  109SOL     OW  461   2.452   3.210   0.304
  109SOL    HW1  462   2.523   3.202   0.367
  109SOL    HW2  463   2.494   3.200   0.218
  110SOL     OW  464   3.520   1.766   2.032
  110SOL    HW1  465   3.456   1.756   1.962
  110SOL    HW2  466   3.598   1.721   2.000
  111SOL     OW  467   1.388   3.486   0.201
  111SOL    HW1  468   1.318   3.550   0.191
  111SOL    HW2  469   1.368   3.441   0.283
  112SOL     OW  470   3.792   2.111   2.810
  112SOL    HW1  471   3.755   2.024   2.825
  112SOL    HW2  472   3.789   2.122   2.715
  113SOL     OW  473   1.743   0.248   0.758
  113SOL    HW1  474   1.664   0.198   0.778
  113SOL    HW2  475   1.711   0.335   0.734
  114SOL     OW  476   2.821   2.648   1.804
  114SOL    HW1  477   2.804   2.559   1.773
  114SOL    HW2  478   2.911   2.667   1.777
  115SOL     OW  479   0.170   1.646   1.846
  115SOL    HW1  480   0.207   1.717   1.897
  115SOL    HW2  481   0.107   1.688   1.788
  116SOL     OW  482   3.696   2.679  -0.019
  116SOL    HW1  483   3.676   2.770   0.004
  116SOL    HW2  484   3.780   2.661   0.024
  117SOL     OW  485   3.742   3.644   1.821
  117SOL    HW1  486   3.707   3.600   1.898
  117SOL    HW2  487   3.836   3.649   1.836
  118SOL     OW  488   1.815   2.594   2.807
  118SOL    HW1  489   1.720   2.599   2.821
  118SOL    HW2  490   1.851   2.667   2.857
  119SOL     OW  491   0.033   0.576   2.054
  119SOL    HW1  492  -0.062   0.587   2.060
  119SOL    HW2  493   0.056   0.611   1.969
  120SOL     OW  494   2.147   0.045   3.809
  120SOL    HW1  495   2.188   0.085   3.885
  120SOL    HW2  496   2.218   0.001   3.763
  121SOL     OW  497   1.341   1.456   2.577
  121SOL    HW1  498   1.429   1.483   2.605
  121SOL    HW2  499   1.354   1.368   2.541
  122SOL     OW  500   3.512   1.956   0.366
  122SOL    HW1  501   3.462   1.884   0.328
  122SOL    HW2  502   3.490   1.954   0.459
  123SOL     OW  503   2.443   3.654   3.116
  123SOL    HW1  504   2.382   3.614   3.179
  123SOL    HW2  505   2.432   3.748   3.129
  124SOL     OW  506   2.317   3.953   2.250
  124SOL    HW1  507   2.378   3.885   2.222
  124SOL    HW2  508   2.292   3.928   2.339
  125SOL     OW  509   0.200   0.669   3.641
  125SOL    HW1  510   0.118   0.670   3.689
  125SOL    HW2  511   0.230   0.760   3.644
  126SOL     OW  512   0.810   0.981   3.594
  126SOL    HW1  513   0.718   0.993   3.619
  126SOL    HW2  514   0.853   0.957   3.676
  127SOL     OW  515   2.226   2.060   1.424
  127SOL    HW1  516   2.191   1.980   1.463
  127SOL    HW2  517   2.198   2.130   1.483
  128SOL     OW  518   2.311   3.445   1.068
  128SOL    HW1  519   2.315   3.505   1.142
  128SOL    HW2  520   2.389   3.390   1.077
  129SOL     OW  521   0.128   3.779   1.700
  129SOL    HW1  522   0.170   3.772   1.786
  129SOL    HW2  523   0.126   3.689   1.667
  130SOL     OW  524   3.887   2.668   1.204
  130SOL    HW1  525   3.873   2.622   1.287
  130SOL    HW2  526   3.978   2.650   1.182
  131SOL     OW  527   3.078   1.634   0.696
  131SOL    HW1  528   3.102   1.542   0.684
  131SOL    HW2  529   3.089   1.673   0.609
  132SOL     OW  530   1.374   1.268   0.618
  132SOL    HW1  531   1.362   1.222   0.535
  132SOL    HW2  532   1.295   1.323   0.626
  133SOL     OW  533   0.922   0.179   1.467
  133SOL    HW1  534   0.953   0.269   1.465
  133SOL    HW2  535   0.840   0.182   1.516
  134SOL     OW  536   1.615   0.526   3.291
  134SOL    HW1  537   1.666   0.521   3.210
  134SOL    HW2  538   1.659   0.466   3.351
  135SOL     OW  539   3.028   0.622   2.216
  135SOL    HW1  540   2.951   0.581   2.256
  135SOL    HW2  541   3.030   0.710   2.254
  136SOL     OW  542   0.704   1.389   1.680
  136SOL    HW1  543   0.713   1.469   1.732
  136SOL    HW2  544   0.711   1.419   1.589
  137SOL     OW  545   3.845   2.537   2.683
  137SOL    HW1  546   3.896   2.597   2.628
  137SOL    HW2  547   3.790   2.489   2.623
  138SOL     OW  548   2.441   0.849   0.138
  138SOL    HW1  549   2.438   0.941   0.164
  138SOL    HW2  550   2.517   0.814   0.183
  139SOL     OW  551   3.212   3.617   2.512
  139SOL    HW1  552   3.234   3.633   2.420
  139SOL    HW2  553   3.260   3.538   2.535
  140SOL     OW  554   2.149   1.568   3.904
  140SOL    HW1  555   2.078   1.517   3.865
  140SOL    HW2  556   2.220   1.506   3.915
  141SOL     OW  557   3.231   2.105   2.188
  141SOL    HW1  558   3.304   2.141   2.237
  141SOL    HW2  559   3.267   2.084   2.102
  142SOL     OW  560   0.462   0.407   0.909
  142SOL    HW1  561   0.376   0.385   0.944
  142SOL    HW2  562   0.486   0.332   0.855
  143SOL     OW  563   2.601   0.147   0.102
  143SOL    HW1  564   2.608   0.060   0.063
  143SOL    HW2  565   2.563   0.201   0.033
  144SOL     OW  566   1.927   0.545   1.356
  144SOL    HW1  567   1.962   0.523   1.442
  144SOL    HW2  568   1.892   0.462   1.323
  145SOL     OW  569   3.927   2.361   0.783
  145SOL    HW1  570   3.835   2.344   0.803
  145SOL    HW2  571   3.924   2.428   0.714
  146SOL     OW  572   2.207   3.461   2.441
  146SOL    HW1  573   2.231   3.524   2.374
  146SOL    HW2  574   2.187   3.514   2.518
  147SOL     OW  575   3.679   0.612   0.759
  147SOL    HW1  576   3.710   0.564   0.683
  147SOL    HW2  577   3.654   0.698   0.725
  148SOL     OW  578   1.472   0.669   1.859
  148SOL    HW1  579   1.531   0.729   1.906
  148SOL    HW2  580   1.493   0.683   1.767
  149SOL     OW  581   0.696   3.317   3.167
  149SOL    HW1  582   0.690   3.264   3.087
  149SOL    HW2  583   0.755   3.266   3.224
  150SOL     OW  584   0.882   3.458   2.472
  150SOL    HW1  585   0.908   3.539   2.428
  150SOL    HW2  586   0.955   3.397   2.456
  151SOL     OW  587   3.180   2.777   0.297
  151SOL    HW1  588   3.242   2.774   0.224
  151SOL    HW2  589   3.234   2.793   0.374
  152SOL     OW  590   2.131   0.547   1.871
  152SOL    HW1  591   2.146   0.514   1.960
  152SOL    HW2  592   2.069   0.485   1.833
  153SOL     OW  593   2.055   1.259   2.240
  153SOL    HW1  594   2.123   1.240   2.305
  153SOL    HW2  595   1.973   1.238   2.285
  154SOL     OW  596   3.789   0.382   3.322
  154SOL    HW1  597   3.849   0.389   3.247
  154SOL    HW2  598   3.843   0.405   3.397
  155SOL     OW  599   1.821   1.173   2.340
  155SOL    HW1  600   1.734   1.203   2.312
  155SOL    HW2  601   1.821   1.079   2.322
  156SOL     OW  602   2.500   1.642   3.073
  156SOL    HW1  603   2.421   1.623   3.123
  156SOL    HW2  604   2.474   1.634   2.981
  157SOL     OW  605   3.878   3.301   2.032
  157SOL    HW1  606   3.949   3.365   2.022
  157SOL    HW2  607   3.905   3.226   1.979
  158SOL     OW  608   1.286   0.190   1.126
  158SOL    HW1  609   1.312   0.104   1.157
  158SOL    HW2  610   1.206   0.174   1.076
  159SOL     OW  611   1.661   3.147   3.966
  159SOL    HW1  612   1.591   3.083   3.984
  159SOL    HW2  613   1.671   3.145   3.871
  160SOL     OW  614   2.625   3.091   2.503
  160SOL    HW1  615   2.585   3.169   2.464
  160SOL    HW2  616   2.582   3.018   2.459
  161SOL     OW  617   2.699   1.435   2.252
  161SOL    HW1  618   2.670   1.355   2.208
  161SOL    HW2  619   2.686   1.504   2.187
  162SOL     OW  620   2.505   1.085   1.592
  162SOL    HW1  621   2.485   1.015   1.653
  162SOL    HW2  622   2.595   1.111   1.614
  163SOL     OW  623   0.476   1.965   0.174
  163SOL    HW1  624   0.487   1.872   0.195
  163SOL    HW2  625   0.536   1.979   0.100
  164SOL     OW  626   1.455   3.782   3.622
  164SOL    HW1  627   1.537   3.774   3.574
  164SOL    HW2  628   1.387   3.754   3.560
  165SOL     OW  629   1.331   1.978   1.595
  165SOL    HW1  630   1.423   1.971   1.620
  165SOL    HW2  631   1.333   1.996   1.501
  166SOL     OW  632   2.086   1.958   0.305
  166SOL    HW1  633   2.143   1.964   0.229
  166SOL    HW2  634   2.101   2.039   0.353
  167SOL     OW  635   1.483   2.611   3.607
  167SOL    HW1  636   1.421   2.563   3.552
  167SOL    HW2  637   1.459   2.588   3.697
  168SOL     OW  638   0.631   1.110   2.811
  168SOL    HW1  639   0.689   1.182   2.786
  168SOL    HW2  640   0.683   1.056   2.869
  169SOL     OW  641   1.646   3.187   3.270
  169SOL    HW1  642   1.663   3.252   3.338
  169SOL    HW2  643   1.559   3.210   3.237
  170SOL     OW  644   0.102   3.515   2.955
  170SOL    HW1  645   0.067   3.521   2.866
  170SOL    HW2  646   0.027   3.491   3.009
  171SOL     OW  647   1.140   2.676   2.935
  171SOL    HW1  648   1.182   2.619   2.999
  171SOL    HW2  649   1.183   2.761   2.947
  172SOL     OW  650   2.843   3.487   1.492
  172SOL    HW1  651   2.780   3.471   1.562
  172SOL    HW2  652   2.791   3.490   1.412
  173SOL     OW  653   0.506   2.585   3.308
  173SOL    HW1  654   0.579   2.524   3.317
  173SOL    HW2  655   0.442   2.538   3.255
  174SOL     OW  656   0.759   0.261   1.667
  174SOL    HW1  657   0.747   0.195   1.736
  174SOL    HW2  658   0.737   0.344   1.710
  175SOL     OW  659   0.067   1.526   0.274
  175SOL    HW1  660   0.019   1.444   0.285
  175SOL    HW2  661   0.158   1.498   0.258
  176SOL     OW  662   0.701   0.984   0.815
  176SOL    HW1  663   0.667   0.897   0.836
  176SOL    HW2  664   0.633   1.023   0.760
  177SOL     OW  665   2.056   2.371   3.137
  177SOL    HW1  666   2.040   2.344   3.046
  177SOL    HW2  667   2.020   2.459   3.142
  178SOL     OW  668   2.699   0.556   0.121
  178SOL    HW1  669   2.760   0.483   0.130
  178SOL    HW2  670   2.615   0.521   0.152
  179SOL     OW  671   3.438   1.293   1.404
  179SOL    HW1  672   3.416   1.359   1.338
  179SOL    HW2  673   3.441   1.210   1.355
  180SOL     OW  674   2.952   0.697   1.444
  180SOL    HW1  675   3.020   0.732   1.501
  180SOL    HW2  676   2.993   0.624   1.398
  181SOL     OW  677   3.081   0.168   2.407
  181SOL    HW1  678   3.174   0.191   2.409
  181SOL    HW2  679   3.038   0.247   2.373
  182SOL     OW  680   3.578   3.881   1.836
  182SOL    HW1  681   3.493   3.867   1.876
  182SOL    HW2  682   3.605   3.795   1.806
  183SOL     OW  683   2.588   0.526   3.763
  183SOL    HW1  684   2.582   0.599   3.824
  183SOL    HW2  685   2.679   0.497   3.769
  184SOL     OW  686   0.968   2.375   0.420
  184SOL    HW1  687   1.044   2.393   0.364
  184SOL    HW2  688   1.004   2.368   0.508
  185SOL     OW  689   3.455   0.211   1.931
  185SOL    HW1  690   3.422   0.296   1.900
  185SOL    HW2  691   3.388   0.179   1.991
  186SOL     OW  692   3.103   1.562   2.093
  186SOL    HW1  693   3.084   1.655   2.081
  186SOL    HW2  694   3.186   1.549   2.049
  187SOL     OW  695   2.942   2.904   0.866
  187SOL    HW1  696   3.029   2.928   0.834
  187SOL    HW2  697   2.891   2.888   0.786
  188SOL     OW  698   1.580   2.308   1.190
  188SOL    HW1  699   1.635   2.264   1.127
  188SOL    HW2  700   1.615   2.281   1.276
  189SOL     OW  701   3.012   0.874   3.890
  189SOL    HW1  702   3.024   0.806   3.957
  189SOL    HW2  703   3.002   0.955   3.940
  190SOL     OW  704   2.693   1.816   0.587
  190SOL    HW1  705   2.610   1.824   0.540
  190SOL    HW2  706   2.740   1.897   0.567
  191SOL     OW  707   3.274   1.598   3.760
  191SOL    HW1  708   3.333   1.599   3.685
  191SOL    HW2  709   3.325   1.557   3.830
  192SOL     OW  710   0.997   0.706   0.793
  192SOL    HW1  711   1.071   0.645   0.798
  192SOL    HW2  712   0.942   0.671   0.722
  193SOL     OW  713   2.674   1.405   1.692
  193SOL    HW1  714   2.587   1.432   1.661
  193SOL    HW2  715   2.696   1.470   1.759
  194SOL     OW  716   1.580   3.896   1.072
  194SOL    HW1  717   1.577   3.867   1.163
  194SOL    HW2  718   1.662   3.859   1.038
  195SOL     OW  719   0.987   1.917   0.926
  195SOL    HW1  720   0.982   1.991   0.865
  195SOL    HW2  721   0.922   1.855   0.892
  196SOL     OW  722   0.802   1.914   2.350
  196SOL    HW1  723   0.745   1.984   2.317
  196SOL    HW2  724   0.789   1.841   2.289
  197SOL     OW  725   3.785   3.217   2.465
  197SOL    HW1  726   3.772   3.291   2.406
  197SOL    HW2  727   3.700   3.205   2.507
  198SOL     OW  728   3.206   3.199   0.044
  198SOL    HW1  729   3.293   3.183   0.079
  198SOL    HW2  730   3.215   3.187  -0.051
  199SOL     OW  731   0.138   3.763   3.093
  199SOL    HW1  732   0.225   3.794   3.069
  199SOL    HW2  733   0.147   3.667   3.097
  200SOL     OW  734   3.445   0.853   2.384
  200SOL    HW1  735   3.518   0.827   2.439
  200SOL    HW2  736   3.367   0.827   2.432
  201SOL     OW  737   2.192   2.706   1.259
  201SOL    HW1  738   2.257   2.760   1.214
  201SOL    HW2  739   2.168   2.640   1.194
  202SOL     OW  740   0.147   1.820   2.125
  202SOL    HW1  741   0.142   1.916   2.124
  202SOL    HW2  742   0.056   1.791   2.129
  203SOL     OW  743   3.370   3.708   1.857
  203SOL    HW1  744   3.395   3.630   1.808
  203SOL    HW2  745   3.371   3.680   1.949
  204SOL     OW  746   2.275   1.377   3.066
  204SOL    HW1  747   2.323   1.362   3.148
  204SOL    HW2  748   2.338   1.354   2.997
  205SOL     OW  749   2.490   3.500   1.985
  205SOL    HW1  750   2.398   3.509   1.961
  205SOL    HW2  751   2.517   3.416   1.946
  206SOL     OW  752   1.867   0.623   0.189
  206SOL    HW1  753   1.878   0.670   0.106
  206SOL    HW2  754   1.923   0.546   0.180
  207SOL     OW  755   3.623   0.081   2.480
  207SOL    HW1  756   3.694   0.137   2.449
  207SOL    HW2  757   3.652  -0.008   2.458
  208SOL     OW  758   2.973   2.138   2.184
  208SOL    HW1  759   2.971   2.212   2.244
  208SOL    HW2  760   3.064   2.108   2.184
  209SOL     OW  761   3.868   2.459   0.279
  209SOL    HW1  762   3.949   2.424   0.314
  209SOL    HW2  763   3.895   2.535   0.228
  210SOL     OW  764   1.174   0.040   2.937
  210SOL    HW1  765   1.160  -0.026   2.868
  210SOL    HW2  766   1.160   0.124   2.893
  211SOL     OW  767   1.256   0.709   2.124
  211SOL    HW1  768   1.319   0.644   2.090
  211SOL    HW2  769   1.307   0.761   2.186
  212SOL     OW  770   0.164   0.159   2.310
  212SOL    HW1  771   0.119   0.243   2.321
  212SOL    HW2  772   0.162   0.143   2.216
  213SOL     OW  773   0.518   0.795   3.373
  213SOL    HW1  774   0.563   0.738   3.435
  213SOL    HW2  775   0.451   0.839   3.425
  214SOL     OW  776   0.290   2.957   3.156
  214SOL    HW1  777   0.231   3.017   3.202
  214SOL    HW2  778   0.350   3.014   3.108
  215SOL     OW  779   2.534   3.357   3.317
  215SOL    HW1  780   2.508   3.307   3.395
  215SOL    HW2  781   2.548   3.291   3.249
  216SOL     OW  782   2.041   3.357   3.686
  216SOL    HW1  783   2.006   3.428   3.632
  216SOL    HW2  784   2.114   3.396   3.734
  217SOL     OW  785   0.503   3.726   2.258
  217SOL    HW1  786   0.454   3.797   2.300
  217SOL    HW2  787   0.589   3.727   2.300
  218SOL     OW  788   1.971   1.744   2.464
  218SOL    HW1  789   2.027   1.669   2.484
  218SOL    HW2  790   1.918   1.756   2.542
  219SOL     OW  791   0.680   3.519   0.265
  219SOL    HW1  792   0.681   3.572   0.186
  219SOL    HW2  793   0.773   3.508   0.288
  220SOL     OW  794   3.471   3.029   0.724
  220SOL    HW1  795   3.477   3.055   0.816
  220SOL    HW2  796   3.549   3.068   0.683
  221SOL     OW  797   2.716   0.111   0.367
  221SOL    HW1  798   2.681   0.125   0.279
  221SOL    HW2  799   2.638   0.113   0.424
  222SOL     OW  800   0.748   0.485   0.760
  222SOL    HW1  801   0.661   0.516   0.786
  222SOL    HW2  802   0.806   0.517   0.830
  223SOL     OW  803   1.835   2.429   2.261
  223SOL    HW1  804   1.841   2.495   2.331
  223SOL    HW2  805   1.811   2.348   2.306
  224SOL     OW  806   0.905   0.643   3.471
  224SOL    HW1  807   0.994   0.658   3.503
  224SOL    HW2  808   0.915   0.579   3.401
  225SOL     OW  809   3.147   2.168   1.117
  225SOL    HW1  810   3.178   2.105   1.052
  225SOL    HW2  811   3.175   2.131   1.201
  226SOL     OW  812   3.229   2.908   0.724
  226SOL    HW1  813   3.187   2.873   0.646
  226SOL    HW2  814   3.310   2.947   0.693
  227SOL     OW  815   3.914   2.914   0.148
  227SOL    HW1  816   3.845   2.974   0.118
  227SOL    HW2  817   3.953   2.958   0.223
  228SOL     OW  818   0.747   3.495   2.727
  228SOL    HW1  819   0.685   3.567   2.715
  228SOL    HW2  820   0.758   3.458   2.640
  229SOL     OW  821   3.611   2.491   1.269
  229SOL    HW1  822   3.628   2.482   1.175
  229SOL    HW2  823   3.653   2.415   1.309
  230SOL     OW  824   1.206   2.510   0.226
  230SOL    HW1  825   1.254   2.435   0.191
  230SOL    HW2  826   1.183   2.562   0.149
  231SOL     OW  827   1.737   3.813   3.159
  231SOL    HW1  828   1.691   3.779   3.082
  231SOL    HW2  829   1.821   3.767   3.157
  232SOL     OW  830   0.132   1.311   2.161
  232SOL    HW1  831   0.060   1.370   2.182
  232SOL    HW2  832   0.177   1.296   2.244
  233SOL     OW  833   3.584   2.171   3.916
  233SOL    HW1  834   3.558   2.256   3.880
  233SOL    HW2  835   3.638   2.132   3.847
  234SOL     OW  836   1.355   1.840   2.884
  234SOL    HW1  837   1.320   1.756   2.856
  234SOL    HW2  838   1.319   1.854   2.971
  235SOL     OW  839   3.507   3.427   3.570
  235SOL    HW1  840   3.417   3.443   3.598
  235SOL    HW2  841   3.499   3.389   3.483
  236SOL     OW  842   3.481   1.873   1.209
  236SOL    HW1  843   3.561   1.917   1.180
  236SOL    HW2  844   3.429   1.943   1.249
  237SOL     OW  845   2.350   3.672   3.630
  237SOL    HW1  846   2.334   3.755   3.676
  237SOL    HW2  847   2.421   3.691   3.569
  238SOL     OW  848   0.199   0.519   1.584
  238SOL    HW1  849   0.266   0.582   1.610
  238SOL    HW2  850   0.215   0.443   1.640
  239SOL     OW  851   3.765   0.295   0.291
  239SOL    HW1  852   3.677   0.259   0.305
  239SOL    HW2  853   3.823   0.219   0.294
  240SOL     OW  854   3.682   3.586   2.813
  240SOL    HW1  855   3.587   3.574   2.816
  240SOL    HW2  856   3.700   3.656   2.875
  241SOL     OW  857   0.134   1.484   0.920
  241SOL    HW1  858   0.109   1.558   0.864
  241SOL    HW2  859   0.105   1.407   0.871
  242SOL     OW  860   2.719   1.496   3.113
  242SOL    HW1  861   2.737   1.444   3.192
  242SOL    HW2  862   2.637   1.541   3.133
  243SOL     OW  863   3.239   0.306   1.600
  243SOL    HW1  864   3.153   0.276   1.629
  243SOL    HW2  865   3.269   0.238   1.540
  244SOL     OW  866   1.649   3.743   3.425
  244SOL    HW1  867   1.636   3.652   3.396
  244SOL    HW2  868   1.663   3.793   3.345
  245SOL     OW  869   1.809   3.213   3.701
  245SOL    HW1  870   1.902   3.234   3.710
  245SOL    HW2  871   1.805   3.153   3.627
  246SOL     OW  872   3.083   3.128   0.597
  246SOL    HW1  873   3.157   3.133   0.536
  246SOL    HW2  874   3.062   3.035   0.601
  247SOL     OW  875   1.090   0.416   0.533
  247SOL    HW1  876   1.128   0.481   0.592
  247SOL    HW2  877   1.040   0.358   0.590
  248SOL     OW  878   3.744   1.891   1.887
  248SOL    HW1  879   3.691   1.970   1.874
  248SOL    HW2  880   3.705   1.826   1.829
  249SOL     OW  881   0.085   0.258   0.484
  249SOL    HW1  882   0.038   0.271   0.566
  249SOL    HW2  883   0.061   0.169   0.457
  250SOL     OW  884   3.628   3.023   1.039
  250SOL    HW1  885   3.552   2.979   1.077
  250SOL    HW2  886   3.703   2.985   1.085
  251SOL     OW  887   1.243   3.867   1.064
  251SOL    HW1  888   1.333   3.875   1.034
  251SOL    HW2  889   1.250   3.823   1.149
  252SOL     OW  890   2.940   0.756   3.001
  252SOL    HW1  891   2.911   0.794   3.084
  252SOL    HW2  892   2.859   0.743   2.951
  253SOL     OW  893   0.801   3.650   1.867
  253SOL    HW1  894   0.826   3.566   1.828
  253SOL    HW2  895   0.838   3.716   1.808
  254SOL     OW  896   3.765   3.979   0.350
  254SOL    HW1  897   3.761   3.883   0.343
  254SOL    HW2  898   3.673   4.006   0.357
  255SOL     OW  899   2.782   1.893   0.850
  255SOL    HW1  900   2.739   1.852   0.925
  255SOL    HW2  901   2.737   1.855   0.774
  256SOL     OW  902   0.763   0.199   0.075
  256SOL    HW1  903   0.683   0.191   0.128
  256SOL    HW2  904   0.733   0.237  -0.008
  257SOL     OW  905   3.626   1.240   3.670
  257SOL    HW1  906   3.576   1.160   3.653
  257SOL    HW2  907   3.581   1.308   3.618
  258SOL     OW  908   0.784   2.557   2.123
  258SOL    HW1  909   0.826   2.473   2.106
  258SOL    HW2  910   0.854   2.613   2.156
  259SOL     OW  911   0.270   2.533   2.357
  259SOL    HW1  912   0.352   2.556   2.313
  259SOL    HW2  913   0.290   2.452   2.404
  260SOL     OW  914   0.628   1.147   0.166
  260SOL    HW1  915   0.621   1.226   0.112
  260SOL    HW2  916   0.621   1.075   0.103
  261SOL     OW  917   1.102   1.315   2.884
  261SOL    HW1  918   1.154   1.245   2.844
  261SOL    HW2  919   1.148   1.335   2.966
  262SOL     OW  920   1.943   2.550   3.671
  262SOL    HW1  921   2.025   2.570   3.715
  262SOL    HW2  922   1.965   2.483   3.607
  263SOL     OW  923   0.064   2.714   2.560
  263SOL    HW1  924   0.089   2.716   2.467
  263SOL    HW2  925   0.147   2.705   2.607
  264SOL     OW  926   2.987   1.716   1.034
  264SOL    HW1  927   2.945   1.630   1.028
  264SOL    HW2  928   3.012   1.724   1.126
  265SOL     OW  929   0.300   3.160   3.676
  265SOL    HW1  930   0.248   3.208   3.741
  265SOL    HW2  931   0.310   3.073   3.714
  266SOL     OW  932   1.979   3.573   3.362
  266SOL    HW1  933   1.922   3.621   3.422
  266SOL    HW2  934   2.057   3.627   3.353
  267SOL     OW  935   1.866   1.115   1.902
  267SOL    HW1  936   1.772   1.125   1.922
  267SOL    HW2  937   1.908   1.185   1.951
  268SOL     OW  938   3.102   1.077   0.375
  268SOL    HW1  939   3.135   1.150   0.322
  268SOL    HW2  940   3.014   1.104   0.401
  269SOL     OW  941   2.423   1.466   1.579
  269SOL    HW1  942   2.419   1.383   1.530
  269SOL    HW2  943   2.336   1.504   1.569
  270SOL     OW  944   1.585   0.033   0.384
  270SOL    HW1  945   1.666   0.066   0.423
  270SOL    HW2  946   1.611   0.002   0.297
  271SOL     OW  947   2.942   1.993   3.118
  271SOL    HW1  948   2.884   2.011   3.192
  271SOL    HW2  949   2.920   1.904   3.090
  272SOL     OW  950   0.658   2.520   0.106
  272SOL    HW1  951   0.654   2.590   0.171
  272SOL    HW2  952   0.665   2.440   0.158
  273SOL     OW  953   1.216   0.522   1.846
  273SOL    HW1  954   1.307   0.547   1.857
  273SOL    HW2  955   1.168   0.605   1.845
  274SOL     OW  956   1.716   2.083   3.608
  274SOL    HW1  957   1.684   2.151   3.668
  274SOL    HW2  958   1.674   2.003   3.637
  275SOL     OW  959   0.027   0.430   2.317
  275SOL    HW1  960   0.067   0.474   2.242
  275SOL    HW2  961   0.020   0.498   2.384
  276SOL     OW  962   3.114   2.222   1.691
  276SOL    HW1  963   3.037   2.196   1.741
  276SOL    HW2  964   3.089   2.209   1.600
  277SOL     OW  965   3.864   3.161   2.848
  277SOL    HW1  966   3.932   3.117   2.797
  277SOL    HW2  967   3.783   3.117   2.822
  278SOL     OW  968   0.726   1.803   1.450
  278SOL    HW1  969   0.801   1.793   1.509
  278SOL    HW2  970   0.766   1.830   1.367
  279SOL     OW  971   2.287   2.124   3.921
  279SOL    HW1  972   2.192   2.130   3.911
  279SOL    HW2  973   2.310   2.189   3.986
  280SOL     OW  974   2.131   1.066   0.519
  280SOL    HW1  975   2.123   0.982   0.473
  280SOL    HW2  976   2.052   1.114   0.493
  281SOL     OW  977   0.158   1.232   1.865
  281SOL    HW1  978   0.154   1.318   1.906
  281SOL    HW2  979   0.146   1.249   1.772
  282SOL     OW  980   3.509   3.618   3.186
  282SOL    HW1  981   3.561   3.585   3.113
  282SOL    HW2  982   3.421   3.626   3.151
  283SOL     OW  983   2.903   1.620   1.537
  283SOL    HW1  984   2.828   1.616   1.477
  283SOL    HW2  985   2.956   1.543   1.515
  284SOL     OW  986   1.723   3.167   1.987
  284SOL    HW1  987   1.648   3.171   2.046
  284SOL    HW2  988   1.718   3.247   1.936
  285SOL     OW  989   2.478   3.419   0.721
  285SOL    HW1  990   2.507   3.494   0.772
  285SOL    HW2  991   2.557   3.388   0.677
  286SOL     OW  992   1.890   0.183   0.067
  286SOL    HW1  993   1.985   0.182   0.057
  286SOL    HW2  994   1.868   0.092   0.087
  287SOL     OW  995   1.330   3.649   2.596
  287SOL    HW1  996   1.361   3.682   2.680
  287SOL    HW2  997   1.318   3.555   2.609
  288SOL     OW  998   2.286   2.047   1.151
  288SOL    HW1  999   2.248   2.069   1.236
  288SOL    HW2 1000   2.381   2.055   1.164
  289SOL     OW 1001   2.699   3.854   0.686
  289SOL    HW1 1002   2.770   3.885   0.630
  289SOL    HW2 1003   2.655   3.787   0.634
  290SOL     OW 1004   1.839   0.853   1.796
  290SOL    HW1 1005   1.766   0.869   1.736
  290SOL    HW2 1006   1.870   0.941   1.819
  291SOL     OW 1007   1.551   1.197   3.063
  291SOL    HW1 1008   1.487   1.148   3.011
  291SOL    HW2 1009   1.524   1.181   3.153
  292SOL     OW 1010   0.843   0.694   1.916
  292SOL    HW1 1011   0.862   0.659   2.002
  292SOL    HW2 1012   0.925   0.735   1.887
  293SOL     OW 1013   0.100   2.383   3.321
  293SOL    HW1 1014   0.131   2.299   3.355
  293SOL    HW2 1015   0.064   2.428   3.397
  294SOL     OW 1016   2.082   3.882   3.497
  294SOL    HW1 1017   2.076   3.809   3.558
  294SOL    HW2 1018   2.099   3.958   3.553
  295SOL     OW 1019   3.446   1.375   3.415
  295SOL    HW1 1020   3.395   1.446   3.454
  295SOL    HW2 1021   3.461   1.403   3.325
  296SOL     OW 1022   0.077   2.140   2.868
  296SOL    HW1 1023   0.144   2.080   2.838
  296SOL    HW2 1024  -0.006   2.100   2.839
  297SOL     OW 1025   2.977   2.326   2.377
  297SOL    HW1 1026   2.933   2.387   2.316
  297SOL    HW2 1027   2.909   2.304   2.441
  298SOL     OW 1028   3.732   1.073   0.370
  298SOL    HW1 1029   3.818   1.034   0.384
  298SOL    HW2 1030   3.683   1.006   0.323
  299SOL     OW 1031   2.980   0.123   0.287
  299SOL    HW1 1032   2.902   0.106   0.340
  299SOL    HW2 1033   3.022   0.037   0.279
  300SOL     OW 1034   3.890   2.685   1.558
  300SOL    HW1 1035   3.896   2.596   1.522
  300SOL    HW2 1036   3.802   2.715   1.535
  301SOL     OW 1037   0.662   3.612   3.179
  301SOL    HW1 1038   0.663   3.523   3.214
  301SOL    HW2 1039   0.718   3.662   3.238
  302SOL     OW 1040   3.293   2.098   3.365
  302SOL    HW1 1041   3.345   2.028   3.326
  302SOL    HW2 1042   3.210   2.096   3.317
  303SOL     OW 1043   1.424   2.200   3.772
  303SOL    HW1 1044   1.493   2.175   3.833
  303SOL    HW2 1045   1.455   2.281   3.732
  304SOL     OW 1046   2.687   1.075   1.149
  304SOL    HW1 1047   2.658   1.151   1.200
  304SOL    HW2 1048   2.743   1.026   1.210
  305SOL     OW 1049   2.756   3.450   3.193
  305SOL    HW1 1050   2.833   3.498   3.222
  305SOL    HW2 1051   2.690   3.467   3.261
  306SOL     OW 1052   3.212   2.774   1.612
  306SOL    HW1 1053   3.261   2.698   1.643
  306SOL    HW2 1054   3.152   2.739   1.546
  307SOL     OW 1055   2.031   3.939   3.217
  307SOL    HW1 1056   2.019   4.024   3.259
  307SOL    HW2 1057   2.048   3.878   3.289
  308SOL     OW 1058   2.942   0.296   1.670
  308SOL    HW1 1059   2.904   0.283   1.584
  308SOL    HW2 1060   2.939   0.391   1.684
  309SOL     OW 1061   3.798   1.809   2.235
  309SOL    HW1 1062   3.826   1.855   2.314
  309SOL    HW2 1063   3.759   1.728   2.267
  310SOL     OW 1064   3.345   2.925   1.442
  310SOL    HW1 1065   3.316   2.998   1.496
  310SOL    HW2 1066   3.315   2.847   1.490
  311SOL     OW 1067   2.676   3.526   1.260
  311SOL    HW1 1068   2.582   3.523   1.239
  311SOL    HW2 1069   2.708   3.601   1.210
  312SOL     OW 1070   1.833   1.143   1.529
  312SOL    HW1 1071   1.783   1.218   1.561
  312SOL    HW2 1072   1.848   1.089   1.607
  313SOL     OW 1073   2.906   1.648   0.148
  313SOL    HW1 1074   2.863   1.563   0.144
  313SOL    HW2 1075   2.928   1.669   0.057
  314SOL     OW 1076   3.093   1.278   2.943
  314SOL    HW1 1077   3.031   1.330   2.893
  314SOL    HW2 1078   3.078   1.302   3.034
  315SOL     OW 1079   2.730   2.396   3.552
  315SOL    HW1 1080   2.736   2.304   3.526
  315SOL    HW2 1081   2.665   2.433   3.493
  316SOL     OW 1082   0.347   1.040   2.976
  316SOL    HW1 1083   0.402   1.117   2.961
  316SOL    HW2 1084   0.268   1.057   2.926
  317SOL     OW 1085   1.621   3.783   2.172
  317SOL    HW1 1086   1.715   3.769   2.183
  317SOL    HW2 1087   1.580   3.703   2.205
  318SOL     OW 1088   2.789   3.852   3.570
  318SOL    HW1 1089   2.874   3.820   3.601
  318SOL    HW2 1090   2.809   3.897   3.488
  319SOL     OW 1091   0.393   2.787   1.908
  319SOL    HW1 1092   0.343   2.852   1.957
  319SOL    HW2 1093   0.484   2.801   1.935
  320SOL     OW 1094   1.100   2.315   1.080
  320SOL    HW1 1095   1.130   2.235   1.039
  320SOL    HW2 1096   1.167   2.336   1.144
  321SOL     OW 1097   1.965   1.411   2.019
  321SOL    HW1 1098   1.915   1.481   2.060
  321SOL    HW2 1099   1.984   1.350   2.091
  322SOL     OW 1100   3.111   0.529   2.916
  322SOL    HW1 1101   3.182   0.567   2.968
  322SOL    HW2 1102   3.032   0.569   2.951
  323SOL     OW 1103   2.068   1.142   1.715
  323SOL    HW1 1104   1.994   1.137   1.776
  323SOL    HW2 1105   2.097   1.233   1.719
  324SOL     OW 1106   2.932   0.356   0.114
  324SOL    HW1 1107   2.936   0.276   0.166
  324SOL    HW2 1108   3.014   0.357   0.064
  325SOL     OW 1109   3.776   1.278   0.152
  325SOL    HW1 1110   3.769   1.248   0.242
  325SOL    HW2 1111   3.689   1.265   0.115
  326SOL     OW 1112   2.770   3.916   3.306
  326SOL    HW1 1113   2.770   3.885   3.215
  326SOL    HW2 1114   2.786   4.010   3.300
  327SOL     OW 1115   1.064   3.296   2.994
  327SOL    HW1 1116   1.021   3.227   3.044
  327SOL    HW2 1117   1.014   3.375   3.013
  328SOL     OW 1118   3.640   3.680   3.961
  328SOL    HW1 1119   3.674   3.609   3.907
  328SOL    HW2 1120   3.684   3.758   3.929
  329SOL     OW 1121   0.833   1.513   0.836
  329SOL    HW1 1122   0.913   1.473   0.870
  329SOL    HW2 1123   0.838   1.500   0.741
  330SOL     OW 1124   2.180   0.889   2.104
  330SOL    HW1 1125   2.184   0.885   2.008
  330SOL    HW2 1126   2.093   0.856   2.126
  331SOL     OW 1127   1.411   0.213   3.137
  331SOL    HW1 1128   1.344   0.147   3.121
  331SOL    HW2 1129   1.490   0.164   3.155
  332SOL     OW 1130   1.388   3.870   0.122
  332SOL    HW1 1131   1.302   3.894   0.159
  332SOL    HW2 1132   1.448   3.934   0.160
  333SOL     OW 1133   2.826   1.472   1.017
  333SOL    HW1 1134   2.864   1.393   0.979
  333SOL    HW2 1135   2.736   1.447   1.038
  334SOL     OW 1136   1.968   2.785   2.910
  334SOL    HW1 1137   1.909   2.854   2.940
  334SOL    HW2 1138   2.053   2.810   2.947
  335SOL     OW 1139   0.875   1.939   2.974
  335SOL    HW1 1140   0.826   1.904   3.049
  335SOL    HW2 1141   0.927   1.866   2.943
  336SOL     OW 1142   3.157   2.321   3.650
  336SOL    HW1 1143   3.083   2.381   3.662
  336SOL    HW2 1144   3.137   2.247   3.706
  337SOL     OW 1145   3.597   1.710   1.730
  337SOL    HW1 1146   3.648   1.649   1.676
  337SOL    HW2 1147   3.515   1.722   1.683
  338SOL     OW 1148   1.795   0.268   2.280
  338SOL    HW1 1149   1.841   0.197   2.235
  338SOL    HW2 1150   1.712   0.229   2.308
  339SOL     OW 1151   2.799   1.166   1.609
  339SOL    HW1 1152   2.751   1.248   1.622
  339SOL    HW2 1153   2.886   1.184   1.646
  340SOL     OW 1154   1.589   1.992   2.223
  340SOL    HW1 1155   1.510   2.031   2.185
  340SOL    HW2 1156   1.618   1.928   2.158
  341SOL     OW 1157   3.782   1.397   0.452
  341SOL    HW1 1158   3.713   1.331   0.451
  341SOL    HW2 1159   3.762   1.454   0.378
  342SOL     OW 1160   2.385   2.385   1.814
  342SOL    HW1 1161   2.310   2.363   1.869
  342SOL    HW2 1162   2.356   2.460   1.762
  343SOL     OW 1163   3.212   0.849   2.504
  343SOL    HW1 1164   3.166   0.834   2.587
  343SOL    HW2 1165   3.144   0.879   2.444
  344SOL     OW 1166   0.427   1.686   1.113
  344SOL    HW1 1167   0.430   1.714   1.204
  344SOL    HW2 1168   0.497   1.621   1.105
  345SOL     OW 1169   1.596   0.226   1.187
  345SOL    HW1 1170   1.579   0.157   1.123
  345SOL    HW2 1171   1.561   0.193   1.269
  346SOL     OW 1172   0.821   0.535   0.172
  346SOL    HW1 1173   0.880   0.495   0.236
  346SOL    HW2 1174   0.873   0.538   0.091
  347SOL     OW 1175   1.354   1.049   2.969
  347SOL    HW1 1176   1.400   0.969   2.996
  347SOL    HW2 1177   1.289   1.019   2.905
  348SOL     OW 1178   1.763   2.335   0.364
  348SOL    HW1 1179   1.791   2.405   0.304
  348SOL    HW2 1180   1.777   2.372   0.451
  349SOL     OW 1181   1.064   1.717   1.378
  349SOL    HW1 1182   1.019   1.740   1.460
  349SOL    HW2 1183   1.137   1.662   1.406
  350SOL     OW 1184   0.523   3.056   0.436
  350SOL    HW1 1185   0.594   3.074   0.497
  350SOL    HW2 1186   0.552   2.978   0.388
  351SOL     OW 1187   0.468   1.060   2.592
  351SOL    HW1 1188   0.373   1.052   2.597
  351SOL    HW2 1189   0.496   1.076   2.682
  352SOL     OW 1190   1.500   2.545   0.497
  352SOL    HW1 1191   1.508   2.480   0.566
  352SOL    HW2 1192   1.589   2.558   0.464
  353SOL     OW 1193   3.420   3.065   2.388
  353SOL    HW1 1194   3.379   3.078   2.303
  353SOL    HW2 1195   3.454   3.151   2.412
  354SOL     OW 1196   0.080   3.375   3.230
  354SOL    HW1 1197   0.157   3.361   3.284
  354SOL    HW2 1198   0.051   3.287   3.205
  355SOL     OW 1199   1.216   1.604   0.877
  355SOL    HW1 1200   1.191   1.564   0.960
  355SOL    HW2 1201   1.173   1.690   0.878
  356SOL     OW 1202   0.964   0.500   3.252
  356SOL    HW1 1203   0.933   0.415   3.223
  356SOL    HW2 1204   1.056   0.486   3.276
  357SOL     OW 1205   3.324   2.647   2.765
  357SOL    HW1 1206   3.316   2.680   2.676
  357SOL    HW2 1207   3.338   2.553   2.755
  358SOL     OW 1208   0.884   2.736   3.634
  358SOL    HW1 1209   0.915   2.668   3.574
  358SOL    HW2 1210   0.826   2.791   3.580
  359SOL     OW 1211   1.517   2.025   2.468
  359SOL    HW1 1212   1.533   1.984   2.383
  359SOL    HW2 1213   1.460   1.963   2.514
  360SOL     OW 1214   1.919   3.632   3.091
  360SOL    HW1 1215   1.900   3.547   3.051
  360SOL    HW2 1216   1.910   3.616   3.186
  361SOL     OW 1217   2.298   0.165   3.011
  361SOL    HW1 1218   2.331   0.241   3.060
  361SOL    HW2 1219   2.350   0.162   2.932
  362SOL     OW 1220   0.837   0.928   3.862
  362SOL    HW1 1221   0.918   0.879   3.882
  362SOL    HW2 1222   0.771   0.889   3.919
  363SOL     OW 1223   0.511   0.454   1.697
  363SOL    HW1 1224   0.535   0.516   1.766
  363SOL    HW2 1225   0.517   0.503   1.616
  364SOL     OW 1226   1.241   1.388   3.096
  364SOL    HW1 1227   1.322   1.435   3.074
  364SOL    HW2 1228   1.268   1.321   3.158
  365SOL     OW 1229   2.263   2.989   2.587
  365SOL    HW1 1230   2.238   3.065   2.640
  365SOL    HW2 1231   2.340   2.953   2.631
  366SOL     OW 1232   2.282   3.128   3.113
  366SOL    HW1 1233   2.225   3.197   3.145
  366SOL    HW2 1234   2.360   3.134   3.167
  367SOL     OW 1235   3.119   3.347   3.273
  367SOL    HW1 1236   3.032   3.327   3.238
  367SOL    HW2 1237   3.102   3.382   3.361
  368SOL     OW 1238   0.949   3.037   3.132
  368SOL    HW1 1239   0.984   3.061   3.217
  368SOL    HW2 1240   0.885   2.968   3.150
  369SOL     OW 1241   3.217   2.806   2.577
  369SOL    HW1 1242   3.194   2.791   2.669
  369SOL    HW2 1243   3.230   2.901   2.571
  370SOL     OW 1244   3.752   2.069   3.705
  370SOL    HW1 1245   3.697   2.021   3.643
  370SOL    HW2 1246   3.826   2.100   3.652
  371SOL     OW 1247   3.143   0.544   1.038
  371SOL    HW1 1248   3.160   0.556   0.945
  371SOL    HW2 1249   3.225   0.568   1.081
  372SOL     OW 1250   2.663   3.815   1.517
  372SOL    HW1 1251   2.587   3.823   1.576
  372SOL    HW2 1252   2.738   3.806   1.576
  373SOL     OW 1253   2.388   3.033   2.085
  373SOL    HW1 1254   2.388   2.938   2.073
  373SOL    HW2 1255   2.361   3.046   2.176
  374SOL     OW 1256   2.479   2.930   0.752
  374SOL    HW1 1257   2.404   2.872   0.757
  374SOL    HW2 1258   2.445   3.016   0.779
  375SOL     OW 1259   3.582   2.667   2.959
  375SOL    HW1 1260   3.662   2.620   2.937
  375SOL    HW2 1261   3.525   2.654   2.883
  376SOL     OW 1262   0.559   3.926   3.866
  376SOL    HW1 1263   0.554   3.930   3.771
  376SOL    HW2 1264   0.504   3.999   3.896
  377SOL     OW 1265   1.960   3.791   0.538
  377SOL    HW1 1266   1.954   3.839   0.621
  377SOL    HW2 1267   1.969   3.699   0.564
  378SOL     OW 1268   2.747   0.231   1.205
  378SOL    HW1 1269   2.679   0.269   1.149
  378SOL    HW2 1270   2.714   0.144   1.228
  379SOL     OW 1271   0.979   2.164   0.745
  379SOL    HW1 1272   0.950   2.103   0.677
  379SOL    HW2 1273   1.065   2.193   0.715
  380SOL     OW 1274   3.486   1.570   2.862
  380SOL    HW1 1275   3.416   1.506   2.874
  380SOL    HW2 1276   3.449   1.636   2.804
  381SOL     OW 1277   3.314   2.094   0.692
  381SOL    HW1 1278   3.258   2.164   0.658
  381SOL    HW2 1279   3.254   2.038   0.741
  382SOL     OW 1280   2.333   2.940   1.129
  382SOL    HW1 1281   2.329   3.022   1.179
  382SOL    HW2 1282   2.408   2.893   1.164
  383SOL     OW 1283   3.782   0.246   2.331
  383SOL    HW1 1284   3.733   0.229   2.251
  383SOL    HW2 1285   3.841   0.318   2.309
  384SOL     OW 1286   0.520   0.114   2.497
  384SOL    HW1 1287   0.499   0.183   2.561
  384SOL    HW2 1288   0.591   0.065   2.538
  385SOL     OW 1289   1.466   0.665   0.644
  385SOL    HW1 1290   1.382   0.648   0.603
  385SOL    HW2 1291   1.503   0.739   0.595
  386SOL     OW 1292   3.653   1.466   0.827
  386SOL    HW1 1293   3.591   1.513   0.881
  386SOL    HW2 1294   3.701   1.534   0.780
  387SOL     OW 1295   2.694   1.040   0.004
  387SOL    HW1 1296   2.685   0.953   0.043
  387SOL    HW2 1297   2.762   1.083   0.056
  388SOL     OW 1298   2.808   1.066   2.131
  388SOL    HW1 1299   2.719   1.056   2.164
  388SOL    HW2 1300   2.806   1.027   2.044
  389SOL     OW 1301   0.026   1.392   3.029
  389SOL    HW1 1302   0.030   1.473   3.081
  389SOL    HW2 1303   0.096   1.338   3.066
  390SOL     OW 1304   0.931   2.125   1.428
  390SOL    HW1 1305   0.853   2.180   1.429
  390SOL    HW2 1306   0.939   2.097   1.337
  391SOL     OW 1307   0.535   2.536   2.235
  391SOL    HW1 1308   0.621   2.517   2.199
  391SOL    HW2 1309   0.532   2.631   2.243
  392SOL     OW 1310   3.045   1.977   0.421
  392SOL    HW1 1311   2.975   2.001   0.482
  392SOL    HW2 1312   3.010   2.000   0.335
  393SOL     OW 1313   0.907   0.290   0.699
  393SOL    HW1 1314   0.910   0.250   0.787
  393SOL    HW2 1315   0.823   0.335   0.697
  394SOL     OW 1316   3.854   3.611   0.172
  394SOL    HW1 1317   3.836   3.518   0.186
  394SOL    HW2 1318   3.791   3.638   0.106
  395SOL     OW 1319   3.850   2.132   1.487
  395SOL    HW1 1320   3.906   2.203   1.518
  395SOL    HW2 1321   3.905   2.082   1.427
  396SOL     OW 1322   2.228   0.247   0.049
  396SOL    HW1 1323   2.304   0.301   0.026
  396SOL    HW2 1324   2.233   0.238   0.144
  397SOL     OW 1325   0.602   3.087   2.696
  397SOL    HW1 1326   0.536   3.021   2.673
  397SOL    HW2 1327   0.624   3.128   2.613
  398SOL     OW 1328   2.763   2.045   1.574
  398SOL    HW1 1329   2.808   2.071   1.655
  398SOL    HW2 1330   2.734   2.127   1.535
  399SOL     OW 1331   2.196   1.329   0.381
  399SOL    HW1 1332   2.171   1.248   0.337
  399SOL    HW2 1333   2.257   1.302   0.449
  400SOL     OW 1334   0.141   2.324   1.845
  400SOL    HW1 1335   0.165   2.384   1.916
  400SOL    HW2 1336   0.213   2.331   1.783
  401SOL     OW 1337   2.319   1.358   3.909
  401SOL    HW1 1338   2.408   1.328   3.930
  401SOL    HW2 1339   2.262   1.310   3.969
  402SOL     OW 1340   1.093   3.242   1.914
  402SOL    HW1 1341   1.143   3.260   1.835
  402SOL    HW2 1342   1.133   3.298   1.981
  403SOL     OW 1343   2.737   2.929   2.021
  403SOL    HW1 1344   2.828   2.901   2.037
  403SOL    HW2 1345   2.728   2.928   1.926
  404SOL     OW 1346   0.212   3.540   1.581
  404SOL    HW1 1347   0.241   3.462   1.534
  404SOL    HW2 1348   0.156   3.586   1.519
  405SOL     OW 1349   0.675   3.579   0.894
  405SOL    HW1 1350   0.708   3.669   0.897
  405SOL    HW2 1351   0.685   3.546   0.983
  406SOL     OW 1352   3.439   0.932   1.387
  406SOL    HW1 1353   3.496   0.940   1.311
  406SOL    HW2 1354   3.350   0.935   1.352
  407SOL     OW 1355   3.148   3.604   1.044
  407SOL    HW1 1356   3.114   3.516   1.060
  407SOL    HW2 1357   3.076   3.651   1.004
  408SOL     OW 1358   1.025   3.883   0.867
  408SOL    HW1 1359   1.105   3.871   0.918
  408SOL    HW2 1360   1.053   3.923   0.785
  409SOL     OW 1361   3.216   1.406   0.076
  409SOL    HW1 1362   3.186   1.456   0.152
  409SOL    HW2 1363   3.298   1.448   0.051
  410SOL     OW 1364   0.946   2.641   0.851
  410SOL    HW1 1365   0.969   2.654   0.943
  410SOL    HW2 1366   0.915   2.551   0.846
  411SOL     OW 1367   0.545   0.614   1.285
  411SOL    HW1 1368   0.459   0.573   1.294
  411SOL    HW2 1369   0.527   0.700   1.247
  412SOL     OW 1370   2.359   3.797   1.597
  412SOL    HW1 1371   2.269   3.763   1.597
  412SOL    HW2 1372   2.414   3.719   1.601
  413SOL     OW 1373   1.931   3.317   2.936
  413SOL    HW1 1374   2.013   3.367   2.931
  413SOL    HW2 1375   1.872   3.372   2.987
  414SOL     OW 1376   0.719   2.492   2.658
  414SOL    HW1 1377   0.652   2.537   2.710
  414SOL    HW2 1378   0.801   2.511   2.703
  415SOL     OW 1379   2.623   2.132   3.132
  415SOL    HW1 1380   2.585   2.054   3.172
  415SOL    HW2 1381   2.653   2.103   3.046
  416SOL     OW 1382   3.277   3.292   1.565
  416SOL    HW1 1383   3.226   3.358   1.517
  416SOL    HW2 1384   3.227   3.212   1.554
  417SOL     OW 1385   0.955   0.173   0.264
  417SOL    HW1 1386   0.898   0.167   0.188
  417SOL    HW2 1387   1.012   0.248   0.245
  418SOL     OW 1388   2.373   2.342   0.177
  418SOL    HW1 1389   2.443   2.341   0.112
  418SOL    HW2 1390   2.379   2.428   0.218
  419SOL     OW 1391   3.146   2.661   3.200
  419SOL    HW1 1392   3.179   2.589   3.146
  419SOL    HW2 1393   3.224   2.712   3.222
  420SOL     OW 1394   2.638   0.880   3.378
  420SOL    HW1 1395   2.603   0.840   3.458
  420SOL    HW2 1396   2.641   0.808   3.315
  421SOL     OW 1397   0.008   2.702   2.067
  421SOL    HW1 1398  -0.015   2.758   1.993
  421SOL    HW2 1399   0.074   2.642   2.032
  422SOL     OW 1400   1.472   0.364   1.795
  422SOL    HW1 1401   1.505   0.454   1.791
  422SOL    HW2 1402   1.481   0.331   1.705
  423SOL     OW 1403   1.332   0.763   1.479
  423SOL    HW1 1404   1.303   0.830   1.418
  423SOL    HW2 1405   1.256   0.745   1.534
  424SOL     OW 1406   3.874   2.709   2.928
  424SOL    HW1 1407   3.891   2.628   2.880
  424SOL    HW2 1408   3.937   2.708   3.000
  425SOL     OW 1409   1.628   3.097   2.242
  425SOL    HW1 1410   1.639   3.088   2.337
  425SOL    HW2 1411   1.669   3.018   2.206
  426SOL     OW 1412   2.745   0.668   1.253
  426SOL    HW1 1413   2.816   0.689   1.314
  426SOL    HW2 1414   2.778   0.593   1.203
  427SOL     OW 1415   0.742   3.970   2.597
  427SOL    HW1 1416   0.801   4.017   2.657
  427SOL    HW2 1417   0.788   3.889   2.577
  428SOL     OW 1418   0.950   0.702   1.061
  428SOL    HW1 1419   0.957   0.728   0.969
  428SOL    HW2 1420   0.882   0.760   1.096
  429SOL     OW 1421   1.309   1.867   2.555
  429SOL    HW1 1422   1.290   1.901   2.642
  429SOL    HW2 1423   1.223   1.860   2.513
  430SOL     OW 1424   1.768   2.490   3.123
  430SOL    HW1 1425   1.772   2.410   3.070
  430SOL    HW2 1426   1.694   2.539   3.086
  431SOL     OW 1427   0.578   1.437   0.039
  431SOL    HW1 1428   0.600   1.528   0.020
  431SOL    HW2 1429   0.600   1.390  -0.041
  432SOL     OW 1430   2.300   3.880   0.537
  432SOL    HW1 1431   2.219   3.932   0.540
  432SOL    HW2 1432   2.315   3.855   0.628
  433SOL     OW 1433   0.569   2.123   3.339
  433SOL    HW1 1434   0.637   2.122   3.271
  433SOL    HW2 1435   0.487   2.112   3.291
  434SOL     OW 1436   3.945   3.134   3.107
  434SOL    HW1 1437   3.903   3.109   3.024
  434SOL    HW2 1438   3.940   3.055   3.161
  435SOL     OW 1439   2.550   2.680   1.493
  435SOL    HW1 1440   2.510   2.698   1.578
  435SOL    HW2 1441   2.624   2.623   1.514
  436SOL     OW 1442   3.889   0.857   1.201
  436SOL    HW1 1443   3.863   0.926   1.262
  436SOL    HW2 1444   3.821   0.856   1.134
  437SOL     OW 1445   3.321   2.407   3.434
  437SOL    HW1 1446   3.245   2.362   3.473
  437SOL    HW2 1447   3.330   2.367   3.348
  438SOL     OW 1448   0.581   0.395   2.890
  438SOL    HW1 1449   0.604   0.482   2.858
  438SOL    HW2 1450   0.648   0.375   2.955
  439SOL     OW 1451   1.523   3.479   3.479
  439SOL    HW1 1452   1.434   3.477   3.442
  439SOL    HW2 1453   1.511   3.518   3.566
  440SOL     OW 1454   2.737   1.034   1.870
  440SOL    HW1 1455   2.666   0.979   1.838
  440SOL    HW2 1456   2.765   1.084   1.794
  441SOL     OW 1457   3.816   0.880   0.926
  441SOL    HW1 1458   3.857   0.847   0.846
  441SOL    HW2 1459   3.731   0.914   0.897
  442SOL     OW 1460   1.603   1.432   0.617
  442SOL    HW1 1461   1.550   1.353   0.622
  442SOL    HW2 1462   1.647   1.438   0.702
  443SOL     OW 1463   1.411   0.403   3.728
  443SOL    HW1 1464   1.431   0.340   3.659
  443SOL    HW2 1465   1.381   0.350   3.802
  444SOL     OW 1466   1.247   0.460   1.282
  444SOL    HW1 1467   1.160   0.440   1.318
  444SOL    HW2 1468   1.268   0.386   1.226
  445SOL     OW 1469   1.206   2.926   0.536
  445SOL    HW1 1470   1.249   2.952   0.617
  445SOL    HW2 1471   1.213   2.830   0.534
  446SOL     OW 1472   1.528   2.961   3.475
  446SOL    HW1 1473   1.601   2.959   3.413
  446SOL    HW2 1474   1.556   2.904   3.546
  447SOL     OW 1475   3.905   1.012   0.664
  447SOL    HW1 1476   3.983   0.967   0.631
  447SOL    HW2 1477   3.930   1.104   0.669
  448SOL     OW 1478   0.444   1.992   1.963
  448SOL    HW1 1479   0.355   2.008   1.931
  448SOL    HW2 1480   0.448   1.897   1.977
  449SOL     OW 1481   3.694   1.092   2.320
  449SOL    HW1 1482   3.783   1.090   2.354
  449SOL    HW2 1483   3.642   1.127   2.392
  450SOL     OW 1484   0.216   1.012   2.665
  450SOL    HW1 1485   0.216   0.917   2.657
  450SOL    HW2 1486   0.127   1.039   2.641
  451SOL     OW 1487   0.833   0.543   2.831
  451SOL    HW1 1488   0.850   0.617   2.890
  451SOL    HW2 1489   0.914   0.491   2.835
  452SOL     OW 1490   3.440   2.174   2.356
  452SOL    HW1 1491   3.469   2.263   2.337
  452SOL    HW2 1492   3.361   2.186   2.409
  453SOL     OW 1493   1.160   1.050   3.588
  453SOL    HW1 1494   1.163   0.975   3.647
  453SOL    HW2 1495   1.139   1.012   3.503
  454SOL     OW 1496   1.294   1.281   3.362
  454SOL    HW1 1497   1.203   1.310   3.372
  454SOL    HW2 1498   1.314   1.236   3.444
  455SOL     OW 1499   3.835   3.406   2.282
  455SOL    HW1 1500   3.858   3.356   2.204
  455SOL    HW2 1501   3.902   3.473   2.289
  456SOL     OW 1502  -0.015   0.827   0.224
  456SOL    HW1 1503   0.018   0.904   0.270
  456SOL    HW2 1504   0.048   0.758   0.246
  457SOL     OW 1505   2.963   1.738   3.833
  457SOL    HW1 1506   2.980   1.825   3.796
  457SOL    HW2 1507   3.003   1.677   3.772
  458SOL     OW 1508   0.812   0.369   2.115
  458SOL    HW1 1509   0.747   0.355   2.184
  458SOL    HW2 1510   0.860   0.447   2.141
  459SOL     OW 1511   0.053   1.132   0.995
  459SOL    HW1 1512   0.134   1.100   0.955
  459SOL    HW2 1513   0.004   1.053   1.017
  460SOL     OW 1514   0.355   1.766   3.916
  460SOL    HW1 1515   0.434   1.763   3.970
  460SOL    HW2 1516   0.287   1.796   3.976
  461SOL     OW 1517   3.368   1.398   1.647
  461SOL    HW1 1518   3.371   1.353   1.562
  461SOL    HW2 1519   3.329   1.483   1.628
  462SOL     OW 1520   1.154   1.463   0.635
  462SOL    HW1 1521   1.101   1.520   0.578
  462SOL    HW2 1522   1.183   1.520   0.706
  463SOL     OW 1523   1.304   2.389   1.828
  463SOL    HW1 1524   1.303   2.460   1.763
  463SOL    HW2 1525   1.331   2.432   1.909
  464SOL     OW 1526   2.076   3.150   1.501
  464SOL    HW1 1527   1.987   3.120   1.522
  464SOL    HW2 1528   2.128   3.128   1.578
  465SOL     OW 1529   2.113   2.459   0.530
  465SOL    HW1 1530   2.204   2.485   0.520
  465SOL    HW2 1531   2.069   2.494   0.452
  466SOL     OW 1532   1.755   1.039   3.538
  466SOL    HW1 1533   1.676   1.081   3.502
  466SOL    HW2 1534   1.754   0.951   3.500
  467SOL     OW 1535   1.864   2.125   1.819
  467SOL    HW1 1536   1.801   2.103   1.888
  467SOL    HW2 1537   1.932   2.176   1.864
  468SOL     OW 1538   2.157   3.325   0.178
  468SOL    HW1 1539   2.132   3.287   0.262
  468SOL    HW2 1540   2.105   3.278   0.113
  469SOL     OW 1541   1.249   1.806   0.685
  469SOL    HW1 1542   1.336   1.783   0.650
  469SOL    HW2 1543   1.263   1.888   0.732
  470SOL     OW 1544   1.227   2.064   0.504
  470SOL    HW1 1545   1.275   2.142   0.476
  470SOL    HW2 1546   1.277   1.991   0.466
  471SOL     OW 1547   1.011   2.026   3.285
  471SOL    HW1 1548   0.997   1.945   3.235
  471SOL    HW2 1549   1.031   2.092   3.220
  472SOL     OW 1550   3.590   2.297   3.190
  472SOL    HW1 1551   3.656   2.365   3.188
  472SOL    HW2 1552   3.549   2.300   3.103
  473SOL     OW 1553   1.343   2.518   2.059
  473SOL    HW1 1554   1.297   2.600   2.077
  473SOL    HW2 1555   1.434   2.536   2.082
  474SOL     OW 1556   3.762   3.527   0.896
  474SOL    HW1 1557   3.829   3.567   0.951
  474SOL    HW2 1558   3.716   3.466   0.954
  475SOL     OW 1559   2.313   2.973   0.465
  475SOL    HW1 1560   2.357   3.002   0.544
  475SOL    HW2 1561   2.360   3.017   0.394
  476SOL     OW 1562   0.374   3.004   3.889
  476SOL    HW1 1563   0.364   2.932   3.826
  476SOL    HW2 1564   0.447   2.977   3.945
  477SOL     OW 1565   3.325   1.221   2.169
  477SOL    HW1 1566   3.248   1.253   2.121
  477SOL    HW2 1567   3.359   1.299   2.212
  478SOL     OW 1568   3.973   2.965   3.615
  478SOL    HW1 1569   3.901   3.028   3.621
  478SOL    HW2 1570   3.930   2.883   3.590
  479SOL     OW 1571   2.138   1.547   2.879
  479SOL    HW1 1572   2.213   1.588   2.838
  479SOL    HW2 1573   2.174   1.504   2.957
  480SOL     OW 1574   0.069   2.787   0.823
  480SOL    HW1 1575   0.152   2.743   0.803
  480SOL    HW2 1576   0.073   2.805   0.917
  481SOL     OW 1577   1.347   3.248   3.169
  481SOL    HW1 1578   1.325   3.213   3.256
  481SOL    HW2 1579   1.366   3.340   3.184
  482SOL     OW 1580   0.654   2.907   3.617
  482SOL    HW1 1581   0.568   2.869   3.635
  482SOL    HW2 1582   0.646   2.944   3.529
  483SOL     OW 1583   1.810   0.221   3.306
  483SOL    HW1 1584   1.788   0.177   3.388
  483SOL    HW2 1585   1.881   0.281   3.330
  484SOL     OW 1586   3.382   0.311   2.789
  484SOL    HW1 1587   3.299   0.323   2.744
  484SOL    HW2 1588   3.384   0.381   2.854
  485SOL     OW 1589   0.535   0.181   0.769
  485SOL    HW1 1590   0.459   0.124   0.759
  485SOL    HW2 1591   0.575   0.183   0.681
  486SOL     OW 1592   0.693   3.477   1.144
  486SOL    HW1 1593   0.751   3.458   1.218
  486SOL    HW2 1594   0.614   3.514   1.184
  487SOL     OW 1595   0.152   0.892   1.911
  487SOL    HW1 1596   0.224   0.829   1.916
  487SOL    HW2 1597   0.092   0.855   1.846
  488SOL     OW 1598   1.486   0.995   3.809
  488SOL    HW1 1599   1.479   1.055   3.883
  488SOL    HW2 1600   1.565   0.943   3.827
  489SOL     OW 1601   0.697   2.157   1.643
  489SOL    HW1 1602   0.678   2.249   1.663
  489SOL    HW2 1603   0.770   2.134   1.702
  490SOL     OW 1604   3.373   1.033   3.751
  490SOL    HW1 1605   3.306   1.072   3.807
  490SOL    HW2 1606   3.369   0.940   3.771
  491SOL     OW 1607   2.230   1.976   3.172
  491SOL    HW1 1608   2.213   1.914   3.243
  491SOL    HW2 1609   2.228   2.062   3.213
  492SOL     OW 1610   2.286   3.442   3.807
  492SOL    HW1 1611   2.313   3.466   3.895
  492SOL    HW2 1612   2.335   3.501   3.749
  493SOL     OW 1613   3.824   2.367   2.887
  493SOL    HW1 1614   3.829   2.273   2.868
  493SOL    HW2 1615   3.825   2.409   2.801
  494SOL     OW 1616   2.499   3.524   1.606
  494SOL    HW1 1617   2.439   3.456   1.636
  494SOL    HW2 1618   2.583   3.501   1.645
  495SOL     OW 1619   0.228   0.308   1.042
  495SOL    HW1 1620   0.155   0.291   1.103
  495SOL    HW2 1621   0.306   0.287   1.092
  496SOL     OW 1622   3.285   1.511   1.896
  496SOL    HW1 1623   3.359   1.482   1.842
  496SOL    HW2 1624   3.216   1.447   1.880
  497SOL     OW 1625   1.757   0.109   2.862
  497SOL    HW1 1626   1.708   0.124   2.942
  497SOL    HW2 1627   1.849   0.114   2.888
  498SOL     OW 1628   0.015   3.118   1.878
  498SOL    HW1 1629   0.081   3.170   1.832
  498SOL    HW2 1630  -0.023   3.062   1.810
  499SOL     OW 1631   2.836   1.904   3.370
  499SOL    HW1 1632   2.772   1.835   3.390
  499SOL    HW2 1633   2.888   1.913   3.450
  500SOL     OW 1634   2.043   1.273   3.207
  500SOL    HW1 1635   1.962   1.242   3.167
  500SOL    HW2 1636   2.100   1.296   3.133
  501SOL     OW 1637   3.497   3.695   2.311
  501SOL    HW1 1638   3.566   3.736   2.259
  501SOL    HW2 1639   3.545   3.647   2.380
  502SOL     OW 1640   3.308   1.758   0.814
  502SOL    HW1 1641   3.264   1.832   0.857
  502SOL    HW2 1642   3.237   1.696   0.796
  503SOL     OW 1643   0.296   3.476   1.057
  503SOL    HW1 1644   0.300   3.391   1.013
  503SOL    HW2 1645   0.316   3.539   0.988
  504SOL     OW 1646   1.567   1.280   0.240
  504SOL    HW1 1647   1.552   1.360   0.289
  504SOL    HW2 1648   1.652   1.293   0.198
  505SOL     OW 1649   3.002   3.070   3.519
  505SOL    HW1 1650   3.065   3.046   3.451
  505SOL    HW2 1651   2.998   2.994   3.577
  506SOL     OW 1652   1.623   3.207   0.314
  506SOL    HW1 1653   1.658   3.139   0.371
  506SOL    HW2 1654   1.623   3.167   0.227
  507SOL     OW 1655   1.400   2.053   0.168
  507SOL    HW1 1656   1.493   2.059   0.187
  507SOL    HW2 1657   1.388   1.968   0.126
  508SOL     OW 1658   2.963   2.934   0.342
  508SOL    HW1 1659   2.968   3.024   0.308
  508SOL    HW2 1660   3.049   2.897   0.324
  509SOL     OW 1661   1.378   0.274   0.008
  509SOL    HW1 1662   1.362   0.181  -0.005
  509SOL    HW2 1663   1.472   0.280   0.024
  510SOL     OW 1664   2.221   2.992   3.627
  510SOL    HW1 1665   2.283   2.993   3.700
  510SOL    HW2 1666   2.173   3.075   3.636
  511SOL     OW 1667   3.340   2.716   2.335
  511SOL    HW1 1668   3.274   2.738   2.401
  511SOL    HW2 1669   3.423   2.744   2.374
  512SOL     OW 1670   2.291   0.643   1.508
  512SOL    HW1 1671   2.267   0.723   1.461
  512SOL    HW2 1672   2.366   0.608   1.461
  513SOL     OW 1673   2.099   2.507   1.691
  513SOL    HW1 1674   2.043   2.503   1.614
  513SOL    HW2 1675   2.039   2.500   1.765
  514SOL     OW 1676   1.087   3.851   0.469
  514SOL    HW1 1677   1.069   3.758   0.481
  514SOL    HW2 1678   1.097   3.861   0.375
  515SOL     OW 1679   1.152   0.321   1.678
  515SOL    HW1 1680   1.158   0.332   1.583
  515SOL    HW2 1681   1.190   0.401   1.714
  516SOL     OW 1682   1.541   2.393   0.805
  516SOL    HW1 1683   1.592   2.465   0.842
  516SOL    HW2 1684   1.598   2.353   0.740
  517SOL     OW 1685   1.602   1.359   2.677
  517SOL    HW1 1686   1.680   1.325   2.634
  517SOL    HW2 1687   1.563   1.283   2.721
  518SOL     OW 1688   1.153   3.152   2.755
  518SOL    HW1 1689   1.151   3.075   2.812
  518SOL    HW2 1690   1.097   3.216   2.799
  519SOL     OW 1691   0.768   3.939   0.405
  519SOL    HW1 1692   0.838   3.998   0.376
  519SOL    HW2 1693   0.813   3.872   0.457
  520SOL     OW 1694   0.935   1.253   1.514
  520SOL    HW1 1695   0.989   1.314   1.565
  520SOL    HW2 1696   0.869   1.309   1.472
  521SOL     OW 1697   1.039   1.355   3.395
  521SOL    HW1 1698   0.983   1.281   3.372
  521SOL    HW2 1699   0.980   1.421   3.429
  522SOL     OW 1700   2.400   2.133   0.557
  522SOL    HW1 1701   2.462   2.135   0.630
  522SOL    HW2 1702   2.409   2.218   0.515
  523SOL     OW 1703   3.478   0.063   3.654
  523SOL    HW1 1704   3.536   0.013   3.596
  523SOL    HW2 1705   3.536   0.093   3.724
  524SOL     OW 1706   1.609   1.307   2.227
  524SOL    HW1 1707   1.613   1.368   2.153
  524SOL    HW2 1708   1.523   1.323   2.267
  525SOL     OW 1709   1.234   3.401   2.480
  525SOL    HW1 1710   1.239   3.341   2.554
  525SOL    HW2 1711   1.297   3.365   2.417
  526SOL     OW 1712   1.269   3.948   2.562
  526SOL    HW1 1713   1.236   3.866   2.526
  526SOL    HW2 1714   1.364   3.942   2.554
  527SOL     OW 1715   1.752   0.314   1.731
  527SOL    HW1 1716   1.711   0.251   1.790
  527SOL    HW2 1717   1.845   0.312   1.754
  528SOL     OW 1718   1.768   1.756   2.679
  528SOL    HW1 1719   1.788   1.743   2.772
  528SOL    HW2 1720   1.672   1.760   2.675
  529SOL     OW 1721   1.437   1.369   1.346
  529SOL    HW1 1722   1.509   1.374   1.284
  529SOL    HW2 1723   1.364   1.332   1.297
  530SOL     OW 1724   0.689   2.367   0.538
  530SOL    HW1 1725   0.763   2.348   0.481
  530SOL    HW2 1726   0.685   2.292   0.598
  531SOL     OW 1727   2.544   2.175   1.828
  531SOL    HW1 1728   2.517   2.140   1.743
  531SOL    HW2 1729   2.492   2.255   1.838
  532SOL     OW 1730   1.970   3.162   3.984
  532SOL    HW1 1731   1.938   3.219   3.914
  532SOL    HW2 1732   1.929   3.077   3.967
  533SOL     OW 1733   0.607   3.344   0.728
  533SOL    HW1 1734   0.668   3.412   0.700
  533SOL    HW2 1735   0.638   3.265   0.684
  534SOL     OW 1736   1.706   0.070   3.519
  534SOL    HW1 1737   1.718  -0.014   3.474
  534SOL    HW2 1738   1.743   0.056   3.606
  535SOL     OW 1739   1.929   3.752   2.809
  535SOL    HW1 1740   1.975   3.719   2.886
  535SOL    HW2 1741   1.971   3.837   2.791
  536SOL     OW 1742   3.155   3.202   2.435
  536SOL    HW1 1743   3.231   3.145   2.447
  536SOL    HW2 1744   3.159   3.263   2.509
  537SOL     OW 1745   0.332   0.921   1.398
  537SOL    HW1 1746   0.393   0.897   1.468
  537SOL    HW2 1747   0.256   0.957   1.445
  538SOL     OW 1748   1.425   1.230   1.711
  538SOL    HW1 1749   1.459   1.319   1.696
  538SOL    HW2 1750   1.404   1.198   1.623
  539SOL     OW 1751   0.182   1.543   3.874
  539SOL    HW1 1752   0.109   1.600   3.854
  539SOL    HW2 1753   0.259   1.600   3.875
  540SOL     OW 1754   2.213   2.081   2.374
  540SOL    HW1 1755   2.187   1.990   2.360
  540SOL    HW2 1756   2.308   2.076   2.390
  541SOL     OW 1757   2.766   0.415   3.062
  541SOL    HW1 1758   2.859   0.392   3.069
  541SOL    HW2 1759   2.748   0.465   3.142
  542SOL     OW 1760   2.647   3.040   0.540
  542SOL    HW1 1761   2.709   3.114   0.535
  542SOL    HW2 1762   2.633   3.029   0.634
  543SOL     OW 1763   2.781   2.681   1.292
  543SOL    HW1 1764   2.838   2.755   1.272
  543SOL    HW2 1765   2.696   2.721   1.312
  544SOL     OW 1766   2.172   3.169   2.821
  544SOL    HW1 1767   2.166   3.109   2.895
  544SOL    HW2 1768   2.251   3.220   2.839
  545SOL     OW 1769   3.120   1.114   1.615
  545SOL    HW1 1770   3.122   1.022   1.642
  545SOL    HW2 1771   3.146   1.112   1.523
  546SOL     OW 1772   0.189   2.623   1.892
  546SOL    HW1 1773   0.137   2.695   1.857
  546SOL    HW2 1774   0.276   2.661   1.906
  547SOL     OW 1775   1.694   2.180   1.401
  547SOL    HW1 1776   1.642   2.112   1.442
  547SOL    HW2 1777   1.766   2.133   1.358
  548SOL     OW 1778   3.789   1.431   1.686
  548SOL    HW1 1779   3.821   1.428   1.776
  548SOL    HW2 1780   3.719   1.366   1.683
  549SOL     OW 1781   2.413   2.578   2.446
  549SOL    HW1 1782   2.350   2.594   2.376
  549SOL    HW2 1783   2.407   2.483   2.461
  550SOL     OW 1784   1.979   3.264   2.138
  550SOL    HW1 1785   2.010   3.174   2.150
  550SOL    HW2 1786   1.908   3.273   2.203
  551SOL     OW 1787   1.632   2.584   2.051
  551SOL    HW1 1788   1.706   2.533   2.085
  551SOL    HW2 1789   1.612   2.542   1.967
  552SOL     OW 1790   1.421   0.679   3.574
  552SOL    HW1 1791   1.423   0.697   3.668
  552SOL    HW2 1792   1.513   0.666   3.550
  553SOL     OW 1793   2.522   3.929   2.556
  553SOL    HW1 1794   2.450   3.881   2.516
  553SOL    HW2 1795   2.583   3.861   2.585
  554SOL     OW 1796   1.753   2.162   2.313
  554SOL    HW1 1797   1.685   2.112   2.269
  554SOL    HW2 1798   1.748   2.134   2.404
  555SOL     OW 1799   0.730   0.583   3.817
  555SOL    HW1 1800   0.702   0.492   3.803
  555SOL    HW2 1801   0.672   0.616   3.885
  556SOL     OW 1802   0.873   3.774   3.305
  556SOL    HW1 1803   0.870   3.821   3.389
  556SOL    HW2 1804   0.954   3.804   3.263
  557SOL     OW 1805   3.393   2.452   1.053
  557SOL    HW1 1806   3.468   2.469   0.995
  557SOL    HW2 1807   3.403   2.360   1.078
  558SOL     OW 1808   1.840   0.069   0.471
  558SOL    HW1 1809   1.827   0.100   0.560
  558SOL    HW2 1810   1.915   0.009   0.477
  559SOL     OW 1811   3.950   3.286   1.236
  559SOL    HW1 1812   3.875   3.324   1.189
  559SOL    HW2 1813   3.913   3.250   1.316
  560SOL     OW 1814   1.876   0.435   0.550
  560SOL    HW1 1815   1.885   0.401   0.461
  560SOL    HW2 1816   1.782   0.435   0.566
  561SOL     OW 1817   1.565   2.390   0.110
  561SOL    HW1 1818   1.523   2.466   0.068
  561SOL    HW2 1819   1.643   2.427   0.153
  562SOL     OW 1820   1.485   0.564   1.368
  562SOL    HW1 1821   1.413   0.514   1.329
  562SOL    HW2 1822   1.441   0.635   1.415
  563SOL     OW 1823   3.868   1.040   3.200
  563SOL    HW1 1824   3.952   1.025   3.242
  563SOL    HW2 1825   3.817   1.090   3.264
  564SOL     OW 1826   0.084   3.342   2.601
  564SOL    HW1 1827  -0.000   3.300   2.583
  564SOL    HW2 1828   0.062   3.422   2.649
  565SOL     OW 1829   1.496   1.881   0.911
  565SOL    HW1 1830   1.460   1.929   0.837
  565SOL    HW2 1831   1.579   1.845   0.879
  566SOL     OW 1832   1.082   1.890   2.416
  566SOL    HW1 1833   0.987   1.903   2.410
  566SOL    HW2 1834   1.118   1.977   2.399
  567SOL     OW 1835   2.490   0.178   2.778
  567SOL    HW1 1836   2.555   0.247   2.761
  567SOL    HW2 1837   2.477   0.136   2.693
  568SOL     OW 1838   1.175   2.723   0.068
  568SOL    HW1 1839   1.125   2.759  -0.005
  568SOL    HW2 1840   1.151   2.778   0.143
  569SOL     OW 1841   3.222   0.408   2.187
  569SOL    HW1 1842   3.301   0.435   2.234
  569SOL    HW2 1843   3.164   0.484   2.191
  570SOL     OW 1844   1.887   1.693   1.120
  570SOL    HW1 1845   1.913   1.617   1.068
  570SOL    HW2 1846   1.945   1.689   1.196
  571SOL     OW 1847   1.453   3.892   0.589
  571SOL    HW1 1848   1.499   3.922   0.511
  571SOL    HW2 1849   1.361   3.892   0.564
  572SOL     OW 1850   1.244   1.371   1.885
  572SOL    HW1 1851   1.305   1.360   1.812
  572SOL    HW2 1852   1.263   1.297   1.943
  573SOL     OW 1853   0.994   1.517   0.196
  573SOL    HW1 1854   0.975   1.435   0.241
  573SOL    HW2 1855   0.994   1.495   0.103
  574SOL     OW 1856   0.878   3.505   2.991
  574SOL    HW1 1857   0.797   3.523   3.038
  574SOL    HW2 1858   0.850   3.480   2.903
  575SOL     OW 1859   2.538   1.582   0.440
  575SOL    HW1 1860   2.611   1.600   0.498
  575SOL    HW2 1861   2.492   1.666   0.433
  576SOL     OW 1862   3.143   1.641   2.959
  576SOL    HW1 1863   3.121   1.594   2.879
  576SOL    HW2 1864   3.069   1.623   3.018
  577SOL     OW 1865   0.319   1.458   0.152
  577SOL    HW1 1866   0.404   1.493   0.125
  577SOL    HW2 1867   0.265   1.462   0.074
  578SOL     OW 1868   2.483   0.883   1.780
  578SOL    HW1 1869   2.454   0.792   1.773
  578SOL    HW2 1870   2.419   0.924   1.839
  579SOL     OW 1871   3.960   0.566   0.509
  579SOL    HW1 1872   3.866   0.558   0.495
  579SOL    HW2 1873   3.989   0.476   0.527
  580SOL     OW 1874   2.837   1.082   2.556
  580SOL    HW1 1875   2.888   1.097   2.635
  580SOL    HW2 1876   2.842   0.987   2.542
  581SOL     OW 1877   0.017   3.579   2.011
  581SOL    HW1 1878   0.064   3.551   2.089
  581SOL    HW2 1879   0.063   3.658   1.981
  582SOL     OW 1880   0.082   1.001   2.237
  582SOL    HW1 1881   0.048   0.969   2.321
  582SOL    HW2 1882   0.162   0.951   2.223
  583SOL     OW 1883   0.920   3.362   3.864
  583SOL    HW1 1884   0.896   3.433   3.804
  583SOL    HW2 1885   0.840   3.310   3.873
  584SOL     OW 1886   3.841   1.879   0.902
  584SOL    HW1 1887   3.883   1.817   0.843
  584SOL    HW2 1888   3.871   1.965   0.873
  585SOL     OW 1889   0.920   1.051   0.212
  585SOL    HW1 1890   0.900   1.015   0.299
  585SOL    HW2 1891   0.834   1.069   0.174
  586SOL     OW 1892   0.404   1.481   2.100
  586SOL    HW1 1893   0.376   1.396   2.066
  586SOL    HW2 1894   0.499   1.473   2.111
  587SOL     OW 1895   0.375   0.577   2.674
  587SOL    HW1 1896   0.352   0.617   2.758
  587SOL    HW2 1897   0.470   0.566   2.678
  588SOL     OW 1898   2.395   1.524   2.344
  588SOL    HW1 1899   2.307   1.562   2.348
  588SOL    HW2 1900   2.399   1.486   2.256
  589SOL     OW 1901   2.866   0.469   1.096
  589SOL    HW1 1902   2.834   0.395   1.148
  589SOL    HW2 1903   2.961   0.464   1.102
  590SOL     OW 1904   2.378   1.232   0.583
  590SOL    HW1 1905   2.470   1.255   0.573
  590SOL    HW2 1906   2.377   1.136   0.578
  591SOL     OW 1907   0.595   2.063   1.392
  591SOL    HW1 1908   0.631   2.101   1.472
  591SOL    HW2 1909   0.608   1.969   1.402
  592SOL     OW 1910   1.062   0.669   2.473
  592SOL    HW1 1911   1.006   0.746   2.480
  592SOL    HW2 1912   1.030   0.623   2.395
  593SOL     OW 1913   2.331   1.336   1.161
  593SOL    HW1 1914   2.344   1.316   1.254
  593SOL    HW2 1915   2.268   1.270   1.131
  594SOL     OW 1916   3.299   1.621   3.460
  594SOL    HW1 1917   3.342   1.649   3.379
  594SOL    HW2 1918   3.264   1.702   3.497
  595SOL     OW 1919   2.870   0.373   2.371
  595SOL    HW1 1920   2.895   0.391   2.461
  595SOL    HW2 1921   2.797   0.433   2.354
  596SOL     OW 1922   3.107   0.183   2.768
  596SOL    HW1 1923   3.112   0.196   2.863
  596SOL    HW2 1924   3.021   0.142   2.754
  597SOL     OW 1925   2.752   1.697   2.394
  597SOL    HW1 1926   2.820   1.657   2.340
  597SOL    HW2 1927   2.774   1.671   2.483
  598SOL     OW 1928   1.200   1.554   1.151
  598SOL    HW1 1929   1.220   1.589   1.238
  598SOL    HW2 1930   1.205   1.459   1.161
  599SOL     OW 1931   2.033   2.833   1.872
  599SOL    HW1 1932   2.064   2.809   1.784
  599SOL    HW2 1933   2.020   2.927   1.868
  600SOL     OW 1934   3.455   1.523   2.220
  600SOL    HW1 1935   3.401   1.577   2.277
  600SOL    HW2 1936   3.457   1.572   2.137
  601SOL     OW 1937   3.927   0.783   3.747
  601SOL    HW1 1938   3.850   0.744   3.705
  601SOL    HW2 1939   3.895   0.813   3.833
  602SOL     OW 1940   2.461   0.700   2.445
  602SOL    HW1 1941   2.451   0.746   2.361
  602SOL    HW2 1942   2.467   0.608   2.421
  603SOL     OW 1943   0.911   1.460   1.142
  603SOL    HW1 1944   0.942   1.386   1.089
  603SOL    HW2 1945   0.990   1.512   1.160
  604SOL     OW 1946   1.447   2.570   2.788
  604SOL    HW1 1947   1.501   2.580   2.710
  604SOL    HW2 1948   1.361   2.546   2.754
  605SOL     OW 1949   2.365   3.841   3.856
  605SOL    HW1 1950   2.435   3.906   3.855
  605SOL    HW2 1951   2.411   3.757   3.866
  606SOL     OW 1952   2.263   3.351   1.604
  606SOL    HW1 1953   2.258   3.267   1.650
  606SOL    HW2 1954   2.228   3.333   1.517
  607SOL     OW 1955   0.122   0.154   2.876
  607SOL    HW1 1956   0.159   0.235   2.911
  607SOL    HW2 1957   0.170   0.084   2.922
  608SOL     OW 1958   2.595   2.373   3.787
  608SOL    HW1 1959   2.630   2.403   3.703
  608SOL    HW2 1960   2.502   2.392   3.783
  609SOL     OW 1961   1.939   0.270   3.650
  609SOL    HW1 1962   1.928   0.211   3.725
  609SOL    HW2 1963   2.019   0.241   3.608
  610SOL     OW 1964   3.733   3.788   3.003
  610SOL    HW1 1965   3.804   3.822   3.058
  610SOL    HW2 1966   3.653   3.827   3.039
  611SOL     OW 1967   2.056   0.877   3.197
  611SOL    HW1 1968   2.040   0.933   3.273
  611SOL    HW2 1969   1.983   0.895   3.138
  612SOL     OW 1970   0.144   3.023   1.264
  612SOL    HW1 1971   0.219   3.029   1.323
  612SOL    HW2 1972   0.136   3.110   1.226
  613SOL     OW 1973   1.389   0.399   0.974
  613SOL    HW1 1974   1.376   0.316   1.020
  613SOL    HW2 1975   1.433   0.455   1.038
  614SOL     OW 1976   2.379   0.716   0.400
  614SOL    HW1 1977   2.421   0.634   0.373
  614SOL    HW2 1978   2.293   0.713   0.358
  615SOL     OW 1979   1.850   1.801   3.540
  615SOL    HW1 1980   1.846   1.896   3.541
  615SOL    HW2 1981   1.937   1.781   3.576
  616SOL     OW 1982   3.832   2.955   3.296
  616SOL    HW1 1983   3.815   2.861   3.306
  616SOL    HW2 1984   3.750   2.990   3.260
  617SOL     OW 1985   1.303   0.955   0.966
  617SOL    HW1 1986   1.212   0.940   0.942
  617SOL    HW2 1987   1.321   0.889   1.034
  618SOL     OW 1988   0.895   2.636   1.864
  618SOL    HW1 1989   0.925   2.584   1.789
  618SOL    HW2 1990   0.974   2.681   1.894
  619SOL     OW 1991   0.455   1.328   0.912
  619SOL    HW1 1992   0.445   1.240   0.948
  619SOL    HW2 1993   0.517   1.371   0.972
  620SOL     OW 1994   3.149   0.493   3.887
  620SOL    HW1 1995   3.197   0.455   3.814
  620SOL    HW2 1996   3.165   0.587   3.880
  621SOL     OW 1997   2.186   0.202   3.540
  621SOL    HW1 1998   2.230   0.262   3.599
  621SOL    HW2 1999   2.252   0.135   3.519
  622SOL     OW 2000   3.600   2.144   1.552
  622SOL    HW1 2001   3.692   2.140   1.529
  622SOL    HW2 2002   3.564   2.211   1.494
  623SOL     OW 2003   3.498   2.460   3.878
  623SOL    HW1 2004   3.550   2.540   3.888
  623SOL    HW2 2005   3.436   2.480   3.808
  624SOL     OW 2006   2.729   1.655   1.792
  624SOL    HW1 2007   2.723   1.731   1.850
  624SOL    HW2 2008   2.765   1.690   1.710
  625SOL     OW 2009   1.098   0.308   0.886
  625SOL    HW1 2010   1.025   0.287   0.944
  625SOL    HW2 2011   1.101   0.236   0.823
  626SOL     OW 2012   2.136   3.798   0.823
  626SOL    HW1 2013   2.049   3.837   0.815
  626SOL    HW2 2014   2.123   3.706   0.798
  627SOL     OW 2015   3.311   0.707   0.670
  627SOL    HW1 2016   3.217   0.703   0.691
  627SOL    HW2 2017   3.329   0.801   0.663
  628SOL     OW 2018   0.791   1.846   1.970
  628SOL    HW1 2019   0.701   1.847   2.004
  628SOL    HW2 2020   0.783   1.808   1.883
  629SOL     OW 2021   0.024   0.977   3.562
  629SOL    HW1 2022   0.019   1.061   3.607
  629SOL    HW2 2023  -0.020   0.916   3.622
  630SOL     OW 2024   2.205   0.314   1.151
  630SOL    HW1 2025   2.232   0.403   1.129
  630SOL    HW2 2026   2.114   0.309   1.121
  631SOL     OW 2027   0.489   3.313   0.021
  631SOL    HW1 2028   0.414   3.268   0.059
  631SOL    HW2 2029   0.466   3.406   0.024
  632SOL     OW 2030   3.712   2.253   1.282
  632SOL    HW1 2031   3.723   2.197   1.206
  632SOL    HW2 2032   3.761   2.209   1.352
  633SOL     OW 2033   3.930   2.051   1.984
  633SOL    HW1 2034   3.899   2.090   2.066
  633SOL    HW2 2035   3.857   1.997   1.954
  634SOL     OW 2036   2.953   2.316   0.256
  634SOL    HW1 2037   3.021   2.325   0.323
  634SOL    HW2 2038   2.979   2.377   0.187
  635SOL     OW 2039   2.438   0.300   2.056
  635SOL    HW1 2040   2.415   0.237   1.988
  635SOL    HW2 2041   2.497   0.252   2.114
  636SOL     OW 2042   0.068   1.029   0.376
  636SOL    HW1 2043   0.136   1.079   0.331
  636SOL    HW2 2044   0.115   0.958   0.420
  637SOL     OW 2045   2.212   0.375   0.538
  637SOL    HW1 2046   2.199   0.422   0.456
  637SOL    HW2 2047   2.155   0.420   0.601
  638SOL     OW 2048   3.702   2.833   1.938
  638SOL    HW1 2049   3.641   2.868   1.873
  638SOL    HW2 2050   3.720   2.907   1.996
  639SOL     OW 2051   3.116   0.888   3.393
  639SOL    HW1 2052   3.153   0.847   3.315
  639SOL    HW2 2053   3.125   0.982   3.377
  640SOL     OW 2054   2.526   3.144   3.511
  640SOL    HW1 2055   2.489   3.133   3.598
  640SOL    HW2 2056   2.511   3.060   3.467
  641SOL     OW 2057   3.542   1.796   2.550
  641SOL    HW1 2058   3.543   1.839   2.465
  641SOL    HW2 2059   3.455   1.757   2.557
  642SOL     OW 2060   0.398   1.204   3.561
  642SOL    HW1 2061   0.481   1.246   3.538
  642SOL    HW2 2062   0.343   1.277   3.590
  643SOL     OW 2063   1.792   1.108   3.795
  643SOL    HW1 2064   1.733   1.183   3.794
  643SOL    HW2 2065   1.770   1.059   3.716
  644SOL     OW 2066   2.566   1.322   0.345
  644SOL    HW1 2067   2.644   1.337   0.397
  644SOL    HW2 2068   2.511   1.398   0.362
  645SOL     OW 2069   0.581   0.038   1.018
  645SOL    HW1 2070   0.491   0.007   1.012
  645SOL    HW2 2071   0.589   0.102   0.947
  646SOL     OW 2072   0.914   1.706   3.748
  646SOL    HW1 2073   0.935   1.628   3.799
  646SOL    HW2 2074   0.966   1.775   3.789
  647SOL     OW 2075   2.162   3.498   2.977
  647SOL    HW1 2076   2.237   3.457   2.933
  647SOL    HW2 2077   2.176   3.592   2.965
  648SOL     OW 2078   3.008   1.921   3.559
  648SOL    HW1 2079   2.996   1.991   3.623
  648SOL    HW2 2080   3.099   1.895   3.569
  649SOL     OW 2081   0.437   3.160   2.186
  649SOL    HW1 2082   0.457   3.247   2.152
  649SOL    HW2 2083   0.358   3.133   2.139
  650SOL     OW 2084   1.931   2.262   0.111
  650SOL    HW1 2085   1.863   2.212   0.156
  650SOL    HW2 2086   1.972   2.198   0.052
  651SOL     OW 2087   3.627   0.240   1.443
  651SOL    HW1 2088   3.548   0.234   1.389
  651SOL    HW2 2089   3.597   0.220   1.532
  652SOL     OW 2090   3.024   2.236   3.030
  652SOL    HW1 2091   2.957   2.304   3.028
  652SOL    HW2 2092   2.984   2.163   3.078
  653SOL     OW 2093   2.511   0.219   3.815
  653SOL    HW1 2094   2.486   0.145   3.759
  653SOL    HW2 2095   2.547   0.284   3.754
  654SOL     OW 2096   2.044   0.454   0.035
  654SOL    HW1 2097   2.096   0.374   0.029
  654SOL    HW2 2098   2.098   0.522  -0.005
  655SOL     OW 2099   0.618   3.674   1.510
  655SOL    HW1 2100   0.660   3.624   1.440
  655SOL    HW2 2101   0.530   3.691   1.477
  656SOL     OW 2102   2.554   1.058   2.212
  656SOL    HW1 2103   2.523   0.968   2.210
  656SOL    HW2 2104   2.488   1.107   2.163
  657SOL     OW 2105   3.912   1.022   2.503
  657SOL    HW1 2106   3.863   0.944   2.477
  657SOL    HW2 2107   3.845   1.084   2.529
  658SOL     OW 2108   2.313   0.221   0.305
  658SOL    HW1 2109   2.332   0.132   0.276
  658SOL    HW2 2110   2.295   0.212   0.399
  659SOL     OW 2111   2.161   2.915   0.924
  659SOL    HW1 2112   2.148   3.004   0.891
  659SOL    HW2 2113   2.195   2.927   1.012
  660SOL     OW 2114   0.294   0.504   1.294
  660SOL    HW1 2115   0.240   0.569   1.340
  660SOL    HW2 2116   0.272   0.421   1.336
  661SOL     OW 2117   2.523   2.382   3.062
  661SOL    HW1 2118   2.449   2.344   3.015
  661SOL    HW2 2119   2.564   2.307   3.105
  662SOL     OW 2120   0.583   0.897   0.058
  662SOL    HW1 2121   0.550   0.815   0.020
  662SOL    HW2 2122   0.544   0.900   0.145
  663SOL     OW 2123   2.804   1.767   3.038
  663SOL    HW1 2124   2.781   1.674   3.036
  663SOL    HW2 2125   2.762   1.804   2.960
  664SOL     OW 2126   3.328   1.305   2.837
  664SOL    HW1 2127   3.243   1.276   2.871
  664SOL    HW2 2128   3.309   1.333   2.748
  665SOL     OW 2129   1.840   1.366   0.821
  665SOL    HW1 2130   1.830   1.334   0.911
  665SOL    HW2 2131   1.920   1.419   0.824
  666SOL     OW 2132   0.256   0.526   0.019
  666SOL    HW1 2133   0.177   0.568   0.053
  666SOL    HW2 2134   0.260   0.442   0.064
  667SOL     OW 2135   3.553   1.616   3.714
  667SOL    HW1 2136   3.556   1.695   3.768
  667SOL    HW2 2137   3.531   1.546   3.775
  668SOL     OW 2138   2.805   2.072   0.507
  668SOL    HW1 2139   2.757   2.123   0.442
  668SOL    HW2 2140   2.829   2.136   0.574
  669SOL     OW 2141   0.156   0.632   0.261
  669SOL    HW1 2142   0.111   0.577   0.326
  669SOL    HW2 2143   0.245   0.640   0.294
  670SOL     OW 2144   0.703   1.336   3.523
  670SOL    HW1 2145   0.731   1.428   3.526
  670SOL    HW2 2146   0.756   1.298   3.453
  671SOL     OW 2147   0.285   0.195   1.462
  671SOL    HW1 2148   0.376   0.184   1.436
  671SOL    HW2 2149   0.236   0.182   1.381
  672SOL     OW 2150   0.405   1.813   1.678
  672SOL    HW1 2151   0.331   1.783   1.729
  672SOL    HW2 2152   0.382   1.902   1.650
  673SOL     OW 2153   2.606   0.230   2.367
  673SOL    HW1 2154   2.544   0.167   2.403
  673SOL    HW2 2155   2.692   0.189   2.380
  674SOL     OW 2156   0.778   2.878   0.538
  674SOL    HW1 2157   0.806   2.817   0.469
  674SOL    HW2 2158   0.755   2.822   0.612
  675SOL     OW 2159   2.127   0.321   2.509
  675SOL    HW1 2160   2.191   0.366   2.563
  675SOL    HW2 2161   2.132   0.366   2.424
  676SOL     OW 2162   3.226   3.191   0.816
  676SOL    HW1 2163   3.220   3.165   0.724
  676SOL    HW2 2164   3.300   3.251   0.819
  677SOL     OW 2165   1.092   0.133   3.349
  677SOL    HW1 2166   1.146   0.204   3.384
  677SOL    HW2 2167   1.012   0.136   3.402
  678SOL     OW 2168   0.579   0.287   2.279
  678SOL    HW1 2169   0.524   0.229   2.226
  678SOL    HW2 2170   0.577   0.249   2.367
  679SOL     OW 2171   0.655   1.695   3.871
  679SOL    HW1 2172   0.717   1.653   3.812
  679SOL    HW2 2173   0.703   1.770   3.907
  680SOL     OW 2174   1.606   0.463   0.263
  680SOL    HW1 2175   1.628   0.430   0.350
  680SOL    HW2 2176   1.670   0.531   0.246
  681SOL     OW 2177   1.334   3.410   2.942
  681SOL    HW1 2178   1.294   3.336   2.988
  681SOL    HW2 2179   1.279   3.485   2.966
  682SOL     OW 2180   0.919   1.223   2.294
  682SOL    HW1 2181   0.981   1.269   2.350
  682SOL    HW2 2182   0.835   1.231   2.340
  683SOL     OW 2183   3.675   1.841   2.763
  683SOL    HW1 2184   3.617   1.812   2.693
  683SOL    HW2 2185   3.763   1.827   2.728
  684SOL     OW 2186   0.759   2.868   3.277
  684SOL    HW1 2187   0.819   2.795   3.259
  684SOL    HW2 2188   0.682   2.849   3.223
  685SOL     OW 2189   3.625   2.883   3.135
  685SOL    HW1 2190   3.598   2.815   3.073
  685SOL    HW2 2191   3.582   2.963   3.104
  686SOL     OW 2192   3.238   1.005   0.594
  686SOL    HW1 2193   3.184   1.016   0.516
  686SOL    HW2 2194   3.327   1.022   0.565
  687SOL     OW 2195   1.960   2.095   2.186
  687SOL    HW1 2196   1.890   2.117   2.248
  687SOL    HW2 2197   2.040   2.103   2.238
  688SOL     OW 2198   3.232   2.805   0.975
  688SOL    HW1 2199   3.238   2.837   0.885
  688SOL    HW2 2200   3.217   2.711   0.966
  689SOL     OW 2201   2.646   1.284   1.307
  689SOL    HW1 2202   2.559   1.274   1.346
  689SOL    HW2 2203   2.679   1.366   1.343
  690SOL     OW 2204   3.467   2.662   1.933
  690SOL    HW1 2205   3.469   2.738   1.991
  690SOL    HW2 2206   3.555   2.626   1.938
  691SOL     OW 2207   2.486   1.365   2.876
  691SOL    HW1 2208   2.557   1.307   2.900
  691SOL    HW2 2209   2.529   1.444   2.842
  692SOL     OW 2210   3.781   3.040   1.685
  692SOL    HW1 2211   3.713   3.019   1.622
  692SOL    HW2 2212   3.739   3.101   1.746
  693SOL     OW 2213   3.608   1.253   2.832
  693SOL    HW1 2214   3.627   1.338   2.871
  693SOL    HW2 2215   3.520   1.261   2.796
  694SOL     OW 2216   1.289   1.601   1.455
  694SOL    HW1 2217   1.291   1.596   1.551
  694SOL    HW2 2218   1.379   1.579   1.428
  695SOL     OW 2219   0.597   0.494   0.324
  695SOL    HW1 2220   0.657   0.518   0.253
  695SOL    HW2 2221   0.534   0.435   0.283
  696SOL     OW 2222   3.385   3.433   0.546
  696SOL    HW1 2223   3.316   3.499   0.540
  696SOL    HW2 2224   3.449   3.470   0.606
  697SOL     OW 2225   1.054   1.031   1.750
  697SOL    HW1 2226   1.086   1.096   1.688
  697SOL    HW2 2227   0.958   1.042   1.749
  698SOL     OW 2228   3.473   3.863   1.533
  698SOL    HW1 2229   3.552   3.815   1.509
  698SOL    HW2 2230   3.452   3.831   1.621
  699SOL     OW 2231   2.002   2.829   2.578
  699SOL    HW1 2232   1.944   2.895   2.617
  699SOL    HW2 2233   2.083   2.877   2.559
  700SOL     OW 2234   0.233   2.416   0.916
  700SOL    HW1 2235   0.225   2.362   0.995
  700SOL    HW2 2236   0.154   2.396   0.866
  701SOL     OW 2237   1.831   1.098   0.751
  701SOL    HW1 2238   1.752   1.083   0.697
  701SOL    HW2 2239   1.823   1.188   0.780
  702SOL     OW 2240   3.780   1.274   0.993
  702SOL    HW1 2241   3.861   1.227   0.976
  702SOL    HW2 2242   3.763   1.324   0.913
  703SOL     OW 2243   2.259   2.722   3.528
  703SOL    HW1 2244   2.282   2.665   3.601
  703SOL    HW2 2245   2.257   2.810   3.566
  704SOL     OW 2246   3.802   0.185   2.930
  704SOL    HW1 2247   3.867   0.140   2.877
  704SOL    HW2 2248   3.733   0.210   2.868
  705SOL     OW 2249   3.057   1.095   0.764
  705SOL    HW1 2250   3.028   1.017   0.812
  705SOL    HW2 2251   3.128   1.064   0.708
  706SOL     OW 2252   1.146   1.882   3.799
  706SOL    HW1 2253   1.141   1.976   3.818
  706SOL    HW2 2254   1.207   1.848   3.865
  707SOL     OW 2255   2.444   0.059   3.565
  707SOL    HW1 2256   2.496   0.091   3.491
  707SOL    HW2 2257   2.449  -0.036   3.558
  708SOL     OW 2258   0.140   3.017   0.316
  708SOL    HW1 2259   0.233   3.036   0.327
  708SOL    HW2 2260   0.095   3.095   0.350
  709SOL     OW 2261   1.019   3.128   0.041
  709SOL    HW1 2262   1.085   3.169   0.097
  709SOL    HW2 2263   0.984   3.199  -0.012
  710SOL     OW 2264   0.106   2.741   3.139
  710SOL    HW1 2265   0.152   2.817   3.176
  710SOL    HW2 2266   0.159   2.666   3.166
  711SOL     OW 2267   3.421   0.806   2.826
  711SOL    HW1 2268   3.454   0.895   2.839
  711SOL    HW2 2269   3.468   0.773   2.749
  712SOL     OW 2270   1.711   2.736   3.700
  712SOL    HW1 2271   1.642   2.679   3.665
  712SOL    HW2 2272   1.792   2.697   3.667
  713SOL     OW 2273   1.252   3.662   3.438
  713SOL    HW1 2274   1.219   3.592   3.382
  713SOL    HW2 2275   1.245   3.741   3.385
  714SOL     OW 2276   2.598   1.124   0.872
  714SOL    HW1 2277   2.517   1.076   0.858
  714SOL    HW2 2278   2.645   1.075   0.940
  715SOL     OW 2279   0.188   1.686   3.531
  715SOL    HW1 2280   0.256   1.666   3.594
  715SOL    HW2 2281   0.233   1.734   3.462
  716SOL     OW 2282   0.743   1.843   3.196
  716SOL    HW1 2283   0.715   1.893   3.272
  716SOL    HW2 2284   0.668   1.786   3.176
  717SOL     OW 2285   2.902   3.237   3.099
  717SOL    HW1 2286   2.860   3.320   3.122
  717SOL    HW2 2287   2.941   3.252   3.013
  718SOL     OW 2288   3.095   3.780  -0.001
  718SOL    HW1 2289   3.171   3.836   0.016
  718SOL    HW2 2290   3.130   3.691   0.002
  719SOL     OW 2291   0.661   2.381   1.923
  719SOL    HW1 2292   0.726   2.451   1.929
  719SOL    HW2 2293   0.639   2.361   2.014
  720SOL     OW 2294   2.958   1.517   2.331
  720SOL    HW1 2295   2.882   1.460   2.318
  720SOL    HW2 2296   2.987   1.538   2.243
  721SOL     OW 2297   2.567   2.295   2.554
  721SOL    HW1 2298   2.473   2.277   2.554
  721SOL    HW2 2299   2.580   2.356   2.627
  722SOL     OW 2300   3.042   1.887   2.646
  722SOL    HW1 2301   3.085   1.967   2.677
  722SOL    HW2 2302   2.984   1.862   2.718
  723SOL     OW 2303   1.033   0.900   3.316
  723SOL    HW1 2304   0.966   0.886   3.383
  723SOL    HW2 2305   1.013   0.836   3.248
  724SOL     OW 2306   1.702   2.846   3.282
  724SOL    HW1 2307   1.643   2.801   3.221
  724SOL    HW2 2308   1.764   2.778   3.310
  725SOL     OW 2309   3.434   0.561   0.498
  725SOL    HW1 2310   3.389   0.616   0.562
  725SOL    HW2 2311   3.440   0.475   0.539
  726SOL     OW 2312   1.349   2.066   0.753
  726SOL    HW1 2313   1.301   2.082   0.673
  726SOL    HW2 2314   1.350   2.150   0.798
  727SOL     OW 2315   2.905   2.479   1.019
  727SOL    HW1 2316   2.896   2.435   1.103
  727SOL    HW2 2317   2.995   2.461   0.992
  728SOL     OW 2318   0.188   0.748   2.601
  728SOL    HW1 2319   0.163   0.706   2.519
  728SOL    HW2 2320   0.251   0.688   2.640
  729SOL     OW 2321   2.133   1.739   1.638
  729SOL    HW1 2322   2.131   1.652   1.599
  729SOL    HW2 2323   2.186   1.791   1.576
  730SOL     OW 2324   2.393   1.323   3.301
  730SOL    HW1 2325   2.467   1.263   3.312
  730SOL    HW2 2326   2.331   1.298   3.369
  731SOL     OW 2327   2.284   0.520   2.593
  731SOL    HW1 2328   2.271   0.596   2.650
  731SOL    HW2 2329   2.364   0.540   2.544
  732SOL     OW 2330   3.657   2.027   1.083
  732SOL    HW1 2331   3.726   1.987   1.030
  732SOL    HW2 2332   3.600   2.069   1.019
  733SOL     OW 2333   1.780   3.809   2.542
  733SOL    HW1 2334   1.850   3.836   2.483
  733SOL    HW2 2335   1.822   3.748   2.603
  734SOL     OW 2336   0.265   3.777   3.788
  734SOL    HW1 2337   0.208   3.845   3.822
  734SOL    HW2 2338   0.217   3.741   3.713
  735SOL     OW 2339   3.394   1.521   0.411
  735SOL    HW1 2340   3.308   1.546   0.445
  735SOL    HW2 2341   3.394   1.425   0.415
  736SOL     OW 2342   0.887   0.937   2.330
  736SOL    HW1 2343   0.888   0.906   2.240
  736SOL    HW2 2344   0.890   1.033   2.323
  737SOL     OW 2345   2.691   1.932   1.841
  737SOL    HW1 2346   2.671   1.912   1.750
  737SOL    HW2 2347   2.657   2.020   1.854
  738SOL     OW 2348   3.743   2.821   0.896
  738SOL    HW1 2349   3.727   2.898   0.951
  738SOL    HW2 2350   3.825   2.785   0.929
  739SOL     OW 2351   3.054   3.097   1.598
  739SOL    HW1 2352   3.061   3.024   1.537
  739SOL    HW2 2353   3.075   3.060   1.684
  740SOL     OW 2354   0.228   1.274   3.170
  740SOL    HW1 2355   0.300   1.251   3.229
  740SOL    HW2 2356   0.232   1.207   3.101
  741SOL     OW 2357   3.173   1.805   1.874
  741SOL    HW1 2358   3.237   1.735   1.886
  741SOL    HW2 2359   3.158   1.809   1.780
  742SOL     OW 2360   2.763   0.663   2.760
  742SOL    HW1 2361   2.777   0.745   2.712
  742SOL    HW2 2362   2.667   0.654   2.764
  743SOL     OW 2363   0.283   1.937   0.712
  743SOL    HW1 2364   0.354   1.882   0.745
  743SOL    HW2 2365   0.208   1.877   0.708
  744SOL     OW 2366   2.377   3.532   1.328
  744SOL    HW1 2367   2.421   3.494   1.404
  744SOL    HW2 2368   2.384   3.626   1.342
  745SOL     OW 2369   1.178   1.249   3.805
  745SOL    HW1 2370   1.238   1.321   3.784
  745SOL    HW2 2371   1.162   1.206   3.721
  746SOL     OW 2372   2.602   1.907   2.871
  746SOL    HW1 2373   2.517   1.925   2.911
  746SOL    HW2 2374   2.585   1.836   2.809
  747SOL     OW 2375   0.376   1.057   1.031
  747SOL    HW1 2376   0.465   1.023   1.032
  747SOL    HW2 2377   0.321   0.980   1.019
  748SOL     OW 2378   3.284   2.937   2.885
  748SOL    HW1 2379   3.321   2.859   2.843
  748SOL    HW2 2380   3.361   2.991   2.905
  749SOL     OW 2381   0.148   0.093   3.781
  749SOL    HW1 2382   0.172   0.110   3.872
  749SOL    HW2 2383   0.077   0.154   3.763
  750SOL     OW 2384   2.046   1.752   1.357
  750SOL    HW1 2385   2.062   1.680   1.419
  750SOL    HW2 2386   2.101   1.732   1.282
  751SOL     OW 2387   3.334   2.750   0.068
  751SOL    HW1 2388   3.362   2.663   0.097
  751SOL    HW2 2389   3.410   2.786   0.023
  752SOL     OW 2390   0.262   3.019   2.001
  752SOL    HW1 2391   0.231   3.019   2.092
  752SOL    HW2 2392   0.194   3.066   1.953
  753SOL     OW 2393   1.576   2.706   3.084
  753SOL    HW1 2394   1.509   2.648   3.046
  753SOL    HW2 2395   1.604   2.761   3.010
  754SOL     OW 2396   0.345   3.896   2.381
  754SOL    HW1 2397   0.404   3.960   2.422
  754SOL    HW2 2398   0.263   3.944   2.368
  755SOL     OW 2399   0.551   3.817   0.602
  755SOL    HW1 2400   0.639   3.825   0.640
  755SOL    HW2 2401   0.566   3.807   0.508
  756SOL     OW 2402   3.692   3.557   2.472
  756SOL    HW1 2403   3.754   3.550   2.544
  756SOL    HW2 2404   3.731   3.504   2.402
  757SOL     OW 2405   1.264   3.076   3.385
  757SOL    HW1 2406   1.327   3.011   3.416
  757SOL    HW2 2407   1.182   3.027   3.377
  758SOL     OW 2408   2.906   1.186   0.538
  758SOL    HW1 2409   2.935   1.141   0.618
  758SOL    HW2 2410   2.814   1.207   0.555
  759SOL     OW 2411   3.332   2.875   2.097
  759SOL    HW1 2412   3.259   2.858   2.038
  759SOL    HW2 2413   3.328   2.804   2.162
  760SOL     OW 2414   3.621   2.642   0.738
  760SOL    HW1 2415   3.632   2.707   0.807
  760SOL    HW2 2416   3.710   2.617   0.714
  761SOL     OW 2417   2.702   1.671   3.421
  761SOL    HW1 2418   2.749   1.588   3.432
  761SOL    HW2 2419   2.615   1.645   3.391
  762SOL     OW 2420   2.522   0.144   0.585
  762SOL    HW1 2421   2.454   0.078   0.568
  762SOL    HW2 2422   2.555   0.123   0.672
  763SOL     OW 2423   1.413   3.105   3.699
  763SOL    HW1 2424   1.446   3.113   3.609
  763SOL    HW2 2425   1.338   3.164   3.703
  764SOL     OW 2426   2.005   2.642   3.182
  764SOL    HW1 2427   1.936   2.577   3.195
  764SOL    HW2 2428   1.977   2.691   3.104
  765SOL     OW 2429   0.052   1.821   0.452
  765SOL    HW1 2430   0.020   1.911   0.458
  765SOL    HW2 2431  -0.002   1.781   0.384
  766SOL     OW 2432   0.922   1.750   1.643
  766SOL    HW1 2433   0.861   1.697   1.693
  766SOL    HW2 2434   1.007   1.737   1.686
  767SOL     OW 2435   1.200   3.606   2.290
  767SOL    HW1 2436   1.202   3.532   2.351
  767SOL    HW2 2437   1.287   3.606   2.249
  768SOL     OW 2438   2.677   2.149   3.418
  768SOL    HW1 2439   2.641   2.125   3.332
  768SOL    HW2 2440   2.749   2.088   3.431
  769SOL     OW 2441   2.130   0.132   2.036
  769SOL    HW1 2442   2.052   0.110   2.086
  769SOL    HW2 2443   2.203   0.097   2.087
  770SOL     OW 2444   2.191   1.100   2.898
  770SOL    HW1 2445   2.142   1.069   2.821
  770SOL    HW2 2446   2.134   1.167   2.937
  771SOL     OW 2447   2.707   0.953   0.539
  771SOL    HW1 2448   2.616   0.968   0.566
  771SOL    HW2 2449   2.715   0.858   0.535
  772SOL     OW 2450   3.598   2.695   3.589
  772SOL    HW1 2451   3.626   2.696   3.498
  772SOL    HW2 2452   3.678   2.706   3.640
  773SOL     OW 2453   3.012   2.605   0.408
  773SOL    HW1 2454   3.072   2.531   0.398
  773SOL    HW2 2455   3.064   2.681   0.384
  774SOL     OW 2456   3.436   1.780   0.591
  774SOL    HW1 2457   3.396   1.755   0.674
  774SOL    HW2 2458   3.518   1.731   0.587
  775SOL     OW 2459   0.747   2.287   3.487
  775SOL    HW1 2460   0.701   2.207   3.460
  775SOL    HW2 2461   0.718   2.353   3.424
  776SOL     OW 2462   0.511   3.184   2.453
  776SOL    HW1 2463   0.426   3.148   2.477
  776SOL    HW2 2464   0.513   3.181   2.358
  777SOL     OW 2465   3.726  -0.010   3.891
  777SOL    HW1 2466   3.666   0.052   3.850
  777SOL    HW2 2467   3.756   0.034   3.970
  778SOL     OW 2468   1.523   1.736   0.630
  778SOL    HW1 2469   1.579   1.813   0.642
  778SOL    HW2 2470   1.579   1.673   0.585
  779SOL     OW 2471   3.663   0.986   2.779
  779SOL    HW1 2472   3.670   0.975   2.874
  779SOL    HW2 2473   3.634   1.076   2.767
  780SOL     OW 2474   2.227   0.743   2.751
  780SOL    HW1 2475   2.214   0.805   2.679
  780SOL    HW2 2476   2.145   0.745   2.800
  781SOL     OW 2477   0.493   3.712   0.350
  781SOL    HW1 2478   0.519   3.621   0.332
  781SOL    HW2 2479   0.512   3.759   0.269
  782SOL     OW 2480   3.007   2.840   2.056
  782SOL    HW1 2481   3.036   2.910   1.997
  782SOL    HW2 2482   3.062   2.766   2.034
  783SOL     OW 2483   0.141   2.207   2.488
  783SOL    HW1 2484   0.153   2.134   2.549
  783SOL    HW2 2485   0.135   2.284   2.544
  784SOL     OW 2486   3.532   3.468   0.300
  784SOL    HW1 2487   3.470   3.533   0.331
  784SOL    HW2 2488   3.507   3.451   0.209
  785SOL     OW 2489   3.643   0.538   3.899
  785SOL    HW1 2490   3.596   0.581   3.971
  785SOL    HW2 2491   3.658   0.608   3.836
  786SOL     OW 2492   3.346   0.536   0.192
  786SOL    HW1 2493   3.339   0.490   0.276
  786SOL    HW2 2494   3.409   0.484   0.142
  787SOL     OW 2495   0.343   2.327   1.660
  787SOL    HW1 2496   0.400   2.397   1.692
  787SOL    HW2 2497   0.347   2.334   1.565
  788SOL     OW 2498   1.198   0.290   3.540
  788SOL    HW1 2499   1.159   0.298   3.627
  788SOL    HW2 2500   1.286   0.256   3.557
  789SOL     OW 2501   1.070   3.794   2.734
  789SOL    HW1 2502   1.003   3.753   2.679
  789SOL    HW2 2503   1.129   3.836   2.672
  790SOL     OW 2504   1.089   3.869   0.195
  790SOL    HW1 2505   1.009   3.891   0.147
  790SOL    HW2 2506   1.095   3.774   0.189
  791SOL     OW 2507   1.157   0.779   0.099
  791SOL    HW1 2508   1.167   0.874   0.103
  791SOL    HW2 2509   1.083   0.760   0.157
  792SOL     OW 2510   3.503   1.930   2.985
  792SOL    HW1 2511   3.415   1.929   2.947
  792SOL    HW2 2512   3.562   1.926   2.909
  793SOL     OW 2513   2.224   2.860   2.975
  793SOL    HW1 2514   2.301   2.805   2.960
  793SOL    HW2 2515   2.258   2.943   3.005
  794SOL     OW 2516   2.661   0.532   1.805
  794SOL    HW1 2517   2.665   0.440   1.833
  794SOL    HW2 2518   2.567   0.551   1.801
  795SOL     OW 2519   3.466   2.633   1.655
  795SOL    HW1 2520   3.471   2.660   1.747
  795SOL    HW2 2521   3.486   2.540   1.657
  796SOL     OW 2522   1.777   1.338   0.095
  796SOL    HW1 2523   1.762   1.322   0.002
  796SOL    HW2 2524   1.804   1.430   0.100
  797SOL     OW 2525   2.429   0.830   2.205
  797SOL    HW1 2526   2.452   0.770   2.133
  797SOL    HW2 2527   2.339   0.855   2.188
  798SOL     OW 2528   2.560   0.539   3.335
  798SOL    HW1 2529   2.582   0.608   3.273
  798SOL    HW2 2530   2.615   0.557   3.412
  799SOL     OW 2531   3.001   3.877   0.495
  799SOL    HW1 2532   3.012   3.869   0.590
  799SOL    HW2 2533   3.090   3.885   0.461
  800SOL     OW 2534   1.454   3.116   0.569
  800SOL    HW1 2535   1.455   3.173   0.646
  800SOL    HW2 2536   1.547   3.104   0.547
  801SOL     OW 2537   3.270   0.028   0.435
  801SOL    HW1 2538   3.267   0.121   0.411
  801SOL    HW2 2539   3.316   0.026   0.518
  802SOL     OW 2540   3.403   3.034   1.740
  802SOL    HW1 2541   3.460   3.085   1.682
  802SOL    HW2 2542   3.433   3.054   1.828
  803SOL     OW 2543   3.348   3.899   2.244
  803SOL    HW1 2544   3.392   3.814   2.255
  803SOL    HW2 2545   3.330   3.928   2.334
  804SOL     OW 2546   2.750   2.706   3.753
  804SOL    HW1 2547   2.718   2.704   3.662
  804SOL    HW2 2548   2.835   2.749   3.747
  805SOL     OW 2549   0.265   1.961   2.717
  805SOL    HW1 2550   0.332   2.018   2.679
  805SOL    HW2 2551   0.314   1.896   2.768
  806SOL     OW 2552   2.603   3.088   3.190
  806SOL    HW1 2553   2.550   3.036   3.250
  806SOL    HW2 2554   2.690   3.048   3.193
  807SOL     OW 2555   3.797   0.079   1.327
  807SOL    HW1 2556   3.808   0.006   1.388
  807SOL    HW2 2557   3.735   0.137   1.372
  808SOL     OW 2558   0.839   0.290   3.003
  808SOL    HW1 2559   0.842   0.226   2.932
  808SOL    HW2 2560   0.930   0.317   3.015
  809SOL     OW 2561   2.622   3.441   0.196
  809SOL    HW1 2562   2.527   3.450   0.183
  809SOL    HW2 2563   2.653   3.531   0.207
  810SOL     OW 2564   2.531   1.917   3.291
  810SOL    HW1 2565   2.585   1.853   3.339
  810SOL    HW2 2566   2.506   1.871   3.211
  811SOL     OW 2567   3.099   3.444   1.379
  811SOL    HW1 2568   3.016   3.462   1.423
  811SOL    HW2 2569   3.074   3.398   1.299
  812SOL     OW 2570   1.501   1.528   0.863
  812SOL    HW1 2571   1.538   1.588   0.799
  812SOL    HW2 2572   1.406   1.542   0.856
  813SOL     OW 2573   2.858   3.145   0.991
  813SOL    HW1 2574   2.924   3.091   0.947
  813SOL    HW2 2575   2.791   3.084   1.019
  814SOL     OW 2576   2.777   0.297   2.098
  814SOL    HW1 2577   2.770   0.204   2.078
  814SOL    HW2 2578   2.831   0.301   2.177
  815SOL     OW 2579   1.765   2.264   2.783
  815SOL    HW1 2580   1.753   2.249   2.689
  815SOL    HW2 2581   1.683   2.306   2.811
  816SOL     OW 2582   3.829   2.357   0.013
  816SOL    HW1 2583   3.765   2.294   0.046
  816SOL    HW2 2584   3.833   2.424   0.082
  817SOL     OW 2585   1.157   0.905   0.614
  817SOL    HW1 2586   1.093   0.834   0.614
  817SOL    HW2 2587   1.238   0.865   0.584
  818SOL     OW 2588   1.239   0.419   3.101
  818SOL    HW1 2589   1.302   0.353   3.131
  818SOL    HW2 2590   1.275   0.502   3.133
  819SOL     OW 2591   0.152   1.788   0.122
  819SOL    HW1 2592   0.086   1.808   0.056
  819SOL    HW2 2593   0.103   1.783   0.204
  820SOL     OW 2594   0.173   3.382   0.630
  820SOL    HW1 2595   0.216   3.462   0.602
  820SOL    HW2 2596   0.243   3.325   0.661
  821SOL     OW 2597   0.160   1.748   2.902
  821SOL    HW1 2598   0.117   1.775   2.984
  821SOL    HW2 2599   0.140   1.819   2.841
  822SOL     OW 2600   1.928   2.790   1.345
  822SOL    HW1 2601   1.938   2.865   1.403
  822SOL    HW2 2602   2.009   2.788   1.294
  823SOL     OW 2603   3.783   3.206   1.458
  823SOL    HW1 2604   3.734   3.134   1.419
  823SOL    HW2 2605   3.800   3.178   1.548
  824SOL     OW 2606   1.876   1.821   1.778
  824SOL    HW1 2607   1.905   1.730   1.773
  824SOL    HW2 2608   1.946   1.871   1.735
  825SOL     OW 2609   0.368   3.875   3.010
  825SOL    HW1 2610   0.381   3.945   3.074
  825SOL    HW2 2611   0.448   3.822   3.015
  826SOL     OW 2612   2.889   2.975   2.702
  826SOL    HW1 2613   2.891   2.911   2.631
  826SOL    HW2 2614   2.822   3.038   2.676
  827SOL     OW 2615   2.390   0.404   3.596
  827SOL    HW1 2616   2.462   0.442   3.647
  827SOL    HW2 2617   2.331   0.477   3.580
  828SOL     OW 2618   3.626   1.185   1.732
  828SOL    HW1 2619   3.630   1.161   1.640
  828SOL    HW2 2620   3.539   1.156   1.760
  829SOL     OW 2621   2.948   0.635   0.048
  829SOL    HW1 2622   2.871   0.596   0.089
  829SOL    HW2 2623   3.013   0.565   0.046
  830SOL     OW 2624   1.176   1.744   1.717
  830SOL    HW1 2625   1.217   1.818   1.673
  830SOL    HW2 2626   1.207   1.751   1.808
  831SOL     OW 2627   3.708   3.357   1.110
  831SOL    HW1 2628   3.646   3.395   1.173
  831SOL    HW2 2629   3.668   3.275   1.083
  832SOL     OW 2630   1.282   3.355   3.438
  832SOL    HW1 2631   1.188   3.372   3.440
  832SOL    HW2 2632   1.289   3.262   3.416
  833SOL     OW 2633   3.706   3.729   1.567
  833SOL    HW1 2634   3.750   3.700   1.646
  833SOL    HW2 2635   3.703   3.651   1.510
  834SOL     OW 2636   0.459   2.538   2.854
  834SOL    HW1 2637   0.532   2.480   2.877
  834SOL    HW2 2638   0.426   2.569   2.937
  835SOL     OW 2639   2.269   0.302   0.866
  835SOL    HW1 2640   2.183   0.337   0.891
  835SOL    HW2 2641   2.321   0.380   0.845
  836SOL     OW 2642   0.772   3.313   2.208
  836SOL    HW1 2643   0.758   3.394   2.159
  836SOL    HW2 2644   0.758   3.338   2.300
  837SOL     OW 2645   0.415   2.795   3.696
  837SOL    HW1 2646   0.492   2.749   3.728
  837SOL    HW2 2647   0.362   2.727   3.654
  838SOL     OW 2648   3.503   3.056   1.996
  838SOL    HW1 2649   3.436   2.994   2.023
  838SOL    HW2 2650   3.574   3.045   2.059
  839SOL     OW 2651   0.525   0.580   3.202
  839SOL    HW1 2652   0.525   0.631   3.283
  839SOL    HW2 2653   0.511   0.644   3.133
  840SOL     OW 2654   3.059   1.859   1.622
  840SOL    HW1 2655   3.028   1.773   1.594
  840SOL    HW2 2656   3.022   1.919   1.558
  841SOL     OW 2657   1.792   1.603   0.054
  841SOL    HW1 2658   1.804   1.659  -0.023
  841SOL    HW2 2659   1.817   1.659   0.127
  842SOL     OW 2660   1.690   1.888   3.204
  842SOL    HW1 2661   1.775   1.851   3.225
  842SOL    HW2 2662   1.627   1.833   3.250
  843SOL     OW 2663   0.983   2.317   2.522
  843SOL    HW1 2664   0.924   2.367   2.466
  843SOL    HW2 2665   1.066   2.317   2.475
  844SOL     OW 2666   2.479   0.456   2.328
  844SOL    HW1 2667   2.511   0.370   2.354
  844SOL    HW2 2668   2.532   0.480   2.253
  845SOL     OW 2669   3.606   2.391   2.505
  845SOL    HW1 2670   3.585   2.440   2.425
  845SOL    HW2 2671   3.524   2.387   2.554
  846SOL     OW 2672   1.546   1.122   3.335
  846SOL    HW1 2673   1.471   1.066   3.314
  846SOL    HW2 2674   1.519   1.171   3.413
  847SOL     OW 2675   1.761   3.129   2.504
  847SOL    HW1 2676   1.851   3.151   2.480
  847SOL    HW2 2677   1.769   3.081   2.587
  848SOL     OW 2678   0.781   1.508   0.574
  848SOL    HW1 2679   0.810   1.423   0.542
  848SOL    HW2 2680   0.745   1.552   0.496
  849SOL     OW 2681   1.436   0.146   3.589
  849SOL    HW1 2682   1.526   0.121   3.567
  849SOL    HW2 2683   1.406   0.078   3.649
  850SOL     OW 2684   2.550   1.367   1.019
  850SOL    HW1 2685   2.569   1.285   0.973
  850SOL    HW2 2686   2.468   1.349   1.066
  851SOL     OW 2687   2.142   1.689   0.472
  851SOL    HW1 2688   2.138   1.624   0.402
  851SOL    HW2 2689   2.132   1.773   0.427
  852SOL     OW 2690   3.531   3.538   0.741
  852SOL    HW1 2691   3.614   3.544   0.788
  852SOL    HW2 2692   3.467   3.580   0.799
  853SOL     OW 2693   2.810   2.237   2.596
  853SOL    HW1 2694   2.816   2.142   2.585
  853SOL    HW2 2695   2.729   2.262   2.552
  854SOL     OW 2696   1.653   1.778   2.936
  854SOL    HW1 2697   1.680   1.830   3.013
  854SOL    HW2 2698   1.559   1.791   2.931
  855SOL     OW 2699   1.436   0.942   2.525
  855SOL    HW1 2700   1.396   0.877   2.583
  855SOL    HW2 2701   1.439   0.901   2.439
  856SOL     OW 2702   2.527   3.786   3.474
  856SOL    HW1 2703   2.543   3.850   3.404
  856SOL    HW2 2704   2.602   3.794   3.532
  857SOL     OW 2705   1.835   3.948   3.795
  857SOL    HW1 2706   1.837   3.855   3.816
  857SOL    HW2 2707   1.927   3.974   3.792
  858SOL     OW 2708   0.494   0.864   1.608
  858SOL    HW1 2709   0.530   0.950   1.630
  858SOL    HW2 2710   0.571   0.809   1.593
  859SOL     OW 2711   0.541   0.913   0.344
  859SOL    HW1 2712   0.505   0.963   0.418
  859SOL    HW2 2713   0.627   0.953   0.328
  860SOL     OW 2714   3.288   3.173   0.452
  860SOL    HW1 2715   3.325   3.252   0.490
  860SOL    HW2 2716   3.261   3.198   0.364
  861SOL     OW 2717   2.040   0.919   1.475
  861SOL    HW1 2718   2.070   0.988   1.534
  861SOL    HW2 2719   2.018   0.846   1.533
  862SOL     OW 2720   0.745   1.526   2.767
  862SOL    HW1 2721   0.761   1.587   2.839
  862SOL    HW2 2722   0.719   1.581   2.694
  863SOL     OW 2723   2.211   3.651   2.178
  863SOL    HW1 2724   2.197   3.566   2.136
  863SOL    HW2 2725   2.306   3.663   2.177
  864SOL     OW 2726   3.750   3.591   0.523
  864SOL    HW1 2727   3.685   3.572   0.456
  864SOL    HW2 2728   3.701   3.585   0.605
  865SOL     OW 2729   2.834   0.454   3.770
  865SOL    HW1 2730   2.875   0.496   3.694
  865SOL    HW2 2731   2.883   0.488   3.844
  866SOL     OW 2732   0.054   3.715   1.404
  866SOL    HW1 2733   0.027   3.786   1.463
  866SOL    HW2 2734  -0.027   3.690   1.359
  867SOL     OW 2735   3.908   0.236   3.641
  867SOL    HW1 2736   3.815   0.241   3.617
  867SOL    HW2 2737   3.935   0.327   3.656
  868SOL     OW 2738   3.570   2.079   1.805
  868SOL    HW1 2739   3.568   2.129   1.723
  868SOL    HW2 2740   3.487   2.099   1.848
  869SOL     OW 2741   3.342   0.247   0.115
  869SOL    HW1 2742   3.294   0.286   0.188
  869SOL    HW2 2743   3.277   0.194   0.068
  870SOL     OW 2744   0.877   1.564   3.471
  870SOL    HW1 2745   0.802   1.623   3.464
  870SOL    HW2 2746   0.928   1.597   3.545
  871SOL     OW 2747   2.697   2.417   1.698
  871SOL    HW1 2748   2.700   2.348   1.633
  871SOL    HW2 2749   2.612   2.405   1.742
  872SOL     OW 2750   2.263   3.809   2.532
  872SOL    HW1 2751   2.195   3.741   2.536
  872SOL    HW2 2752   2.268   3.844   2.621
  873SOL     OW 2753   3.312   2.163   0.292
  873SOL    HW1 2754   3.378   2.121   0.347
  873SOL    HW2 2755   3.285   2.095   0.230
  874SOL     OW 2756   1.909   1.670   3.106
  874SOL    HW1 2757   1.952   1.755   3.102
  874SOL    HW2 2758   1.912   1.637   3.016
  875SOL     OW 2759   0.062   1.767   3.188
  875SOL    HW1 2760  -0.025   1.794   3.216
  875SOL    HW2 2761   0.074   1.681   3.228
  876SOL     OW 2762   2.749   2.120   0.204
  876SOL    HW1 2763   2.793   2.064   0.141
  876SOL    HW2 2764   2.792   2.205   0.195
  877SOL     OW 2765   1.750   0.769   3.084
  877SOL    HW1 2766   1.724   0.853   3.046
  877SOL    HW2 2767   1.758   0.710   3.009
  878SOL     OW 2768   0.250   2.132   0.061
  878SOL    HW1 2769   0.243   2.224   0.088
  878SOL    HW2 2770   0.337   2.105   0.089
  879SOL     OW 2771   2.259   3.514   1.830
  879SOL    HW1 2772   2.184   3.572   1.811
  879SOL    HW2 2773   2.261   3.454   1.756
  880SOL     OW 2774   3.666   3.312   3.026
  880SOL    HW1 2775   3.741   3.265   2.989
  880SOL    HW2 2776   3.701   3.396   3.054
  881SOL     OW 2777   2.717   3.214   2.145
  881SOL    HW1 2778   2.747   3.232   2.235
  881SOL    HW2 2779   2.765   3.135   2.120
  882SOL     OW 2780   3.272   3.701   2.804
  882SOL    HW1 2781   3.285   3.791   2.832
  882SOL    HW2 2782   3.234   3.709   2.716
  883SOL     OW 2783   0.975   1.996   2.714
  883SOL    HW1 2784   0.898   2.049   2.691
  883SOL    HW2 2785   0.941   1.928   2.772
  884SOL     OW 2786   0.172   1.354   3.678
  884SOL    HW1 2787   0.086   1.357   3.634
  884SOL    HW2 2788   0.164   1.418   3.749
  885SOL     OW 2789   3.013   2.002   0.753
  885SOL    HW1 2790   2.968   2.084   0.730
  885SOL    HW2 2791   2.943   1.943   0.780
  886SOL     OW 2792   2.274   3.813   1.055
  886SOL    HW1 2793   2.302   3.904   1.056
  886SOL    HW2 2794   2.216   3.806   0.979
  887SOL     OW 2795   2.952   0.124   0.902
  887SOL    HW1 2796   2.970   0.114   0.995
  887SOL    HW2 2797   2.857   0.116   0.895
  888SOL     OW 2798   0.547   1.041   3.721
  888SOL    HW1 2799   0.482   1.081   3.663
  888SOL    HW2 2800   0.495   0.988   3.781
  889SOL     OW 2801   2.709   2.506   3.977
  889SOL    HW1 2802   2.735   2.558   3.901
  889SOL    HW2 2803   2.674   2.425   3.939
  890SOL     OW 2804   0.058   3.582   2.306
  890SOL    HW1 2805   0.134   3.584   2.364
  890SOL    HW2 2806   0.061   3.666   2.260
  891SOL     OW 2807   2.130   1.564   0.220
  891SOL    HW1 2808   2.132   1.544   0.126
  891SOL    HW2 2809   2.173   1.488   0.260
  892SOL     OW 2810   2.482   3.706   2.221
  892SOL    HW1 2811   2.507   3.629   2.170
  892SOL    HW2 2812   2.517   3.688   2.309
  893SOL     OW 2813   3.220   1.385   0.725
  893SOL    HW1 2814   3.134   1.346   0.709
  893SOL    HW2 2815   3.246   1.352   0.811
  894SOL     OW 2816   0.299   0.804   2.253
  894SOL    HW1 2817   0.334   0.717   2.272
  894SOL    HW2 2818   0.342   0.861   2.317
  895SOL     OW 2819   3.060   1.407   3.250
  895SOL    HW1 2820   3.155   1.420   3.241
  895SOL    HW2 2821   3.024   1.496   3.247
  896SOL     OW 2822   0.261   1.348   1.186
  896SOL    HW1 2823   0.247   1.396   1.105
  896SOL    HW2 2824   0.259   1.256   1.161
  897SOL     OW 2825   0.499   0.120   2.081
  897SOL    HW1 2826   0.509   0.036   2.035
  897SOL    HW2 2827   0.478   0.183   2.012
  898SOL     OW 2828   1.389   0.301   0.719
  898SOL    HW1 2829   1.368   0.213   0.750
  898SOL    HW2 2830   1.384   0.355   0.798
  899SOL     OW 2831   0.125   0.748   1.368
  899SOL    HW1 2832   0.092   0.791   1.289
  899SOL    HW2 2833   0.201   0.800   1.394
  900SOL     OW 2834   0.989   1.484   3.095
  900SOL    HW1 2835   1.078   1.449   3.090
  900SOL    HW2 2836   0.932   1.406   3.095
  901SOL     OW 2837   3.194   0.787   0.211
  901SOL    HW1 2838   3.217   0.708   0.161
  901SOL    HW2 2839   3.139   0.755   0.282
  902SOL     OW 2840   1.755   1.200   1.031
  902SOL    HW1 2841   1.715   1.141   0.968
  902SOL    HW2 2842   1.754   1.152   1.114
  903SOL     OW 2843   3.134   3.868   2.421
  903SOL    HW1 2844   3.142   3.805   2.493
  903SOL    HW2 2845   3.122   3.952   2.466
  904SOL     OW 2846   3.717   0.812   2.323
  904SOL    HW1 2847   3.671   0.889   2.290
  904SOL    HW2 2848   3.725   0.754   2.248
  905SOL     OW 2849   3.742   0.640   2.115
  905SOL    HW1 2850   3.701   0.556   2.134
  905SOL    HW2 2851   3.700   0.670   2.034
  906SOL     OW 2852   0.371   1.484   1.730
  906SOL    HW1 2853   0.343   1.472   1.639
  906SOL    HW2 2854   0.297   1.526   1.773
  907SOL     OW 2855   1.913   2.593   1.855
  907SOL    HW1 2856   1.819   2.587   1.840
  907SOL    HW2 2857   1.933   2.686   1.851
  908SOL     OW 2858   2.234   2.810   1.632
  908SOL    HW1 2859   2.301   2.751   1.666
  908SOL    HW2 2860   2.210   2.774   1.547
  909SOL     OW 2861   2.003   0.390   3.384
  909SOL    HW1 2862   2.011   0.486   3.388
  909SOL    HW2 2863   2.078   0.358   3.435
  910SOL     OW 2864   3.757   3.166   0.028
  910SOL    HW1 2865   3.777   3.225  -0.045
  910SOL    HW2 2866   3.733   3.224   0.100
  911SOL     OW 2867   0.217   2.326   2.723
  911SOL    HW1 2868   0.156   2.289   2.787
  911SOL    HW2 2869   0.244   2.410   2.760
  912SOL     OW 2870   0.570   1.140   1.542
  912SOL    HW1 2871   0.562   1.224   1.587
  912SOL    HW2 2872   0.522   1.152   1.460
  913SOL     OW 2873   0.928   2.018   0.539
  913SOL    HW1 2874   0.876   1.977   0.471
  913SOL    HW2 2875   1.018   1.990   0.521
  914SOL     OW 2876   0.853   2.958   2.815
  914SOL    HW1 2877   0.887   3.016   2.884
  914SOL    HW2 2878   0.819   3.018   2.749
  915SOL     OW 2879   1.733   3.556   1.305
  915SOL    HW1 2880   1.662   3.501   1.272
  915SOL    HW2 2881   1.789   3.571   1.229
  916SOL     OW 2882   2.227   0.676   0.120
  916SOL    HW1 2883   2.196   0.685   0.029
  916SOL    HW2 2884   2.281   0.753   0.134
  917SOL     OW 2885   3.365   2.665   1.247
  917SOL    HW1 2886   3.421   2.725   1.197
  917SOL    HW2 2887   3.415   2.584   1.251
  918SOL     OW 2888   0.744   2.141   3.136
  918SOL    HW1 2889   0.700   2.151   3.051
  918SOL    HW2 2890   0.815   2.079   3.120
  919SOL     OW 2891   1.427   2.629   3.905
  919SOL    HW1 2892   1.336   2.603   3.915
  919SOL    HW2 2893   1.424   2.723   3.889
  920SOL     OW 2894   0.977   3.248   3.339
  920SOL    HW1 2895   0.987   3.341   3.359
  920SOL    HW2 2896   0.989   3.204   3.424
  921SOL     OW 2897   1.627   3.410   0.099
  921SOL    HW1 2898   1.552   3.397   0.157
  921SOL    HW2 2899   1.639   3.326   0.056
  922SOL     OW 2900   1.527   3.537   2.353
  922SOL    HW1 2901   1.489   3.604   2.410
  922SOL    HW2 2902   1.521   3.456   2.404
  923SOL     OW 2903   2.501   0.745   3.601
  923SOL    HW1 2904   2.406   0.734   3.613
  923SOL    HW2 2905   2.539   0.667   3.641
  924SOL     OW 2906   3.777   1.842   0.298
  924SOL    HW1 2907   3.815   1.917   0.253
  924SOL    HW2 2908   3.725   1.880   0.369
  925SOL     OW 2909   0.029   0.687   1.752
  925SOL    HW1 2910   0.086   0.651   1.684
  925SOL    HW2 2911  -0.058   0.655   1.729
  926SOL     OW 2912   1.704   2.989   0.473
  926SOL    HW1 2913   1.770   2.937   0.427
  926SOL    HW2 2914   1.753   3.036   0.541
  927SOL     OW 2915   2.114   0.790   0.838
  927SOL    HW1 2916   2.068   0.851   0.896
  927SOL    HW2 2917   2.053   0.773   0.767
  928SOL     OW 2918   2.853   3.700   1.111
  928SOL    HW1 2919   2.865   3.701   1.016
  928SOL    HW2 2920   2.825   3.788   1.133
  929SOL     OW 2921   2.888   1.356   3.769
  929SOL    HW1 2922   2.929   1.421   3.712
  929SOL    HW2 2923   2.795   1.379   3.767
  930SOL     OW 2924   2.808   2.489   0.774
  930SOL    HW1 2925   2.725   2.535   0.777
  930SOL    HW2 2926   2.833   2.479   0.866
  931SOL     OW 2927   2.195   1.597   2.123
  931SOL    HW1 2928   2.179   1.665   2.058
  931SOL    HW2 2929   2.245   1.531   2.076
  932SOL     OW 2930   1.959   2.284   0.792
  932SOL    HW1 2931   2.023   2.236   0.740
  932SOL    HW2 2932   2.006   2.361   0.824
  933SOL     OW 2933   1.268   2.659   0.459
  933SOL    HW1 2934   1.360   2.636   0.469
  933SOL    HW2 2935   1.237   2.606   0.386
  934SOL     OW 2936   3.524   3.807   3.392
  934SOL    HW1 2937   3.550   3.753   3.317
  934SOL    HW2 2938   3.603   3.814   3.446
  935SOL     OW 2939   0.956   2.306   1.786
  935SOL    HW1 2940   0.990   2.308   1.876
  935SOL    HW2 2941   0.977   2.218   1.755
  936SOL     OW 2942   0.813   1.767   0.761
  936SOL    HW1 2943   0.734   1.794   0.714
  936SOL    HW2 2944   0.794   1.680   0.794
  937SOL     OW 2945   3.696   1.691   2.998
  937SOL    HW1 2946   3.620   1.658   2.949
  937SOL    HW2 2947   3.734   1.758   2.942
  938SOL     OW 2948   2.366   2.758   2.043
  938SOL    HW1 2949   2.413   2.761   1.960
  938SOL    HW2 2950   2.374   2.667   2.072
  939SOL     OW 2951   2.293   2.322   2.547
  939SOL    HW1 2952   2.231   2.266   2.501
  939SOL    HW2 2953   2.239   2.370   2.610
  940SOL     OW 2954   3.211   1.772   0.455
  940SOL    HW1 2955   3.167   1.856   0.443
  940SOL    HW2 2956   3.288   1.792   0.508
  941SOL     OW 2957   3.920   1.901   3.935
  941SOL    HW1 2958   3.955   1.873   3.850
  941SOL    HW2 2959   3.826   1.887   3.928
  942SOL     OW 2960   0.098   2.100   1.043
  942SOL    HW1 2961   0.078   2.103   0.949
  942SOL    HW2 2962   0.185   2.062   1.048
  943SOL     OW 2963   2.885   3.549   2.529
  943SOL    HW1 2964   2.956   3.589   2.478
  943SOL    HW2 2965   2.918   3.547   2.619
  944SOL     OW 2966   2.429   2.213   1.559
  944SOL    HW1 2967   2.359   2.237   1.619
  944SOL    HW2 2968   2.388   2.152   1.497
  945SOL     OW 2969   3.654   2.134   0.230
  945SOL    HW1 2970   3.622   2.141   0.140
  945SOL    HW2 2971   3.590   2.077   0.273
  946SOL     OW 2972   1.375   3.501   0.489
  946SOL    HW1 2973   1.459   3.542   0.509
  946SOL    HW2 2974   1.342   3.472   0.574
  947SOL     OW 2975   3.305   1.667   1.588
  947SOL    HW1 2976   3.249   1.744   1.580
  947SOL    HW2 2977   3.340   1.653   1.500
  948SOL     OW 2978   1.797   1.084   3.171
  948SOL    HW1 2979   1.721   1.129   3.135
  948SOL    HW2 2980   1.762   1.030   3.243
  949SOL     OW 2981   0.143   1.672   1.111
  949SOL    HW1 2982   0.234   1.697   1.094
  949SOL    HW2 2983   0.125   1.603   1.048
  950SOL     OW 2984   0.253   3.229   0.903
  950SOL    HW1 2985   0.279   3.179   0.825
  950SOL    HW2 2986   0.167   3.193   0.926
  951SOL     OW 2987   2.043   0.444   0.761
  951SOL    HW1 2988   1.999   0.507   0.817
  951SOL    HW2 2989   1.981   0.425   0.691
  952SOL     OW 2990   0.764   1.383   1.361
  952SOL    HW1 2991   0.708   1.316   1.321
  952SOL    HW2 2992   0.819   1.414   1.288
  953SOL     OW 2993   2.708   1.832   1.398
  953SOL    HW1 2994   2.715   1.902   1.463
  953SOL    HW2 2995   2.783   1.847   1.339
  954SOL     OW 2996   1.351   1.473   3.792
  954SOL    HW1 2997   1.352   1.546   3.731
  954SOL    HW2 2998   1.393   1.506   3.871
  955SOL     OW 2999   0.325   0.923   3.869
  955SOL    HW1 3000   0.322   0.884   3.957
  955SOL    HW2 3001   0.233   0.941   3.848
  956SOL     OW 3002   0.769   2.617   0.416
  956SOL    HW1 3003   0.862   2.595   0.428
  956SOL    HW2 3004   0.722   2.546   0.460
  957SOL     OW 3005   0.513   1.892   2.495
  957SOL    HW1 3006   0.531   1.983   2.518
  957SOL    HW2 3007   0.524   1.889   2.400
  958SOL     OW 3008   3.498   1.042   0.528
  958SOL    HW1 3009   3.572   1.050   0.467
  958SOL    HW2 3010   3.498   1.125   0.577
  959SOL     OW 3011   3.182   0.032   1.829
  959SOL    HW1 3012   3.141   0.105   1.875
  959SOL    HW2 3013   3.258   0.070   1.786
  960SOL     OW 3014   3.765   1.791   1.440
  960SOL    HW1 3015   3.675   1.822   1.452
  960SOL    HW2 3016   3.790   1.824   1.353
  961SOL     OW 3017   0.014   0.490   3.523
  961SOL    HW1 3018   0.052   0.554   3.583
  961SOL    HW2 3019   0.082   0.476   3.457
  962SOL     OW 3020   3.695   1.578   2.386
  962SOL    HW1 3021   3.622   1.537   2.340
  962SOL    HW2 3022   3.662   1.595   2.474
  963SOL     OW 3023   3.646   2.855   0.514
  963SOL    HW1 3024   3.735   2.821   0.505
  963SOL    HW2 3025   3.635   2.870   0.608
  964SOL     OW 3026   1.794   1.591   1.555
  964SOL    HW1 3027   1.736   1.609   1.481
  964SOL    HW2 3028   1.833   1.675   1.577
  965SOL     OW 3029   2.001   0.656   3.389
  965SOL    HW1 3030   1.925   0.712   3.404
  965SOL    HW2 3031   2.039   0.689   3.308
  966SOL     OW 3032   0.757   2.263   0.236
  966SOL    HW1 3033   0.771   2.206   0.161
  966SOL    HW2 3034   0.824   2.238   0.299
  967SOL     OW 3035   3.429   3.451   2.877
  967SOL    HW1 3036   3.373   3.528   2.880
  967SOL    HW2 3037   3.405   3.401   2.956
  968SOL     OW 3038   3.078   3.305   1.055
  968SOL    HW1 3039   2.988   3.292   1.026
  968SOL    HW2 3040   3.131   3.272   0.982
  969SOL     OW 3041   3.325   3.535   2.125
  969SOL    HW1 3042   3.240   3.576   2.140
  969SOL    HW2 3043   3.385   3.579   2.185
  970SOL     OW 3044   2.089   1.256   2.628
  970SOL    HW1 3045   2.033   1.330   2.605
  970SOL    HW2 3046   2.178   1.288   2.611
  971SOL     OW 3047   0.581   3.881   1.888
  971SOL    HW1 3048   0.586   3.907   1.796
  971SOL    HW2 3049   0.607   3.789   1.889
  972SOL     OW 3050   2.954   1.816   2.081
  972SOL    HW1 3051   2.997   1.832   1.997
  972SOL    HW2 3052   2.894   1.889   2.091
  973SOL     OW 3053   3.764   1.534   3.932
  973SOL    HW1 3054   3.815   1.467   3.888
  973SOL    HW2 3055   3.800   1.538   4.021
  974SOL     OW 3056   1.070   0.391   2.907
  974SOL    HW1 3057   1.128   0.387   2.983
  974SOL    HW2 3058   1.108   0.330   2.844
  975SOL     OW 3059   0.695   3.366   3.521
  975SOL    HW1 3060   0.709   3.340   3.612
  975SOL    HW2 3061   0.703   3.284   3.471
  976SOL     OW 3062   1.884   0.062   2.136
  976SOL    HW1 3063   1.841   0.060   2.050
  976SOL    HW2 3064   1.918  -0.027   2.148
  977SOL     OW 3065   1.576   3.682  -0.010
  977SOL    HW1 3066   1.592   3.614   0.055
  977SOL    HW2 3067   1.511   3.740   0.031
  978SOL     OW 3068   1.515   1.479   3.067
  978SOL    HW1 3069   1.547   1.392   3.043
  978SOL    HW2 3070   1.562   1.539   3.009
  979SOL     OW 3071   0.791   0.973   1.490
  979SOL    HW1 3072   0.716   1.032   1.484
  979SOL    HW2 3073   0.865   1.030   1.509
  980SOL     OW 3074   1.874   1.425   2.593
  980SOL    HW1 3075   1.837   1.501   2.638
  980SOL    HW2 3076   1.864   1.446   2.500
  981SOL     OW 3077   0.872   3.897   0.038
  981SOL    HW1 3078   0.831   3.977   0.005
  981SOL    HW2 3079   0.894   3.846  -0.040
  982SOL     OW 3080   0.512   0.867   1.183
  982SOL    HW1 3081   0.454   0.836   1.113
  982SOL    HW2 3082   0.453   0.908   1.246
  983SOL     OW 3083   3.698   1.607   0.602
  983SOL    HW1 3084   3.690   1.514   0.583
  983SOL    HW2 3085   3.770   1.637   0.547
  984SOL     OW 3086   3.641   3.477   3.789
  984SOL    HW1 3087   3.592   3.468   3.707
  984SOL    HW2 3088   3.728   3.441   3.769
  985SOL     OW 3089   2.273   2.657   0.401
  985SOL    HW1 3090   2.366   2.675   0.396
  985SOL    HW2 3091   2.241   2.711   0.474
  986SOL     OW 3092   1.830   1.942   1.074
  986SOL    HW1 3093   1.878   1.859   1.073
  986SOL    HW2 3094   1.738   1.917   1.070
  987SOL     OW 3095   1.905   3.487   1.956
  987SOL    HW1 3096   1.910   3.411   2.015
  987SOL    HW2 3097   1.909   3.450   1.868
  988SOL     OW 3098   0.706   1.574   2.142
  988SOL    HW1 3099   0.764   1.503   2.114
  988SOL    HW2 3100   0.701   1.632   2.066
  989SOL     OW 3101   1.824   2.558   0.238
  989SOL    HW1 3102   1.775   2.615   0.179
  989SOL    HW2 3103   1.914   2.587   0.230
  990SOL     OW 3104   0.452   1.010   0.624
  990SOL    HW1 3105   0.373   0.957   0.636
  990SOL    HW2 3106   0.419   1.100   0.617
  991SOL     OW 3107   2.324   2.234   2.146
  991SOL    HW1 3108   2.404   2.183   2.132
  991SOL    HW2 3109   2.277   2.185   2.213
  992SOL     OW 3110   0.458   2.988   3.416
  992SOL    HW1 3111   0.445   3.043   3.493
  992SOL    HW2 3112   0.371   2.980   3.376
  993SOL     OW 3113   0.094   0.796   3.047
  993SOL    HW1 3114   0.128   0.812   3.134
  993SOL    HW2 3115   0.072   0.882   3.012
  994SOL     OW 3116   3.475   3.280   0.979
  994SOL    HW1 3117   3.526   3.200   0.980
  994SOL    HW2 3118   3.417   3.272   1.055
  995SOL     OW 3119   2.337   0.347   3.261
  995SOL    HW1 3120   2.329   0.424   3.206
  995SOL    HW2 3121   2.363   0.381   3.347
  996SOL     OW 3122   3.705   2.650   3.321
  996SOL    HW1 3123   3.756   2.583   3.276
  996SOL    HW2 3124   3.678   2.710   3.252
  997SOL     OW 3125   3.003   2.758   1.129
  997SOL    HW1 3126   2.958   2.685   1.085
  997SOL    HW2 3127   3.095   2.746   1.105
  998SOL     OW 3128   2.287   2.667   3.268
  998SOL    HW1 3129   2.266   2.714   3.349
  998SOL    HW2 3130   2.210   2.613   3.251
  999SOL     OW 3131   1.958   1.014   0.036
  999SOL    HW1 3132   1.929   0.922   0.039
  999SOL    HW2 3133   1.890   1.059  -0.014
 1000SOL     OW 3134   0.164   2.635   3.829
 1000SOL    HW1 3135   0.208   2.719   3.823
 1000SOL    HW2 3136   0.202   2.583   3.757
 1001SOL     OW 3137   2.904   0.593   1.692
 1001SOL    HW1 3138   2.817   0.580   1.729
 1001SOL    HW2 3139   2.890   0.655   1.620
 1002SOL     OW 3140   3.240   3.108   3.757
 1002SOL    HW1 3141   3.306   3.045   3.729
 1002SOL    HW2 3142   3.163   3.054   3.779
 1003SOL     OW 3143   0.829   3.514   1.384
 1003SOL    HW1 3144   0.888   3.445   1.415
 1003SOL    HW2 3145   0.870   3.595   1.414
 1004SOL     OW 3146   2.103   3.632   1.594
 1004SOL    HW1 3147   2.115   3.537   1.603
 1004SOL    HW2 3148   2.085   3.645   1.501
 1005SOL     OW 3149   2.166   0.668   3.793
 1005SOL    HW1 3150   2.171   0.658   3.698
 1005SOL    HW2 3151   2.188   0.760   3.809
 1006SOL     OW 3152   3.107   1.756   1.288
 1006SOL    HW1 3153   3.198   1.780   1.272
 1006SOL    HW2 3154   3.112   1.670   1.330
 1007SOL     OW 3155   3.262   3.892   3.662
 1007SOL    HW1 3156   3.345   3.931   3.636
 1007SOL    HW2 3157   3.276   3.862   3.752
 1008SOL     OW 3158   3.792   2.305   1.806
 1008SOL    HW1 3159   3.740   2.235   1.845
 1008SOL    HW2 3160   3.882   2.287   1.833
 1009SOL     OW 3161   0.844   1.152   3.386
 1009SOL    HW1 3162   0.818   1.091   3.317
 1009SOL    HW2 3163   0.831   1.104   3.468
 1010SOL     OW 3164   1.540   3.436   2.794
 1010SOL    HW1 3165   1.459   3.423   2.844
 1010SOL    HW2 3166   1.544   3.531   2.781
 1011SOL     OW 3167   3.527   2.220   2.919
 1011SOL    HW1 3168   3.622   2.227   2.924
 1011SOL    HW2 3169   3.509   2.127   2.930
 1012SOL     OW 3170   0.658   1.368   3.204
 1012SOL    HW1 3171   0.622   1.296   3.256
 1012SOL    HW2 3172   0.735   1.332   3.161
 1013SOL     OW 3173   0.866   1.374   2.030
 1013SOL    HW1 3174   0.869   1.293   2.081
 1013SOL    HW2 3175   0.949   1.376   1.984
 1014SOL     OW 3176   3.231   0.144   2.118
 1014SOL    HW1 3177   3.249   0.074   2.181
 1014SOL    HW2 3178   3.236   0.224   2.169
 1015SOL     OW 3179   0.095   0.249   1.711
 1015SOL    HW1 3180   0.081   0.289   1.797
 1015SOL    HW2 3181   0.171   0.193   1.723
 1016SOL     OW 3182   0.988   2.736   2.230
 1016SOL    HW1 3183   1.052   2.709   2.296
 1016SOL    HW2 3184   1.041   2.768   2.158
 1017SOL     OW 3185   2.918   1.647   2.740
 1017SOL    HW1 3186   2.898   1.559   2.773
 1017SOL    HW2 3187   2.950   1.633   2.651
 1018SOL     OW 3188   0.664   2.169   2.096
 1018SOL    HW1 3189   0.615   2.098   2.055
 1018SOL    HW2 3190   0.711   2.211   2.024
 1019SOL     OW 3191   0.861   1.261   2.766
 1019SOL    HW1 3192   0.950   1.275   2.800
 1019SOL    HW2 3193   0.828   1.349   2.748
 1020SOL     OW 3194   1.667   3.809   2.837
 1020SOL    HW1 3195   1.748   3.758   2.835
 1020SOL    HW2 3196   1.694   3.898   2.815
 1021SOL     OW 3197   3.341   3.715   0.367
 1021SOL    HW1 3198   3.326   3.810   0.361
 1021SOL    HW2 3199   3.285   3.687   0.440
 1022SOL     OW 3200   0.537   3.602   3.568
 1022SOL    HW1 3201   0.472   3.575   3.634
 1022SOL    HW2 3202   0.563   3.520   3.526
 1023SOL     OW 3203   3.537   1.914   2.296
 1023SOL    HW1 3204   3.488   1.997   2.302
 1023SOL    HW2 3205   3.513   1.879   2.210
 1024SOL     OW 3206   3.712   1.248   2.551
 1024SOL    HW1 3207   3.636   1.193   2.567
 1024SOL    HW2 3208   3.686   1.335   2.582
 1025SOL     OW 3209   3.065   2.868   0.021
 1025SOL    HW1 3210   3.147   2.826   0.050
 1025SOL    HW2 3211   3.000   2.840   0.085
 1026SOL     OW 3212   0.089   0.187   1.261
 1026SOL    HW1 3213   0.037   0.108   1.250
 1026SOL    HW2 3214   0.032   0.248   1.306
 1027SOL     OW 3215   0.497   0.299   1.186
 1027SOL    HW1 3216   0.529   0.310   1.275
 1027SOL    HW2 3217   0.508   0.386   1.146
 1028SOL     OW 3218   2.234   3.403   2.100
 1028SOL    HW1 3219   2.152   3.368   2.133
 1028SOL    HW2 3220   2.249   3.355   2.018
 1029SOL     OW 3221   2.188   1.195   0.110
 1029SOL    HW1 3222   2.230   1.114   0.140
 1029SOL    HW2 3223   2.108   1.165   0.066
 1030SOL     OW 3224   3.456   2.934   3.684
 1030SOL    HW1 3225   3.465   2.844   3.653
 1030SOL    HW2 3226   3.498   2.935   3.769
 1031SOL     OW 3227   1.224   1.585   3.400
 1031SOL    HW1 3228   1.174   1.503   3.406
 1031SOL    HW2 3229   1.174   1.640   3.341
 1032SOL     OW 3230   2.364   1.645   1.873
 1032SOL    HW1 3231   2.355   1.729   1.918
 1032SOL    HW2 3232   2.440   1.657   1.815
 1033SOL     OW 3233   3.133   1.230   3.685
 1033SOL    HW1 3234   3.039   1.234   3.704
 1033SOL    HW2 3235   3.166   1.317   3.706
 1034SOL     OW 3236   3.138   2.984   1.839
 1034SOL    HW1 3237   3.206   2.960   1.777
 1034SOL    HW2 3238   3.180   3.045   1.900
 1035SOL     OW 3239   0.013   3.471   3.514
 1035SOL    HW1 3240   0.104   3.500   3.509
 1035SOL    HW2 3241  -0.009   3.441   3.426
 1036SOL     OW 3242   2.284   1.029   3.162
 1036SOL    HW1 3243   2.219   0.966   3.195
 1036SOL    HW2 3244   2.241   1.070   3.087
 1037SOL     OW 3245   2.683   2.288   1.468
 1037SOL    HW1 3246   2.704   2.334   1.387
 1037SOL    HW2 3247   2.591   2.262   1.458
 1038SOL     OW 3248   3.389   3.662   0.940
 1038SOL    HW1 3249   3.423   3.706   1.017
 1038SOL    HW2 3250   3.303   3.628   0.967
 1039SOL     OW 3251   3.105   2.648   3.467
 1039SOL    HW1 3252   3.132   2.558   3.483
 1039SOL    HW2 3253   3.100   2.656   3.372
 1040SOL     OW 3254   0.196   2.354   0.295
 1040SOL    HW1 3255   0.258   2.283   0.309
 1040SOL    HW2 3256   0.240   2.431   0.331
 1041SOL     OW 3257   1.740   1.725   0.391
 1041SOL    HW1 3258   1.770   1.772   0.313
 1041SOL    HW2 3259   1.774   1.776   0.464
 1042SOL     OW 3260   1.993   1.084   3.421
 1042SOL    HW1 3261   2.016   1.170   3.385
 1042SOL    HW2 3262   1.915   1.099   3.473
 1043SOL     OW 3263   0.455   2.888   2.597
 1043SOL    HW1 3264   0.486   2.867   2.509
 1043SOL    HW2 3265   0.409   2.809   2.625
 1044SOL     OW 3266   1.756   0.802   3.372
 1044SOL    HW1 3267   1.703   0.736   3.416
 1044SOL    HW2 3268   1.735   0.792   3.279
 1045SOL     OW 3269   0.774   3.799   0.988
 1045SOL    HW1 3270   0.698   3.854   1.007
 1045SOL    HW2 3271   0.836   3.858   0.945
 1046SOL     OW 3272   1.170   1.069   2.758
 1046SOL    HW1 3273   1.091   1.046   2.806
 1046SOL    HW2 3274   1.146   1.058   2.666
 1047SOL     OW 3275   1.443   1.670   2.364
 1047SOL    HW1 3276   1.405   1.730   2.428
 1047SOL    HW2 3277   1.423   1.710   2.279
 1048SOL     OW 3278   0.862   0.100   1.212
 1048SOL    HW1 3279   0.872   0.124   1.305
 1048SOL    HW2 3280   0.873   0.005   1.211
 1049SOL     OW 3281   1.330   3.234   0.316
 1049SOL    HW1 3282   1.315   3.190   0.399
 1049SOL    HW2 3283   1.423   3.257   0.317
 1050SOL     OW 3284   2.292   2.242   3.260
 1050SOL    HW1 3285   2.281   2.312   3.323
 1050SOL    HW2 3286   2.263   2.279   3.177
 1051SOL     OW 3287   2.085   2.695   0.214
 1051SOL    HW1 3288   2.057   2.787   0.212
 1051SOL    HW2 3289   2.164   2.696   0.267
 1052SOL     OW 3290   3.678   2.404   1.587
 1052SOL    HW1 3291   3.707   2.371   1.671
 1052SOL    HW2 3292   3.757   2.403   1.532
 1053SOL     OW 3293   0.876   3.703   2.133
 1053SOL    HW1 3294   0.841   3.683   2.045
 1053SOL    HW2 3295   0.924   3.784   2.122
 1054SOL     OW 3296   3.122   2.444   0.098
 1054SOL    HW1 3297   3.211   2.450   0.134
 1054SOL    HW2 3298   3.123   2.504   0.023
 1055SOL     OW 3299   3.635   2.368   0.413
 1055SOL    HW1 3300   3.678   2.432   0.355
 1055SOL    HW2 3301   3.656   2.283   0.375
 1056SOL     OW 3302   0.683   1.120   1.045
 1056SOL    HW1 3303   0.684   1.096   0.952
 1056SOL    HW2 3304   0.721   1.044   1.090
 1057SOL     OW 3305   0.310   3.403   3.548
 1057SOL    HW1 3306   0.352   3.340   3.607
 1057SOL    HW2 3307   0.340   3.377   3.460
 1058SOL     OW 3308   2.441   3.293   2.468
 1058SOL    HW1 3309   2.388   3.309   2.546
 1058SOL    HW2 3310   2.378   3.290   2.396
 1059SOL     OW 3311   1.855   3.454   2.584
 1059SOL    HW1 3312   1.892   3.384   2.530
 1059SOL    HW2 3313   1.771   3.475   2.542
 1060SOL     OW 3314   2.547   1.073   3.179
 1060SOL    HW1 3315   2.452   1.060   3.176
 1060SOL    HW2 3316   2.574   1.029   3.259
 1061SOL     OW 3317   1.224   2.171   2.374
 1061SOL    HW1 3318   1.297   2.139   2.322
 1061SOL    HW2 3319   1.192   2.248   2.326
 1062SOL     OW 3320   3.125   0.699   1.821
 1062SOL    HW1 3321   3.054   0.659   1.770
 1062SOL    HW2 3322   3.091   0.702   1.911
 1063SOL     OW 3323   0.929   3.647   3.743
 1063SOL    HW1 3324   0.889   3.717   3.692
 1063SOL    HW2 3325   1.023   3.663   3.736
 1064SOL     OW 3326   2.141   2.105   0.698
 1064SOL    HW1 3327   2.089   2.025   0.712
 1064SOL    HW2 3328   2.186   2.090   0.614
 1065SOL     OW 3329   3.491   3.458   1.254
 1065SOL    HW1 3330   3.424   3.397   1.224
 1065SOL    HW2 3331   3.442   3.538   1.276
 1066SOL     OW 3332   3.524   0.641   3.387
 1066SOL    HW1 3333   3.531   0.572   3.321
 1066SOL    HW2 3334   3.581   0.711   3.356
 1067SOL     OW 3335   0.501   1.632   0.749
 1067SOL    HW1 3336   0.536   1.690   0.817
 1067SOL    HW2 3337   0.470   1.555   0.797
 1068SOL     OW 3338   0.570   3.869   3.557
 1068SOL    HW1 3339   0.551   3.779   3.586
 1068SOL    HW2 3340   0.544   3.870   3.465
 1069SOL     OW 3341   0.845   0.167   3.455
 1069SOL    HW1 3342   0.775   0.212   3.407
 1069SOL    HW2 3343   0.865   0.225   3.528
 1070SOL     OW 3344   1.931   0.767   2.068
 1070SOL    HW1 3345   1.898   0.746   1.981
 1070SOL    HW2 3346   1.917   0.688   2.119
 1071SOL     OW 3347   1.044   1.716   0.521
 1071SOL    HW1 3348   1.105   1.766   0.575
 1071SOL    HW2 3349   0.966   1.706   0.576
 1072SOL     OW 3350   2.500   1.064   0.279
 1072SOL    HW1 3351   2.503   1.160   0.277
 1072SOL    HW2 3352   2.473   1.044   0.369
 1073SOL     OW 3353   1.084   1.066   2.503
 1073SOL    HW1 3354   1.159   1.071   2.444
 1073SOL    HW2 3355   1.057   1.157   2.515
 1074SOL     OW 3356   3.297   0.370   3.649
 1074SOL    HW1 3357   3.343   0.324   3.578
 1074SOL    HW2 3358   3.337   0.456   3.652
 1075SOL     OW 3359   2.746   2.422   1.232
 1075SOL    HW1 3360   2.774   2.512   1.244
 1075SOL    HW2 3361   2.671   2.427   1.173
 1076SOL     OW 3362   0.293   2.531   3.593
 1076SOL    HW1 3363   0.334   2.447   3.572
 1076SOL    HW2 3364   0.225   2.542   3.527
 1077SOL     OW 3365   1.605   2.633   2.572
 1077SOL    HW1 3366   1.677   2.586   2.532
 1077SOL    HW2 3367   1.572   2.690   2.503
 1078SOL     OW 3368   2.069   2.195   2.852
 1078SOL    HW1 3369   2.051   2.102   2.834
 1078SOL    HW2 3370   2.036   2.241   2.775
 1079SOL     OW 3371   1.172   1.070   0.077
 1079SOL    HW1 3372   1.178   1.143   0.016
 1079SOL    HW2 3373   1.083   1.074   0.111
 1080SOL     OW 3374   3.140   0.536   1.357
 1080SOL    HW1 3375   3.206   0.522   1.289
 1080SOL    HW2 3376   3.168   0.481   1.429
 1081SOL     OW 3377   2.329   0.588   0.855
 1081SOL    HW1 3378   2.283   0.650   0.798
 1081SOL    HW2 3379   2.301   0.612   0.943
 1082SOL     OW 3380   3.506   2.182   0.915
 1082SOL    HW1 3381   3.436   2.134   0.871
 1082SOL    HW2 3382   3.533   2.249   0.852
 1083SOL     OW 3383   2.810   3.380   0.869
 1083SOL    HW1 3384   2.747   3.450   0.886
 1083SOL    HW2 3385   2.777   3.306   0.921
 1084SOL     OW 3386   1.326   0.967   3.304
 1084SOL    HW1 3387   1.369   0.907   3.364
 1084SOL    HW2 3388   1.240   0.928   3.286
 1085SOL     OW 3389   2.123   2.843   2.134
 1085SOL    HW1 3390   2.083   2.846   2.047
 1085SOL    HW2 3391   2.206   2.797   2.120
 1086SOL     OW 3392   0.697   1.829   1.140
 1086SOL    HW1 3393   0.705   1.756   1.079
 1086SOL    HW2 3394   0.713   1.907   1.086
 1087SOL     OW 3395   0.380   1.568   2.959
 1087SOL    HW1 3396   0.303   1.614   2.925
 1087SOL    HW2 3397   0.362   1.475   2.943
 1088SOL     OW 3398   0.969   3.181   2.351
 1088SOL    HW1 3399   0.912   3.223   2.287
 1088SOL    HW2 3400   1.048   3.157   2.302
 1089SOL     OW 3401   3.442   3.122   0.157
 1089SOL    HW1 3402   3.503   3.099   0.228
 1089SOL    HW2 3403   3.476   3.205   0.122
 1090SOL     OW 3404   0.353   0.715   1.847
 1090SOL    HW1 3405   0.390   0.758   1.770
 1090SOL    HW2 3406   0.427   0.668   1.886
 1091SOL     OW 3407   3.852   3.355   0.689
 1091SOL    HW1 3408   3.829   3.430   0.744
 1091SOL    HW2 3409   3.948   3.355   0.689
 1092SOL     OW 3410   3.057   1.541   3.626
 1092SOL    HW1 3411   3.127   1.588   3.670
 1092SOL    HW2 3412   3.090   1.525   3.538
 1093SOL     OW 3413   1.208   2.152   3.474
 1093SOL    HW1 3414   1.168   2.090   3.412
 1093SOL    HW2 3415   1.201   2.108   3.559
 1094SOL     OW 3416   0.912   3.006   2.550
 1094SOL    HW1 3417   0.997   2.992   2.592
 1094SOL    HW2 3418   0.925   3.084   2.496
 1095SOL     OW 3419   3.401   2.345   2.700
 1095SOL    HW1 3420   3.454   2.293   2.759
 1095SOL    HW2 3421   3.330   2.287   2.673
 1096SOL     OW 3422   1.158   0.706   2.870
 1096SOL    HW1 3423   1.163   0.617   2.905
 1096SOL    HW2 3424   1.081   0.744   2.911
 1097SOL     OW 3425   0.418   2.192   0.297
 1097SOL    HW1 3426   0.510   2.219   0.291
 1097SOL    HW2 3427   0.416   2.106   0.257
 1098SOL     OW 3428   1.818   0.491   3.801
 1098SOL    HW1 3429   1.779   0.447   3.876
 1098SOL    HW2 3430   1.852   0.420   3.746
 1099SOL     OW 3431   0.337   1.315   2.349
 1099SOL    HW1 3432   0.374   1.267   2.423
 1099SOL    HW2 3433   0.358   1.407   2.367
 1100SOL     OW 3434   1.970   1.502   3.710
 1100SOL    HW1 3435   1.975   1.434   3.644
 1100SOL    HW2 3436   1.894   1.555   3.684
 1101SOL     OW 3437   3.865   0.480   0.126
 1101SOL    HW1 3438   3.794   0.522   0.078
 1101SOL    HW2 3439   3.822   0.419   0.186
 1102SOL     OW 3440   2.130   2.202   1.635
 1102SOL    HW1 3441   2.111   2.232   1.724
 1102SOL    HW2 3442   2.049   2.218   1.586
 1103SOL     OW 3443   1.661   0.320   0.005
 1103SOL    HW1 3444   1.745   0.275   0.015
 1103SOL    HW2 3445   1.638   0.348   0.094
 1104SOL     OW 3446   1.773   0.617   2.707
 1104SOL    HW1 3447   1.695   0.587   2.753
 1104SOL    HW2 3448   1.792   0.549   2.643
 1105SOL     OW 3449   0.573   0.623   1.963
 1105SOL    HW1 3450   0.660   0.649   1.933
 1105SOL    HW2 3451   0.582   0.616   2.058
 1106SOL     OW 3452   1.333   2.888   3.858
 1106SOL    HW1 3453   1.364   2.961   3.803
 1106SOL    HW2 3454   1.237   2.894   3.853
 1107SOL     OW 3455   2.426   1.602   0.981
 1107SOL    HW1 3456   2.407   1.587   0.888
 1107SOL    HW2 3457   2.448   1.515   1.014
 1108SOL     OW 3458   2.937   1.637   3.278
 1108SOL    HW1 3459   2.944   1.719   3.328
 1108SOL    HW2 3460   2.847   1.637   3.245
 1109SOL     OW 3461   3.127   1.584   0.277
 1109SOL    HW1 3462   3.050   1.619   0.234
 1109SOL    HW2 3463   3.163   1.657   0.328
 1110SOL     OW 3464   1.109   2.467   0.638
 1110SOL    HW1 3465   1.093   2.531   0.708
 1110SOL    HW2 3466   1.147   2.518   0.567
 1111SOL     OW 3467   1.771   1.580   2.151
 1111SOL    HW1 3468   1.744   1.669   2.129
 1111SOL    HW2 3469   1.807   1.587   2.239
 1112SOL     OW 3470   0.784   2.992   2.143
 1112SOL    HW1 3471   0.740   3.058   2.198
 1112SOL    HW2 3472   0.787   2.914   2.199
 1113SOL     OW 3473   2.295   1.583   0.686
 1113SOL    HW1 3474   2.341   1.501   0.672
 1113SOL    HW2 3475   2.250   1.600   0.603
 1114SOL     OW 3476   0.887   3.863   1.717
 1114SOL    HW1 3477   0.799   3.880   1.681
 1114SOL    HW2 3478   0.920   3.950   1.740
 1115SOL     OW 3479   3.130   0.841   2.767
 1115SOL    HW1 3480   3.215   0.851   2.808
 1115SOL    HW2 3481   3.080   0.785   2.827
 1116SOL     OW 3482   2.540   2.591   0.804
 1116SOL    HW1 3483   2.469   2.625   0.859
 1116SOL    HW2 3484   2.531   2.639   0.721
 1117SOL     OW 3485   0.762   1.137   1.791
 1117SOL    HW1 3486   0.772   1.218   1.740
 1117SOL    HW2 3487   0.675   1.145   1.830
 1118SOL     OW 3488   1.886   3.063   2.737
 1118SOL    HW1 3489   1.850   3.084   2.823
 1118SOL    HW2 3490   1.976   3.095   2.741
 1119SOL     OW 3491   0.778   3.018   3.827
 1119SOL    HW1 3492   0.734   2.990   3.747
 1119SOL    HW2 3493   0.715   2.998   3.897
 1120SOL     OW 3494   1.527   0.068   0.843
 1120SOL    HW1 3495   1.543   0.006   0.913
 1120SOL    HW2 3496   1.501   0.014   0.768
 1121SOL     OW 3497   3.322   3.273   3.098
 1121SOL    HW1 3498   3.288   3.195   3.053
 1121SOL    HW2 3499   3.250   3.301   3.154
 1122SOL     OW 3500   0.148   0.827   0.529
 1122SOL    HW1 3501   0.120   0.738   0.508
 1122SOL    HW2 3502   0.226   0.816   0.583
 1123SOL     OW 3503   3.382   0.537   1.209
 1123SOL    HW1 3504   3.457   0.481   1.190
 1123SOL    HW2 3505   3.418   0.626   1.209
 1124SOL     OW 3506   3.026   3.742   3.689
 1124SOL    HW1 3507   3.101   3.800   3.676
 1124SOL    HW2 3508   3.009   3.747   3.783
 1125SOL     OW 3509   1.848   1.017   1.248
 1125SOL    HW1 3510   1.842   1.029   1.342
 1125SOL    HW2 3511   1.931   0.972   1.234
 1126SOL     OW 3512   2.142   1.481   1.529
 1126SOL    HW1 3513   2.114   1.411   1.470
 1126SOL    HW2 3514   2.119   1.451   1.616
 1127SOL     OW 3515   1.321   2.543   3.131
 1127SOL    HW1 3516   1.318   2.587   3.216
 1127SOL    HW2 3517   1.365   2.460   3.148
 1128SOL     OW 3518   3.149   3.309   3.580
 1128SOL    HW1 3519   3.065   3.269   3.557
 1128SOL    HW2 3520   3.192   3.245   3.636
 1129SOL     OW 3521   3.657   0.782   1.897
 1129SOL    HW1 3522   3.693   0.858   1.943
 1129SOL    HW2 3523   3.614   0.819   1.820
 1130SOL     OW 3524   2.769   2.905   1.112
 1130SOL    HW1 3525   2.855   2.902   1.072
 1130SOL    HW2 3526   2.737   2.814   1.109
 1131SOL     OW 3527   3.944   0.309   0.729
 1131SOL    HW1 3528   3.923   0.232   0.781
 1131SOL    HW2 3529   3.943   0.381   0.791
 1132SOL     OW 3530   1.755   1.359   1.692
 1132SOL    HW1 3531   1.774   1.433   1.635
 1132SOL    HW2 3532   1.797   1.381   1.775
 1133SOL     OW 3533   3.695   2.534   1.937
 1133SOL    HW1 3534   3.758   2.576   1.996
 1133SOL    HW2 3535   3.746   2.468   1.891
 1134SOL     OW 3536   0.308   1.289   2.866
 1134SOL    HW1 3537   0.216   1.299   2.845
 1134SOL    HW2 3538   0.355   1.320   2.788
 1135SOL     OW 3539   3.819   2.434   3.181
 1135SOL    HW1 3540   3.895   2.408   3.233
 1135SOL    HW2 3541   3.852   2.437   3.091
 1136SOL     OW 3542   1.380   2.720   3.326
 1136SOL    HW1 3543   1.386   2.749   3.417
 1136SOL    HW2 3544   1.455   2.760   3.283
 1137SOL     OW 3545   3.667   1.303   2.139
 1137SOL    HW1 3546   3.595   1.363   2.155
 1137SOL    HW2 3547   3.660   1.238   2.209
 1138SOL     OW 3548   1.584   1.817   1.711
 1138SOL    HW1 3549   1.669   1.817   1.755
 1138SOL    HW2 3550   1.600   1.859   1.626
 1139SOL     OW 3551   3.367   0.124   1.410
 1139SOL    HW1 3552   3.389   0.042   1.454
 1139SOL    HW2 3553   3.313   0.097   1.336
 1140SOL     OW 3554   1.840   3.045   3.493
 1140SOL    HW1 3555   1.906   3.099   3.450
 1140SOL    HW2 3556   1.884   2.961   3.507
 1141SOL     OW 3557   0.811   1.762   2.603
 1141SOL    HW1 3558   0.781   1.812   2.679
 1141SOL    HW2 3559   0.847   1.827   2.543
 1142SOL     OW 3560   0.443   3.124   2.999
 1142SOL    HW1 3561   0.514   3.168   2.952
 1142SOL    HW2 3562   0.369   3.183   2.992
 1143SOL     OW 3563   2.735   1.551   0.700
 1143SOL    HW1 3564   2.764   1.571   0.789
 1143SOL    HW2 3565   2.758   1.629   0.649
 1144SOL     OW 3566   2.926   2.478   3.729
 1144SOL    HW1 3567   2.861   2.464   3.659
 1144SOL    HW2 3568   2.923   2.572   3.746
 1145SOL     OW 3569   2.332   1.809   1.406
 1145SOL    HW1 3570   2.362   1.892   1.370
 1145SOL    HW2 3571   2.369   1.743   1.347
 1146SOL     OW 3572   2.309   3.668   0.331
 1146SOL    HW1 3573   2.295   3.594   0.390
 1146SOL    HW2 3574   2.313   3.744   0.390
 1147SOL     OW 3575   0.640   1.698   1.770
 1147SOL    HW1 3576   0.597   1.613   1.777
 1147SOL    HW2 3577   0.569   1.758   1.744
 1148SOL     OW 3578   1.338   0.023   3.360
 1148SOL    HW1 3579   1.351   0.049   3.451
 1148SOL    HW2 3580   1.267   0.079   3.329
 1149SOL     OW 3581   3.211   0.295   0.346
 1149SOL    HW1 3582   3.127   0.250   0.343
 1149SOL    HW2 3583   3.195   0.372   0.400
 1150SOL     OW 3584   3.121   3.678   2.225
 1150SOL    HW1 3585   3.113   3.748   2.291
 1150SOL    HW2 3586   3.041   3.686   2.173
 1151SOL     OW 3587   3.034   2.182   2.733
 1151SOL    HW1 3588   2.950   2.210   2.697
 1151SOL    HW2 3589   3.030   2.209   2.825
 1152SOL     OW 3590   3.609   3.233   0.581
 1152SOL    HW1 3591   3.563   3.315   0.562
 1152SOL    HW2 3592   3.694   3.261   0.616
 1153SOL     OW 3593   3.417   1.703   3.202
 1153SOL    HW1 3594   3.430   1.764   3.129
 1153SOL    HW2 3595   3.384   1.623   3.160
 1154SOL     OW 3596   3.201   0.801   1.272
 1154SOL    HW1 3597   3.177   0.716   1.310
 1154SOL    HW2 3598   3.151   0.806   1.190
 1155SOL     OW 3599   2.582   3.769   1.874
 1155SOL    HW1 3600   2.571   3.678   1.900
 1155SOL    HW2 3601   2.493   3.802   1.864
 1156SOL     OW 3602   2.013   1.882   2.811
 1156SOL    HW1 3603   1.955   1.891   2.735
 1156SOL    HW2 3604   2.092   1.841   2.776
 1157SOL     OW 3605   3.360   2.044   1.421
 1157SOL    HW1 3606   3.444   2.066   1.461
 1157SOL    HW2 3607   3.297   2.100   1.466
 1158SOL     OW 3608   2.067   1.434   0.997
 1158SOL    HW1 3609   2.115   1.516   0.985
 1158SOL    HW2 3610   2.100   1.377   0.927
 1159SOL     OW 3611   1.233   3.306   3.729
 1159SOL    HW1 3612   1.211   3.296   3.821
 1159SOL    HW2 3613   1.267   3.395   3.722
 1160SOL     OW 3614   0.306   2.893   2.862
 1160SOL    HW1 3615   0.292   2.864   2.952
 1160SOL    HW2 3616   0.358   2.973   2.870
 1161SOL     OW 3617   0.674   1.195   2.383
 1161SOL    HW1 3618   0.642   1.154   2.302
 1161SOL    HW2 3619   0.636   1.141   2.453
 1162SOL     OW 3620   3.332  -0.005   0.698
 1162SOL    HW1 3621   3.300   0.070   0.748
 1162SOL    HW2 3622   3.394  -0.048   0.757
 1163SOL     OW 3623   1.466   1.562   1.745
 1163SOL    HW1 3624   1.517   1.510   1.807
 1163SOL    HW2 3625   1.497   1.652   1.758
 1164SOL     OW 3626   2.821   0.053   2.441
 1164SOL    HW1 3627   2.796  -0.031   2.400
 1164SOL    HW2 3628   2.907   0.072   2.403
 1165SOL     OW 3629   0.720   1.297   3.795
 1165SOL    HW1 3630   0.725   1.280   3.701
 1165SOL    HW2 3631   0.674   1.221   3.831
 1166SOL     OW 3632   1.861   0.416   2.505
 1166SOL    HW1 3633   1.953   0.399   2.524
 1166SOL    HW2 3634   1.847   0.380   2.417
 1167SOL     OW 3635   0.605   2.858   0.045
 1167SOL    HW1 3636   0.569   2.849   0.133
 1167SOL    HW2 3637   0.677   2.795   0.042
 1168SOL     OW 3638   0.270   1.651   2.284
 1168SOL    HW1 3639   0.222   1.716   2.232
 1168SOL    HW2 3640   0.300   1.587   2.220
 1169SOL     OW 3641   0.382   2.706   0.759
 1169SOL    HW1 3642   0.464   2.709   0.709
 1169SOL    HW2 3643   0.389   2.781   0.819
 1170SOL     OW 3644   1.128   1.591   2.255
 1170SOL    HW1 3645   1.154   1.680   2.279
 1170SOL    HW2 3646   1.060   1.568   2.318
 1171SOL     OW 3647   1.060   1.419   1.685
 1171SOL    HW1 3648   1.106   1.490   1.640
 1171SOL    HW2 3649   1.103   1.414   1.771
 1172SOL     OW 3650   0.011   2.000   2.350
 1172SOL    HW1 3651  -0.037   2.053   2.286
 1172SOL    HW2 3652   0.067   2.063   2.395
 1173SOL     OW 3653   2.464   0.645   2.019
 1173SOL    HW1 3654   2.428   0.621   1.934
 1173SOL    HW2 3655   2.501   0.563   2.053
 1174SOL     OW 3656   3.217   3.598   3.131
 1174SOL    HW1 3657   3.122   3.598   3.126
 1174SOL    HW2 3658   3.240   3.513   3.167
 1175SOL     OW 3659   0.415   0.690   0.310
 1175SOL    HW1 3660   0.444   0.780   0.317
 1175SOL    HW2 3661   0.495   0.638   0.312
 1176SOL     OW 3662   3.068   0.285   0.676
 1176SOL    HW1 3663   2.987   0.271   0.626
 1176SOL    HW2 3664   3.041   0.276   0.767
 1177SOL     OW 3665   2.943   0.428   2.645
 1177SOL    HW1 3666   3.017   0.381   2.682
 1177SOL    HW2 3667   2.925   0.498   2.707
 1178SOL     OW 3668   2.380   0.595   1.761
 1178SOL    HW1 3669   2.300   0.583   1.812
 1178SOL    HW2 3670   2.349   0.618   1.673
 1179SOL     OW 3671   1.867   2.761   2.288
 1179SOL    HW1 3672   1.933   2.827   2.266
 1179SOL    HW2 3673   1.916   2.694   2.335
 1180SOL     OW 3674   1.190   2.467   2.692
 1180SOL    HW1 3675   1.175   2.373   2.688
 1180SOL    HW2 3676   1.111   2.502   2.733
 1181SOL     OW 3677   0.506   1.986   3.836
 1181SOL    HW1 3678   0.458   1.904   3.850
 1181SOL    HW2 3679   0.464   2.025   3.759
 1182SOL     OW 3680   2.149   1.114   3.673
 1182SOL    HW1 3681   2.148   1.193   3.726
 1182SOL    HW2 3682   2.135   1.145   3.583
 1183SOL     OW 3683   3.376   2.962   1.140
 1183SOL    HW1 3684   3.356   2.937   1.230
 1183SOL    HW2 3685   3.308   2.919   1.088
 1184SOL     OW 3686   3.402   1.009   0.176
 1184SOL    HW1 3687   3.336   1.024   0.109
 1184SOL    HW2 3688   3.351   0.986   0.254
 1185SOL     OW 3689   3.058   2.289   1.411
 1185SOL    HW1 3690   3.105   2.317   1.333
 1185SOL    HW2 3691   2.976   2.337   1.409
 1186SOL     OW 3692   3.562   0.226   3.890
 1186SOL    HW1 3693   3.609   0.307   3.907
 1186SOL    HW2 3694   3.481   0.234   3.941
 1187SOL     OW 3695   1.471   0.786   2.274
 1187SOL    HW1 3696   1.502   0.722   2.337
 1187SOL    HW2 3697   1.551   0.825   2.237
 1188SOL     OW 3698   1.945   2.768   3.479
 1188SOL    HW1 3699   1.885   2.694   3.492
 1188SOL    HW2 3700   2.028   2.737   3.516
 1189SOL     OW 3701   3.286   1.367   2.578
 1189SOL    HW1 3702   3.284   1.443   2.520
 1189SOL    HW2 3703   3.221   1.307   2.541
 1190SOL     OW 3704   3.329   1.447   1.171
 1190SOL    HW1 3705   3.261   1.390   1.134
 1190SOL    HW2 3706   3.389   1.463   1.098
 1191SOL     OW 3707   1.736   0.817   0.343
 1191SOL    HW1 3708   1.769   0.737   0.303
 1191SOL    HW2 3709   1.795   0.833   0.417
 1192SOL     OW 3710   2.919   3.643   3.297
 1192SOL    HW1 3711   2.992   3.670   3.353
 1192SOL    HW2 3712   2.857   3.715   3.300
 1193SOL     OW 3713   0.888   0.367   3.649
 1193SOL    HW1 3714   0.857   0.457   3.633
 1193SOL    HW2 3715   0.916   0.367   3.740
 1194SOL     OW 3716   1.567   0.072   2.299
 1194SOL    HW1 3717   1.594  -0.010   2.259
 1194SOL    HW2 3718   1.494   0.102   2.245
 1195SOL     OW 3719   0.748   2.105   3.772
 1195SOL    HW1 3720   0.721   2.162   3.700
 1195SOL    HW2 3721   0.666   2.078   3.813
 1196SOL     OW 3722   0.864   2.365   0.917
 1196SOL    HW1 3723   0.941   2.345   0.969
 1196SOL    HW2 3724   0.855   2.290   0.858
 1197SOL     OW 3725   1.642   0.844   2.021
 1197SOL    HW1 3726   1.632   0.934   1.989
 1197SOL    HW2 3727   1.736   0.835   2.039
 1198SOL     OW 3728   2.956   1.167   0.004
 1198SOL    HW1 3729   2.933   1.220  -0.072
 1198SOL    HW2 3730   2.931   1.221   0.079
 1199SOL     OW 3731   0.484   1.212   1.867
 1199SOL    HW1 3732   0.431   1.274   1.817
 1199SOL    HW2 3733   0.426   1.182   1.937
 1200SOL     OW 3734   3.272   1.872   3.582
 1200SOL    HW1 3735   3.317   1.834   3.659
 1200SOL    HW2 3736   3.334   1.936   3.548
 1201SOL     OW 3737   3.316   3.209   2.161
 1201SOL    HW1 3738   3.312   3.231   2.068
 1201SOL    HW2 3739   3.383   3.267   2.196
 1202SOL     OW 3740   1.503   2.272   2.585
 1202SOL    HW1 3741   1.407   2.280   2.581
 1202SOL    HW2 3742   1.525   2.208   2.517
 1203SOL     OW 3743   1.200   3.786   1.929
 1203SOL    HW1 3744   1.136   3.818   1.993
 1203SOL    HW2 3745   1.171   3.823   1.846
 1204SOL     OW 3746   0.679   2.756   1.958
 1204SOL    HW1 3747   0.757   2.736   1.907
 1204SOL    HW2 3748   0.692   2.709   2.041
 1205SOL     OW 3749   3.520   0.197   0.327
 1205SOL    HW1 3750   3.481   0.257   0.391
 1205SOL    HW2 3751   3.445   0.166   0.275
 1206SOL     OW 3752   0.921   1.090   0.505
 1206SOL    HW1 3753   0.908   1.086   0.600
 1206SOL    HW2 3754   1.016   1.086   0.494
 1207SOL     OW 3755   3.860   0.612   3.081
 1207SOL    HW1 3756   3.906   0.686   3.042
 1207SOL    HW2 3757   3.929   0.554   3.114
 1208SOL     OW 3758   1.576   1.721   1.221
 1208SOL    HW1 3759   1.496   1.745   1.174
 1208SOL    HW2 3760   1.559   1.632   1.253
 1209SOL     OW 3761   3.674   0.019   1.068
 1209SOL    HW1 3762   3.614  -0.042   1.111
 1209SOL    HW2 3763   3.736   0.043   1.137
 1210SOL     OW 3764   2.875   3.726   1.656
 1210SOL    HW1 3765   2.849   3.648   1.608
 1210SOL    HW2 3766   2.952   3.699   1.707
 1211SOL     OW 3767   1.099   2.601   2.462
 1211SOL    HW1 3768   1.073   2.675   2.517
 1211SOL    HW2 3769   1.131   2.535   2.524
 1212SOL     OW 3770   0.637   1.501   1.036
 1212SOL    HW1 3771   0.699   1.516   1.108
 1212SOL    HW2 3772   0.689   1.513   0.957
 1213SOL     OW 3773   3.153   1.921   0.992
 1213SOL    HW1 3774   3.114   1.834   0.998
 1213SOL    HW2 3775   3.090   1.971   0.940
 1214SOL     OW 3776   1.213   3.143   2.227
 1214SOL    HW1 3777   1.244   3.061   2.264
 1214SOL    HW2 3778   1.292   3.197   2.219
 1215SOL     OW 3779   3.271   3.639   1.296
 1215SOL    HW1 3780   3.196   3.644   1.237
 1215SOL    HW2 3781   3.252   3.563   1.352
 1216SOL     OW 3782   1.610   2.483   1.801
 1216SOL    HW1 3783   1.523   2.472   1.764
 1216SOL    HW2 3784   1.664   2.419   1.755
 1217SOL     OW 3785   1.030   2.390   3.898
 1217SOL    HW1 3786   1.070   2.406   3.984
 1217SOL    HW2 3787   1.054   2.467   3.846
 1218SOL     OW 3788   1.490   0.449   2.652
 1218SOL    HW1 3789   1.478   0.482   2.742
 1218SOL    HW2 3790   1.501   0.355   2.663
 1219SOL     OW 3791   1.203   1.293   1.173
 1219SOL    HW1 3792   1.227   1.231   1.104
 1219SOL    HW2 3793   1.137   1.246   1.226
 1220SOL     OW 3794   3.022   0.888   2.287
 1220SOL    HW1 3795   2.961   0.962   2.293
 1220SOL    HW2 3796   3.097   0.923   2.238
 1221SOL     OW 3797   3.002   0.108   1.175
 1221SOL    HW1 3798   2.986   0.019   1.207
 1221SOL    HW2 3799   2.959   0.164   1.239
 1222SOL     OW 3800   3.897   1.531   2.785
 1222SOL    HW1 3801   3.911   1.469   2.856
 1222SOL    HW2 3802   3.953   1.606   2.807
 1223SOL     OW 3803   0.366   3.153   1.157
 1223SOL    HW1 3804   0.445   3.179   1.110
 1223SOL    HW2 3805   0.296   3.159   1.092
 1224SOL     OW 3806   3.821   1.156   1.963
 1224SOL    HW1 3807   3.756   1.161   1.894
 1224SOL    HW2 3808   3.775   1.186   2.042
 1225SOL     OW 3809   2.234   3.089   1.717
 1225SOL    HW1 3810   2.211   3.059   1.805
 1225SOL    HW2 3811   2.240   3.009   1.666
 1226SOL     OW 3812   0.402   1.746   2.053
 1226SOL    HW1 3813   0.403   1.652   2.070
 1226SOL    HW2 3814   0.333   1.780   2.109
 1227SOL     OW 3815   2.062   0.018   2.730
 1227SOL    HW1 3816   2.030   0.054   2.813
 1227SOL    HW2 3817   2.047   0.088   2.666
 1228SOL     OW 3818   3.112   0.329   1.917
 1228SOL    HW1 3819   3.044   0.368   1.971
 1228SOL    HW2 3820   3.169   0.283   1.980
 1229SOL     OW 3821   3.660   0.298   3.570
 1229SOL    HW1 3822   3.573   0.260   3.580
 1229SOL    HW2 3823   3.651   0.360   3.498
 1230SOL     OW 3824   1.049   1.816   2.049
 1230SOL    HW1 3825   1.058   1.744   2.112
 1230SOL    HW2 3826   0.956   1.819   2.030
 1231SOL     OW 3827   0.859   1.995   3.504
 1231SOL    HW1 3828   0.909   1.958   3.431
 1231SOL    HW2 3829   0.899   2.081   3.519
 1232SOL     OW 3830   2.440   0.496   0.245
 1232SOL    HW1 3831   2.365   0.523   0.193
 1232SOL    HW2 3832   2.427   0.402   0.259
 1233SOL     OW 3833   0.393   1.185   2.141
 1233SOL    HW1 3834   0.477   1.140   2.150
 1233SOL    HW2 3835   0.383   1.235   2.222
 1234SOL     OW 3836   3.178   0.165   3.035
 1234SOL    HW1 3837   3.098   0.214   3.054
 1234SOL    HW2 3838   3.195   0.115   3.115
 1235SOL     OW 3839   3.424   1.081   3.485
 1235SOL    HW1 3840   3.387   1.167   3.466
 1235SOL    HW2 3841   3.394   1.061   3.574
 1236SOL     OW 3842   3.924   1.768   1.680
 1236SOL    HW1 3843   3.847   1.770   1.624
 1236SOL    HW2 3844   3.904   1.829   1.751
 1237SOL     OW 3845   0.049   0.052   3.495
 1237SOL    HW1 3846   0.007   0.107   3.561
 1237SOL    HW2 3847   0.010   0.081   3.412
 1238SOL     OW 3848   2.385   3.359   2.846
 1238SOL    HW1 3849   2.415   3.434   2.795
 1238SOL    HW2 3850   2.463   3.329   2.892
 1239SOL     OW 3851   3.365   1.657   1.341
 1239SOL    HW1 3852   3.398   1.731   1.290
 1239SOL    HW2 3853   3.378   1.581   1.284
 1240SOL     OW 3854   0.880   0.608   0.561
 1240SOL    HW1 3855   0.804   0.565   0.602
 1240SOL    HW2 3856   0.928   0.536   0.521
 1241SOL     OW 3857   3.417   2.548   0.441
 1241SOL    HW1 3858   3.505   2.512   0.429
 1241SOL    HW2 3859   3.429   2.643   0.440
 1242SOL     OW 3860   2.782   0.844   0.189
 1242SOL    HW1 3861   2.789   0.783   0.116
 1242SOL    HW2 3862   2.849   0.815   0.251
 1243SOL     OW 3863   2.119   3.150   0.809
 1243SOL    HW1 3864   2.078   3.229   0.845
 1243SOL    HW2 3865   2.212   3.173   0.800
 1244SOL     OW 3866   1.374   2.125   2.123
 1244SOL    HW1 3867   1.441   2.167   2.068
 1244SOL    HW2 3868   1.291   2.149   2.082
 1245SOL     OW 3869   2.422   3.182   0.843
 1245SOL    HW1 3870   2.464   3.189   0.929
 1245SOL    HW2 3871   2.425   3.271   0.808
 1246SOL     OW 3872   3.963   2.804   1.789
 1246SOL    HW1 3873   3.881   2.806   1.839
 1246SOL    HW2 3874   3.940   2.760   1.707
 1247SOL     OW 3875   0.271   2.063   1.604
 1247SOL    HW1 3876   0.311   2.149   1.618
 1247SOL    HW2 3877   0.233   2.068   1.516
 1248SOL     OW 3878   3.882   0.094   0.878
 1248SOL    HW1 3879   3.805   0.043   0.899
 1248SOL    HW2 3880   3.939   0.034   0.829
 1249SOL     OW 3881   2.648   1.767   1.066
 1249SOL    HW1 3882   2.576   1.713   1.034
 1249SOL    HW2 3883   2.718   1.705   1.086
 1250SOL     OW 3884   2.402   2.099   3.516
 1250SOL    HW1 3885   2.483   2.071   3.474
 1250SOL    HW2 3886   2.332   2.066   3.460
 1251SOL     OW 3887   2.627   1.673   2.706
 1251SOL    HW1 3888   2.617   1.593   2.654
 1251SOL    HW2 3889   2.719   1.673   2.731
 1252SOL     OW 3890   0.817   1.305   0.349
 1252SOL    HW1 3891   0.867   1.243   0.402
 1252SOL    HW2 3892   0.743   1.254   0.317
 1253SOL     OW 3893   2.294   3.528   3.362
 1253SOL    HW1 3894   2.297   3.598   3.428
 1253SOL    HW2 3895   2.367   3.471   3.385
 1254SOL     OW 3896   1.215   2.148   1.844
 1254SOL    HW1 3897   1.204   2.117   1.754
 1254SOL    HW2 3898   1.218   2.243   1.836
 1255SOL     OW 3899   1.298   2.459   3.461
 1255SOL    HW1 3900   1.233   2.507   3.409
 1255SOL    HW2 3901   1.255   2.377   3.483
 1256SOL     OW 3902   3.833   2.930   1.198
 1256SOL    HW1 3903   3.903   2.954   1.258
 1256SOL    HW2 3904   3.830   2.835   1.202
 1257SOL     OW 3905   3.412   0.233   2.379
 1257SOL    HW1 3906   3.456   0.258   2.460
 1257SOL    HW2 3907   3.466   0.163   2.343
 1258SOL     OW 3908   0.903   2.318   2.155
 1258SOL    HW1 3909   0.895   2.227   2.185
 1258SOL    HW2 3910   0.989   2.346   2.188
 1259SOL     OW 3911   1.555   3.343   2.535
 1259SOL    HW1 3912   1.608   3.264   2.519
 1259SOL    HW2 3913   1.554   3.352   2.630
 1260SOL     OW 3914   2.702   0.834   2.488
 1260SOL    HW1 3915   2.661   0.763   2.439
 1260SOL    HW2 3916   2.633   0.899   2.498
 1261SOL     OW 3917   0.637   2.612   3.799
 1261SOL    HW1 3918   0.711   2.672   3.786
 1261SOL    HW2 3919   0.650   2.577   3.887
 1262SOL     OW 3920   2.539   2.879   2.383
 1262SOL    HW1 3921   2.475   2.807   2.380
 1262SOL    HW2 3922   2.569   2.888   2.293
 1263SOL     OW 3923   3.708   2.928   2.771
 1263SOL    HW1 3924   3.688   2.879   2.691
 1263SOL    HW2 3925   3.772   2.874   2.817
 1264SOL     OW 3926   2.301   2.328   2.931
 1264SOL    HW1 3927   2.299   2.416   2.893
 1264SOL    HW2 3928   2.223   2.285   2.896
 1265SOL     OW 3929   2.108   0.104   0.610
 1265SOL    HW1 3930   2.148   0.191   0.620
 1265SOL    HW2 3931   2.082   0.079   0.699
 1266SOL     OW 3932   2.706   0.565   2.173
 1266SOL    HW1 3933   2.753   0.642   2.143
 1266SOL    HW2 3934   2.751   0.492   2.131
 1267SOL     OW 3935   2.743   3.684   0.218
 1267SOL    HW1 3936   2.700   3.709   0.299
 1267SOL    HW2 3937   2.827   3.647   0.245
 1268SOL     OW 3938   3.608   2.343   0.701
 1268SOL    HW1 3939   3.563   2.428   0.707
 1268SOL    HW2 3940   3.618   2.328   0.607
 1269SOL     OW 3941   1.879   0.649   1.052
 1269SOL    HW1 3942   1.935   0.671   1.126
 1269SOL    HW2 3943   1.804   0.604   1.091
 1270SOL     OW 3944   0.138   1.523   3.263
 1270SOL    HW1 3945   0.148   1.538   3.357
 1270SOL    HW2 3946   0.164   1.432   3.250
 1271SOL     OW 3947   1.387   2.249   0.384
 1271SOL    HW1 3948   1.401   2.206   0.300
 1271SOL    HW2 3949   1.437   2.330   0.378
 1272SOL     OW 3950   3.626   0.508   1.837
 1272SOL    HW1 3951   3.644   0.599   1.859
 1272SOL    HW2 3952   3.532   0.506   1.819
 1273SOL     OW 3953   2.079   0.751   1.259
 1273SOL    HW1 3954   2.065   0.821   1.323
 1273SOL    HW2 3955   2.028   0.677   1.293
 1274SOL     OW 3956   1.185   1.141   2.214
 1274SOL    HW1 3957   1.224   1.097   2.138
 1274SOL    HW2 3958   1.094   1.155   2.189
 1275SOL     OW 3959   0.966   3.476   1.724
 1275SOL    HW1 3960   1.027   3.406   1.698
 1275SOL    HW2 3961   0.968   3.474   1.819
 1276SOL     OW 3962   2.399   0.945   0.569
 1276SOL    HW1 3963   2.306   0.966   0.576
 1276SOL    HW2 3964   2.401   0.858   0.531
 1277SOL     OW 3965   3.367   2.861   0.457
 1277SOL    HW1 3966   3.461   2.841   0.466
 1277SOL    HW2 3967   3.364   2.957   0.456
 1278SOL     OW 3968   1.903   2.564   2.489
 1278SOL    HW1 3969   1.902   2.635   2.553
 1278SOL    HW2 3970   1.923   2.486   2.539
 1279SOL     OW 3971   0.308   3.922   0.274
 1279SOL    HW1 3972   0.284   3.831   0.258
 1279SOL    HW2 3973   0.288   3.936   0.367
 1280SOL     OW 3974   1.096   0.416   0.264
 1280SOL    HW1 3975   1.182   0.429   0.224
 1280SOL    HW2 3976   1.113   0.418   0.358
 1281SOL     OW 3977   3.874   1.335   3.605
 1281SOL    HW1 3978   3.835   1.412   3.563
 1281SOL    HW2 3979   3.800   1.283   3.635
 1282SOL     OW 3980   1.976   3.118   1.862
 1282SOL    HW1 3981   1.988   3.201   1.817
 1282SOL    HW2 3982   1.902   3.132   1.921
 1283SOL     OW 3983   2.923   0.184   3.813
 1283SOL    HW1 3984   2.862   0.121   3.774
 1283SOL    HW2 3985   2.870   0.264   3.824
 1284SOL     OW 3986   1.635   2.155   3.908
 1284SOL    HW1 3987   1.654   2.249   3.904
 1284SOL    HW2 3988   1.640   2.134   4.002
 1285SOL     OW 3989   2.844   3.251   0.471
 1285SOL    HW1 3990   2.918   3.275   0.527
 1285SOL    HW2 3991   2.884   3.230   0.387
 1286SOL     OW 3992   1.750   3.351   3.480
 1286SOL    HW1 3993   1.670   3.403   3.470
 1286SOL    HW2 3994   1.752   3.329   3.573
 1287SOL     OW 3995   1.442   1.149   0.063
 1287SOL    HW1 3996   1.355   1.122   0.093
 1287SOL    HW2 3997   1.475   1.206   0.133
 1288SOL     OW 3998   2.433   2.943   3.365
 1288SOL    HW1 3999   2.461   2.869   3.312
 1288SOL    HW2 4000   2.356   2.911   3.412
 1289SOL     OW 4001   1.240   0.441   2.538
 1289SOL    HW1 4002   1.334   0.449   2.557
 1289SOL    HW2 4003   1.215   0.528   2.506
 1290SOL     OW 4004   2.015   2.424   2.703
 1290SOL    HW1 4005   2.078   2.483   2.747
 1290SOL    HW2 4006   1.930   2.450   2.738
 1291SOL     OW 4007   1.304   1.785   0.043
 1291SOL    HW1 4008   1.230   1.786   0.103
 1291SOL    HW2 4009   1.353   1.707   0.067
 1292SOL     OW 4010   1.939   1.371   3.447
 1292SOL    HW1 4011   1.845   1.380   3.464
 1292SOL    HW2 4012   1.943   1.345   3.355
 1293SOL     OW 4013   2.839   0.608   0.863
 1293SOL    HW1 4014   2.872   0.588   0.951
 1293SOL    HW2 4015   2.752   0.568   0.860
 1294SOL     OW 4016   3.664   2.388   3.488
 1294SOL    HW1 4017   3.652   2.462   3.429
 1294SOL    HW2 4018   3.575   2.361   3.512
 1295SOL     OW 4019   0.507   0.833   3.017
 1295SOL    HW1 4020   0.563   0.815   2.941
 1295SOL    HW2 4021   0.452   0.906   2.989
 1296SOL     OW 4022   1.981   1.300   2.870
 1296SOL    HW1 4023   2.025   1.384   2.881
 1296SOL    HW2 4024   2.004   1.273   2.781
 1297SOL     OW 4025   3.151   1.179   3.409
 1297SOL    HW1 4026   3.151   1.216   3.497
 1297SOL    HW2 4027   3.098   1.240   3.358
 1298SOL     OW 4028   1.048   3.125   3.596
 1298SOL    HW1 4029   1.135   3.154   3.623
 1298SOL    HW2 4030   0.995   3.128   3.676
 1299SOL     OW 4031   2.084   3.607   2.623
 1299SOL    HW1 4032   2.099   3.673   2.691
 1299SOL    HW2 4033   2.007   3.559   2.653
 1300SOL     OW 4034   3.683   0.835   3.285
 1300SOL    HW1 4035   3.758   0.894   3.274
 1300SOL    HW2 4036   3.663   0.805   3.197
 1301SOL     OW 4037   1.907   0.008   1.201
 1301SOL    HW1 4038   1.896  -0.065   1.140
 1301SOL    HW2 4039   1.950   0.076   1.149
 1302SOL     OW 4040   1.767   2.453   0.621
 1302SOL    HW1 4041   1.816   2.400   0.684
 1302SOL    HW2 4042   1.790   2.543   0.642
 1303SOL     OW 4043   2.396   1.254   1.425
 1303SOL    HW1 4044   2.301   1.246   1.418
 1303SOL    HW2 4045   2.421   1.185   1.487
 1304SOL     OW 4046   1.614   2.806   2.231
 1304SOL    HW1 4047   1.606   2.735   2.168
 1304SOL    HW2 4048   1.706   2.805   2.257
 1305SOL     OW 4049   1.957   3.228   3.318
 1305SOL    HW1 4050   2.019   3.262   3.253
 1305SOL    HW2 4051   1.920   3.306   3.359
 1306SOL     OW 4052   2.202   0.425   2.234
 1306SOL    HW1 4053   2.247   0.362   2.177
 1306SOL    HW2 4054   2.272   0.459   2.291
 1307SOL     OW 4055   3.599   0.788   2.607
 1307SOL    HW1 4056   3.670   0.724   2.618
 1307SOL    HW2 4057   3.618   0.855   2.673
 1308SOL     OW 4058   1.522   0.482   2.933
 1308SOL    HW1 4059   1.547   0.390   2.943
 1308SOL    HW2 4060   1.444   0.493   2.987
 1309SOL     OW 4061   1.487   0.146   1.418
 1309SOL    HW1 4062   1.529   0.074   1.467
 1309SOL    HW2 4063   1.393   0.133   1.433
 1310SOL     OW 4064   2.901   2.768   2.297
 1310SOL    HW1 4065   2.956   2.798   2.225
 1310SOL    HW2 4066   2.884   2.675   2.278
 1311SOL     OW 4067   1.857   1.863   0.165
 1311SOL    HW1 4068   1.943   1.891   0.196
 1311SOL    HW2 4069   1.846   1.907   0.081
 1312SOL     OW 4070   2.161   3.343   3.191
 1312SOL    HW1 4071   2.194   3.396   3.263
 1312SOL    HW2 4072   2.154   3.404   3.117
 1313SOL     OW 4073   1.234   3.319   1.676
 1313SOL    HW1 4074   1.284   3.311   1.596
 1313SOL    HW2 4075   1.276   3.391   1.723
 1314SOL     OW 4076   3.796   0.516   2.608
 1314SOL    HW1 4077   3.808   0.442   2.548
 1314SOL    HW2 4078   3.865   0.506   2.673
 1315SOL     OW 4079   3.399   2.498   0.152
 1315SOL    HW1 4080   3.434   2.470   0.068
 1315SOL    HW2 4081   3.418   2.426   0.212
 1316SOL     OW 4082   1.405   1.891   1.896
 1316SOL    HW1 4083   1.482   1.918   1.845
 1316SOL    HW2 4084   1.342   1.962   1.884
 1317SOL     OW 4085   2.589   1.195   2.452
 1317SOL    HW1 4086   2.676   1.164   2.477
 1317SOL    HW2 4087   2.569   1.148   2.371
 1318SOL     OW 4088   0.938   2.327   2.918
 1318SOL    HW1 4089   1.016   2.284   2.953
 1318SOL    HW2 4090   0.898   2.261   2.861
 1319SOL     OW 4091   1.835   2.654   0.843
 1319SOL    HW1 4092   1.786   2.604   0.908
 1319SOL    HW2 4093   1.815   2.746   0.863
 1320SOL     OW 4094   3.065   0.319   3.454
 1320SOL    HW1 4095   3.119   0.275   3.519
 1320SOL    HW2 4096   2.996   0.257   3.433
 1321SOL     OW 4097   3.823   0.101   3.291
 1321SOL    HW1 4098   3.800   0.191   3.316
 1321SOL    HW2 4099   3.795   0.093   3.200
 1322SOL     OW 4100   2.137   3.406   1.351
 1322SOL    HW1 4101   2.097   3.487   1.319
 1322SOL    HW2 4102   2.230   3.415   1.329
 1323SOL     OW 4103   3.621   1.494   1.210
 1323SOL    HW1 4104   3.636   1.475   1.117
 1323SOL    HW2 4105   3.663   1.580   1.223
 1324SOL     OW 4106   0.275   3.654   2.491
 1324SOL    HW1 4107   0.228   3.695   2.563
 1324SOL    HW2 4108   0.304   3.727   2.436
 1325SOL     OW 4109   1.704   2.706   0.065
 1325SOL    HW1 4110   1.714   2.801   0.065
 1325SOL    HW2 4111   1.671   2.686  -0.023
 1326SOL     OW 4112   2.536   3.249   1.953
 1326SOL    HW1 4113   2.494   3.167   1.977
 1326SOL    HW2 4114   2.593   3.270   2.027
 1327SOL     OW 4115   3.078   0.538   0.747
 1327SOL    HW1 4116   2.995   0.573   0.777
 1327SOL    HW2 4117   3.055   0.456   0.703
 1328SOL     OW 4118   1.479   3.491   3.778
 1328SOL    HW1 4119   1.509   3.562   3.835
 1328SOL    HW2 4120   1.466   3.417   3.837
 1329SOL     OW 4121   2.535   3.241   1.110
 1329SOL    HW1 4122   2.631   3.236   1.112
 1329SOL    HW2 4123   2.507   3.191   1.187
 1330SOL     OW 4124   3.338   2.641   0.742
 1330SOL    HW1 4125   3.319   2.713   0.681
 1330SOL    HW2 4126   3.432   2.645   0.755
 1331SOL     OW 4127   2.569   1.298   3.931
 1331SOL    HW1 4128   2.643   1.346   3.968
 1331SOL    HW2 4129   2.584   1.207   3.957
 1332SOL     OW 4130   0.420   2.439   0.633
 1332SOL    HW1 4131   0.508   2.403   0.628
 1332SOL    HW2 4132   0.400   2.443   0.726
 1333SOL     OW 4133   2.317   2.471   3.811
 1333SOL    HW1 4134   2.324   2.560   3.848
 1333SOL    HW2 4135   2.237   2.436   3.849
 1334SOL     OW 4136   1.365   0.083   2.120
 1334SOL    HW1 4137   1.346   0.161   2.068
 1334SOL    HW2 4138   1.410   0.024   2.060
 1335SOL     OW 4139   3.303   0.603   3.144
 1335SOL    HW1 4140   3.268   0.590   3.233
 1335SOL    HW2 4141   3.395   0.580   3.151
 1336SOL     OW 4142   1.546   0.204   2.680
 1336SOL    HW1 4143   1.524   0.115   2.654
 1336SOL    HW2 4144   1.633   0.197   2.718
 1337SOL     OW 4145   1.789   2.191   3.042
 1337SOL    HW1 4146   1.800   2.185   2.947
 1337SOL    HW2 4147   1.825   2.109   3.076
 1338SOL     OW 4148   3.166   2.482   1.665
 1338SOL    HW1 4149   3.157   2.388   1.676
 1338SOL    HW2 4150   3.152   2.497   1.571
 1339SOL     OW 4151   1.608   1.330   3.786
 1339SOL    HW1 4152   1.513   1.322   3.782
 1339SOL    HW2 4153   1.629   1.400   3.724
 1340SOL     OW 4154   2.023   3.249   2.445
 1340SOL    HW1 4155   2.069   3.166   2.432
 1340SOL    HW2 4156   2.091   3.315   2.441
 1341SOL     OW 4157   2.733   3.471   1.743
 1341SOL    HW1 4158   2.774   3.385   1.749
 1341SOL    HW2 4159   2.772   3.522   1.814
 1342SOL     OW 4160   0.945   3.744   1.450
 1342SOL    HW1 4161   0.981   3.807   1.388
 1342SOL    HW2 4162   0.950   3.788   1.535
 1343SOL     OW 4163   0.945   1.101   0.760
 1343SOL    HW1 4164   0.873   1.047   0.793
 1343SOL    HW2 4165   1.018   1.040   0.749
 1344SOL     OW 4166   3.463   3.514   1.665
 1344SOL    HW1 4167   3.419   3.434   1.636
 1344SOL    HW2 4168   3.514   3.542   1.589
 1345SOL     OW 4169   3.574   2.835   2.379
 1345SOL    HW1 4170   3.520   2.914   2.380
 1345SOL    HW2 4171   3.658   2.862   2.415
 1346SOL     OW 4172   2.637   2.793   3.229
 1346SOL    HW1 4173   2.731   2.789   3.215
 1346SOL    HW2 4174   2.599   2.760   3.147
 1347SOL     OW 4175   2.817   0.099   2.728
 1347SOL    HW1 4176   2.840   0.078   2.638
 1347SOL    HW2 4177   2.760   0.176   2.721
 1348SOL     OW 4178   2.033   2.368   3.489
 1348SOL    HW1 4179   2.129   2.365   3.487
 1348SOL    HW2 4180   2.007   2.377   3.398
 1349SOL     OW 4181   2.662   0.160   3.102
 1349SOL    HW1 4182   2.666   0.255   3.095
 1349SOL    HW2 4183   2.650   0.130   3.012
 1350SOL     OW 4184   0.246   0.402   2.952
 1350SOL    HW1 4185   0.203   0.486   2.934
 1350SOL    HW2 4186   0.339   0.424   2.959
 1351SOL     OW 4187   3.506   0.305   0.591
 1351SOL    HW1 4188   3.517   0.236   0.657
 1351SOL    HW2 4189   3.579   0.365   0.607
 1352SOL     OW 4190   1.466   1.519   0.074
 1352SOL    HW1 4191   1.456   1.509   0.169
 1352SOL    HW2 4192   1.560   1.535   0.062
 1353SOL     OW 4193   2.476   0.325   1.368
 1353SOL    HW1 4194   2.416   0.264   1.326
 1353SOL    HW2 4195   2.531   0.270   1.424
 1354SOL     OW 4196   2.046   3.546   0.711
 1354SOL    HW1 4197   1.992   3.476   0.748
 1354SOL    HW2 4198   2.117   3.501   0.665
 1355SOL     OW 4199   2.412   2.470   1.116
 1355SOL    HW1 4200   2.322   2.439   1.128
 1355SOL    HW2 4201   2.453   2.402   1.063
 1356SOL     OW 4202   1.621   3.585   0.505
 1356SOL    HW1 4203   1.593   3.617   0.419
 1356SOL    HW2 4204   1.633   3.664   0.558
 1357SOL     OW 4205   1.286   0.630   0.449
 1357SOL    HW1 4206   1.198   0.652   0.419
 1357SOL    HW2 4207   1.332   0.600   0.371
 1358SOL     OW 4208   0.133   2.050   3.519
 1358SOL    HW1 4209   0.141   2.081   3.610
 1358SOL    HW2 4210   0.040   2.056   3.500
 1359SOL     OW 4211   1.218   3.604   3.736
 1359SOL    HW1 4212   1.313   3.592   3.746
 1359SOL    HW2 4213   1.205   3.612   3.641
 1360SOL     OW 4214   3.665   1.525   2.655
 1360SOL    HW1 4215   3.751   1.516   2.697
 1360SOL    HW2 4216   3.608   1.558   2.724
 1361SOL     OW 4217   2.900   1.396   1.990
 1361SOL    HW1 4218   2.940   1.481   2.006
 1361SOL    HW2 4219   2.955   1.356   1.923
 1362SOL     OW 4220   2.144   0.480   0.316
 1362SOL    HW1 4221   2.069   0.421   0.310
 1362SOL    HW2 4222   2.134   0.538   0.240
 1363SOL     OW 4223   3.155   2.621   1.402
 1363SOL    HW1 4224   3.247   2.642   1.388
 1363SOL    HW2 4225   3.110   2.659   1.326
 1364SOL     OW 4226   1.817   0.254   1.398
 1364SOL    HW1 4227   1.764   0.290   1.469
 1364SOL    HW2 4228   1.756   0.241   1.325
 1365SOL     OW 4229   2.666   1.163   2.927
 1365SOL    HW1 4230   2.621   1.091   2.881
 1365SOL    HW2 4231   2.631   1.159   3.016
 1366SOL     OW 4232   0.175   1.933   1.836
 1366SOL    HW1 4233   0.216   1.985   1.767
 1366SOL    HW2 4234   0.128   1.998   1.890
 1367SOL     OW 4235   1.265   3.010   3.005
 1367SOL    HW1 4236   1.342   2.983   3.056
 1367SOL    HW2 4237   1.248   3.099   3.033
 1368SOL     OW 4238   0.694   1.768   3.500
 1368SOL    HW1 4239   0.753   1.842   3.511
 1368SOL    HW2 4240   0.614   1.793   3.547
 1369SOL     OW 4241   3.788   1.086   1.316
 1369SOL    HW1 4242   3.756   1.165   1.361
 1369SOL    HW2 4243   3.859   1.117   1.261
 1370SOL     OW 4244   2.920   2.259   0.686
 1370SOL    HW1 4245   2.883   2.346   0.696
 1370SOL    HW2 4246   3.003   2.263   0.734
 1371SOL     OW 4247   2.348   0.952   3.752
 1371SOL    HW1 4248   2.287   1.009   3.705
 1371SOL    HW2 4249   2.427   1.006   3.763
 1372SOL     OW 4250   0.464   1.375   2.633
 1372SOL    HW1 4251   0.513   1.380   2.716
 1372SOL    HW2 4252   0.478   1.460   2.592
 1373SOL     OW 4253   2.541   0.176   3.352
 1373SOL    HW1 4254   2.571   0.140   3.268
 1373SOL    HW2 4255   2.479   0.245   3.328
 1374SOL     OW 4256   1.682   1.574   3.599
 1374SOL    HW1 4257   1.710   1.661   3.571
 1374SOL    HW2 4258   1.638   1.537   3.522
 1375SOL     OW 4259   1.690   2.116   0.210
 1375SOL    HW1 4260   1.730   2.053   0.269
 1375SOL    HW2 4261   1.674   2.193   0.264
 1376SOL     OW 4262   1.118   2.163   3.081
 1376SOL    HW1 4263   1.173   2.098   3.037
 1376SOL    HW2 4264   1.180   2.221   3.126
 1377SOL     OW 4265   2.053   0.948   2.656
 1377SOL    HW1 4266   2.018   0.893   2.585
 1377SOL    HW2 4267   1.976   0.990   2.695
 1378SOL     OW 4268   2.638   2.818   0.055
 1378SOL    HW1 4269   2.669   2.812   0.146
 1378SOL    HW2 4270   2.686   2.749   0.009
 1379SOL     OW 4271   2.493   0.717   3.094
 1379SOL    HW1 4272   2.472   0.808   3.072
 1379SOL    HW2 4273   2.545   0.686   3.020
 1380SOL     OW 4274   2.992   3.181   0.241
 1380SOL    HW1 4275   2.920   3.221   0.193
 1380SOL    HW2 4276   3.065   3.180   0.179
 1381SOL     OW 4277   0.561   0.968   2.172
 1381SOL    HW1 4278   0.623   0.944   2.103
 1381SOL    HW2 4279   0.556   0.890   2.228
 1382SOL     OW 4280   3.969   0.713   2.353
 1382SOL    HW1 4281   3.982   0.720   2.259
 1382SOL    HW2 4282   3.874   0.721   2.365
 1383SOL     OW 4283   2.062   2.517   0.808
 1383SOL    HW1 4284   1.982   2.568   0.821
 1383SOL    HW2 4285   2.065   2.500   0.714
 1384SOL     OW 4286   2.116   1.216   1.410
 1384SOL    HW1 4287   2.085   1.197   1.321
 1384SOL    HW2 4288   2.053   1.171   1.467
 1385SOL     OW 4289   3.043   1.084   2.721
 1385SOL    HW1 4290   3.048   0.989   2.736
 1385SOL    HW2 4291   3.043   1.122   2.809
 1386SOL     OW 4292   2.329   1.886   0.170
 1386SOL    HW1 4293   2.363   1.826   0.235
 1386SOL    HW2 4294   2.370   1.970   0.191
 1387SOL     OW 4295   0.086   3.022   2.702
 1387SOL    HW1 4296   0.125   2.935   2.704
 1387SOL    HW2 4297   0.150   3.079   2.746
 1388SOL     OW 4298   3.123   0.577   3.411
 1388SOL    HW1 4299   3.099   0.485   3.425
 1388SOL    HW2 4300   3.104   0.619   3.495
 1389SOL     OW 4301   3.151   2.913   3.359
 1389SOL    HW1 4302   3.145   2.828   3.404
 1389SOL    HW2 4303   3.245   2.933   3.359
 1390SOL     OW 4304   0.377   3.181   0.636
 1390SOL    HW1 4305   0.438   3.251   0.659
 1390SOL    HW2 4306   0.414   3.140   0.558
 1391SOL     OW 4307   3.199   1.916   2.946
 1391SOL    HW1 4308   3.186   1.828   2.980
 1391SOL    HW2 4309   3.123   1.965   2.976
 1392SOL     OW 4310   3.865   0.568   1.194
 1392SOL    HW1 4311   3.872   0.546   1.287
 1392SOL    HW2 4312   3.871   0.664   1.191
 1393SOL     OW 4313   1.205   0.949   1.320
 1393SOL    HW1 4314   1.208   0.884   1.250
 1393SOL    HW2 4315   1.146   1.017   1.287
 1394SOL     OW 4316   1.163   2.419   2.250
 1394SOL    HW1 4317   1.222   2.436   2.176
 1394SOL    HW2 4318   1.167   2.499   2.302
 1395SOL     OW 4319   0.523   0.621   0.036
 1395SOL    HW1 4320   0.433   0.634   0.008
 1395SOL    HW2 4321   0.530   0.527   0.053
 1396SOL     OW 4322   3.562   1.232   3.974
 1396SOL    HW1 4323   3.514   1.155   4.004
 1396SOL    HW2 4324   3.564   1.222   3.878
 1397SOL     OW 4325   1.994   1.895   0.812
 1397SOL    HW1 4326   2.013   1.802   0.819
 1397SOL    HW2 4327   2.032   1.933   0.892
 1398SOL     OW 4328   1.470   1.053   0.408
 1398SOL    HW1 4329   1.451   0.975   0.356
 1398SOL    HW2 4330   1.541   1.097   0.360
 1399SOL     OW 4331   1.878   3.352   1.461
 1399SOL    HW1 4332   1.936   3.330   1.388
 1399SOL    HW2 4333   1.838   3.435   1.436
 1400SOL     OW 4334   3.025   0.989   1.135
 1400SOL    HW1 4335   2.937   1.009   1.102
 1400SOL    HW2 4336   3.017   0.998   1.230
 1401SOL     OW 4337   1.718   2.290   1.666
 1401SOL    HW1 4338   1.717   2.256   1.576
 1401SOL    HW2 4339   1.775   2.230   1.714
 1402SOL     OW 4340   3.457   1.503   0.007
 1402SOL    HW1 4341   3.464   1.553   0.087
 1402SOL    HW2 4342   3.493   1.417   0.029
 1403SOL     OW 4343   0.467   1.816   2.863
 1403SOL    HW1 4344   0.483   1.726   2.837
 1403SOL    HW2 4345   0.435   1.810   2.953
 1404SOL     OW 4346   0.259   3.752   1.936
 1404SOL    HW1 4347   0.302   3.832   1.966
 1404SOL    HW2 4348   0.319   3.682   1.961
 1405SOL     OW 4349   0.486   0.358   0.065
 1405SOL    HW1 4350   0.453   0.279   0.108
 1405SOL    HW2 4351   0.483   0.337  -0.028
 1406SOL     OW 4352   3.810   0.883   0.017
 1406SOL    HW1 4353   3.725   0.856   0.053
 1406SOL    HW2 4354   3.868   0.884   0.093
 1407SOL     OW 4355   2.729   3.210   2.712
 1407SOL    HW1 4356   2.687   3.183   2.631
 1407SOL    HW2 4357   2.664   3.191   2.780
 1408SOL     OW 4358   3.443   3.395   3.963
 1408SOL    HW1 4359   3.518   3.425   3.911
 1408SOL    HW2 4360   3.369   3.399   3.902
 1409SOL     OW 4361   2.272   3.487   0.532
 1409SOL    HW1 4362   2.226   3.412   0.493
 1409SOL    HW2 4363   2.334   3.447   0.594
 1410SOL     OW 4364   0.258   3.190   0.073
 1410SOL    HW1 4365   0.184   3.145   0.114
 1410SOL    HW2 4366   0.287   3.130   0.004
 1411SOL     OW 4367   2.775   3.307   2.402
 1411SOL    HW1 4368   2.808   3.219   2.421
 1411SOL    HW2 4369   2.821   3.363   2.465
 1412SOL     OW 4370   2.368   0.104   1.180
 1412SOL    HW1 4371   2.349   0.073   1.268
 1412SOL    HW2 4372   2.300   0.169   1.162
 1413SOL     OW 4373   2.174   1.845   3.911
 1413SOL    HW1 4374   2.226   1.873   3.985
 1413SOL    HW2 4375   2.153   1.753   3.930
 1414SOL     OW 4376   1.450   2.132   2.838
 1414SOL    HW1 4377   1.448   2.041   2.865
 1414SOL    HW2 4378   1.371   2.144   2.785
 1415SOL     OW 4379   2.107   3.036   2.331
 1415SOL    HW1 4380   2.110   2.984   2.250
 1415SOL    HW2 4381   2.193   3.022   2.371
 1416SOL     OW 4382   3.097   1.245   1.846
 1416SOL    HW1 4383   3.096   1.194   1.765
 1416SOL    HW2 4384   3.157   1.198   1.904
 1417SOL     OW 4385   2.744   0.694   0.573
 1417SOL    HW1 4386   2.685   0.621   0.555
 1417SOL    HW2 4387   2.769   0.682   0.665
 1418SOL     OW 4388   2.162   1.558   2.544
 1418SOL    HW1 4389   2.168   1.586   2.635
 1418SOL    HW2 4390   2.225   1.487   2.535
 1419SOL     OW 4391   1.472   3.531   3.139
 1419SOL    HW1 4392   1.454   3.494   3.053
 1419SOL    HW2 4393   1.446   3.623   3.132
 1420SOL     OW 4394   1.585   2.318   3.481
 1420SOL    HW1 4395   1.602   2.250   3.415
 1420SOL    HW2 4396   1.490   2.322   3.488
 1421SOL     OW 4397   0.767   0.165   1.937
 1421SOL    HW1 4398   0.759   0.080   1.981
 1421SOL    HW2 4399   0.762   0.229   2.007
 1422SOL     OW 4400   1.603   2.866   2.864
 1422SOL    HW1 4401   1.598   2.792   2.803
 1422SOL    HW2 4402   1.600   2.944   2.808
 1423SOL     OW 4403   1.807   0.022   1.876
 1423SOL    HW1 4404   1.719  -0.002   1.846
 1423SOL    HW2 4405   1.865  -0.013   1.808
 1424SOL     OW 4406   1.528   2.190   1.885
 1424SOL    HW1 4407   1.442   2.219   1.855
 1424SOL    HW2 4408   1.588   2.218   1.817
 1425SOL     OW 4409   1.899   3.706   2.158
 1425SOL    HW1 4410   1.989   3.706   2.190
 1425SOL    HW2 4411   1.901   3.650   2.080
 1426SOL     OW 4412   0.024   2.107   0.766
 1426SOL    HW1 4413   0.035   2.060   0.683
 1426SOL    HW2 4414   0.022   2.199   0.741
 1427SOL     OW 4415   2.294   2.505   2.160
 1427SOL    HW1 4416   2.315   2.412   2.151
 1427SOL    HW2 4417   2.204   2.512   2.129
 1428SOL     OW 4418   1.542   1.002   1.214
 1428SOL    HW1 4419   1.572   0.987   1.124
 1428SOL    HW2 4420   1.622   0.994   1.267
 1429SOL     OW 4421   3.553   0.144   0.851
 1429SOL    HW1 4422   3.596   0.095   0.920
 1429SOL    HW2 4423   3.494   0.204   0.896
 1430SOL     OW 4424   0.308   0.149   0.041
 1430SOL    HW1 4425   0.333   0.108   0.124
 1430SOL    HW2 4426   0.231   0.202   0.063
 1431SOL     OW 4427   1.744   0.425   3.518
 1431SOL    HW1 4428   1.813   0.364   3.545
 1431SOL    HW2 4429   1.672   0.408   3.578
 1432SOL     OW 4430   0.448   1.671   0.466
 1432SOL    HW1 4431   0.424   1.757   0.502
 1432SOL    HW2 4432   0.511   1.637   0.529
 1433SOL     OW 4433   2.347   1.362   2.604
 1433SOL    HW1 4434   2.421   1.374   2.545
 1433SOL    HW2 4435   2.386   1.342   2.689
 1434SOL     OW 4436   3.318   1.073   3.175
 1434SOL    HW1 4437   3.294   1.077   3.267
 1434SOL    HW2 4438   3.290   0.986   3.146
 1435SOL     OW 4439   2.933   3.670   0.845
 1435SOL    HW1 4440   2.973   3.752   0.818
 1435SOL    HW2 4441   2.969   3.605   0.784
 1436SOL     OW 4442   2.644   3.452   0.463
 1436SOL    HW1 4443   2.716   3.395   0.490
 1436SOL    HW2 4444   2.616   3.417   0.378
 1437SOL     OW 4445   0.104   1.148   3.877
 1437SOL    HW1 4446   0.023   1.171   3.922
 1437SOL    HW2 4447   0.127   1.227   3.828
 1438SOL     OW 4448   3.683   3.075   2.187
 1438SOL    HW1 4449   3.706   2.993   2.231
 1438SOL    HW2 4450   3.736   3.142   2.231
 1439SOL     OW 4451   0.218   0.785   3.286
 1439SOL    HW1 4452   0.182   0.707   3.328
 1439SOL    HW2 4453   0.236   0.845   3.359
 1440SOL     OW 4454   2.064   3.284   0.443
 1440SOL    HW1 4455   1.989   3.343   0.432
 1440SOL    HW2 4456   2.025   3.200   0.466
 1441SOL     OW 4457   2.471   1.998   2.191
 1441SOL    HW1 4458   2.465   1.914   2.238
 1441SOL    HW2 4459   2.565   2.011   2.178
 1442SOL     OW 4460   3.136   3.542   0.521
 1442SOL    HW1 4461   3.116   3.466   0.576
 1442SOL    HW2 4462   3.055   3.558   0.473
 1443SOL     OW 4463   0.033   0.287   1.973
 1443SOL    HW1 4464   0.035   0.382   1.986
 1443SOL    HW2 4465  -0.039   0.257   2.028
 1444SOL     OW 4466   0.006   2.651   0.089
 1444SOL    HW1 4467   0.004   2.744   0.113
 1444SOL    HW2 4468   0.063   2.647   0.012
 1445SOL     OW 4469   1.698   0.483   1.157
 1445SOL    HW1 4470   1.649   0.498   1.238
 1445SOL    HW2 4471   1.658   0.405   1.119
 1446SOL     OW 4472   2.815   3.861   0.020
 1446SOL    HW1 4473   2.790   3.804   0.093
 1446SOL    HW2 4474   2.910   3.871   0.029
 1447SOL     OW 4475   2.485   0.712   2.788
 1447SOL    HW1 4476   2.511   0.804   2.801
 1447SOL    HW2 4477   2.389   0.714   2.791
 1448SOL     OW 4478   0.164   0.841   1.016
 1448SOL    HW1 4479   0.167   0.764   0.959
 1448SOL    HW2 4480   0.075   0.840   1.052
 1449SOL     OW 4481   3.455   1.890   3.836
 1449SOL    HW1 4482   3.528   1.843   3.877
 1449SOL    HW2 4483   3.488   1.979   3.824
 1450SOL     OW 4484   2.904   2.729   3.095
 1450SOL    HW1 4485   2.993   2.707   3.124
 1450SOL    HW2 4486   2.892   2.820   3.122
 1451SOL     OW 4487   1.730   3.421   3.064
 1451SOL    HW1 4488   1.658   3.461   3.113
 1451SOL    HW2 4489   1.693   3.340   3.030
 1452SOL     OW 4490   0.513   2.821   2.307
 1452SOL    HW1 4491   0.485   2.895   2.252
 1452SOL    HW2 4492   0.606   2.838   2.322
 1453SOL     OW 4493   0.156   2.840   1.500
 1453SOL    HW1 4494   0.076   2.788   1.511
 1453SOL    HW2 4495   0.148   2.909   1.566
 1454SOL     OW 4496   2.286   1.772   2.716
 1454SOL    HW1 4497   2.312   1.850   2.765
 1454SOL    HW2 4498   2.298   1.797   2.624
 1455SOL     OW 4499   0.738   1.584   0.313
 1455SOL    HW1 4500   0.777   1.498   0.331
 1455SOL    HW2 4501   0.810   1.637   0.279
 1456SOL     OW 4502   2.637   1.470   2.516
 1456SOL    HW1 4503   2.600   1.512   2.438
 1456SOL    HW2 4504   2.654   1.380   2.488
 1457SOL     OW 4505   1.895   3.167   0.629
 1457SOL    HW1 4506   1.937   3.129   0.706
 1457SOL    HW2 4507   1.817   3.210   0.663
 1458SOL     OW 4508   1.687   0.698   3.640
 1458SOL    HW1 4509   1.741   0.628   3.677
 1458SOL    HW2 4510   1.741   0.777   3.650
 1459SOL     OW 4511   2.796   0.789   3.696
 1459SOL    HW1 4512   2.854   0.846   3.747
 1459SOL    HW2 4513   2.729   0.761   3.758
 1460SOL     OW 4514   3.651   1.053   3.036
 1460SOL    HW1 4515   3.735   1.065   3.080
 1460SOL    HW2 4516   3.594   1.119   3.075
 1461SOL     OW 4517   2.617   3.892   3.791
 1461SOL    HW1 4518   2.669   3.906   3.712
 1461SOL    HW2 4519   2.679   3.857   3.855
 1462SOL     OW 4520   0.073   1.691   0.704
 1462SOL    HW1 4521   0.063   1.746   0.627
 1462SOL    HW2 4522   0.107   1.608   0.670
 1463SOL     OW 4523   3.523   3.322   2.407
 1463SOL    HW1 4524   3.550   3.329   2.498
 1463SOL    HW2 4525   3.521   3.413   2.375
 1464SOL     OW 4526   1.188   0.562   3.456
 1464SOL    HW1 4527   1.188   0.469   3.479
 1464SOL    HW2 4528   1.224   0.606   3.533
 1465SOL     OW 4529   3.571   0.595   3.102
 1465SOL    HW1 4530   3.553   0.634   3.016
 1465SOL    HW2 4531   3.665   0.575   3.099
 1466SOL     OW 4532   0.378   3.639   1.303
 1466SOL    HW1 4533   0.296   3.687   1.294
 1466SOL    HW2 4534   0.352   3.547   1.312
 1467SOL     OW 4535   0.264   0.210   3.357
 1467SOL    HW1 4536   0.224   0.161   3.429
 1467SOL    HW2 4537   0.249   0.302   3.379
 1468SOL     OW 4538   0.401   2.106   3.630
 1468SOL    HW1 4539   0.429   2.193   3.600
 1468SOL    HW2 4540   0.315   2.094   3.589
 1469SOL     OW 4541   3.837   1.690   1.157
 1469SOL    HW1 4542   3.861   1.720   1.069
 1469SOL    HW2 4543   3.921   1.669   1.198
 1470SOL     OW 4544   3.049   3.078   2.894
 1470SOL    HW1 4545   3.136   3.039   2.897
 1470SOL    HW2 4546   3.004   3.029   2.825
 1471SOL     OW 4547   0.572   0.089   0.232
 1471SOL    HW1 4548   0.500   0.026   0.236
 1471SOL    HW2 4549   0.636   0.057   0.295
 1472SOL     OW 4550   3.609   2.990   1.497
 1472SOL    HW1 4551   3.519   2.998   1.465
 1472SOL    HW2 4552   3.632   2.898   1.481
 1473SOL     OW 4553   2.437   1.839   0.473
 1473SOL    HW1 4554   2.422   1.845   0.567
 1473SOL    HW2 4555   2.418   1.926   0.440
 1474SOL     OW 4556   2.467   1.847   1.653
 1474SOL    HW1 4557   2.375   1.857   1.677
 1474SOL    HW2 4558   2.465   1.825   1.560
 1475SOL     OW 4559   0.160   2.583   1.156
 1475SOL    HW1 4560   0.171   2.509   1.215
 1475SOL    HW2 4561   0.209   2.558   1.077
 1476SOL     OW 4562   0.301   0.681   0.694
 1476SOL    HW1 4563   0.280   0.609   0.634
 1476SOL    HW2 4564   0.245   0.666   0.770
 1477SOL     OW 4565   2.044   3.702   1.317
 1477SOL    HW1 4566   2.026   3.658   1.235
 1477SOL    HW2 4567   2.058   3.794   1.293
 1478SOL     OW 4568   1.000   1.736   3.196
 1478SOL    HW1 4569   0.911   1.770   3.199
 1478SOL    HW2 4570   0.989   1.643   3.177
 1479SOL     OW 4571   2.211   2.585   2.804
 1479SOL    HW1 4572   2.199   2.652   2.872
 1479SOL    HW2 4573   2.272   2.624   2.742
 1480SOL     OW 4574   0.151   0.325   0.213
 1480SOL    HW1 4575   0.158   0.311   0.307
 1480SOL    HW2 4576   0.075   0.383   0.203
 1481SOL     OW 4577   2.509   3.023   2.929
 1481SOL    HW1 4578   2.593   3.025   2.974
 1481SOL    HW2 4579   2.466   3.104   2.955
 1482SOL     OW 4580   2.764   2.745   2.555
 1482SOL    HW1 4581   2.696   2.801   2.518
 1482SOL    HW2 4582   2.822   2.725   2.482
 1483SOL     OW 4583   3.842   2.705   3.699
 1483SOL    HW1 4584   3.807   2.702   3.788
 1483SOL    HW2 4585   3.930   2.669   3.707
 1484SOL     OW 4586   3.671   1.771   0.033
 1484SOL    HW1 4587   3.700   1.685   0.004
 1484SOL    HW2 4588   3.639   1.756   0.122
 1485SOL     OW 4589   3.270   0.101   1.122
 1485SOL    HW1 4590   3.250   0.170   1.060
 1485SOL    HW2 4591   3.189   0.050   1.127
 1486SOL     OW 4592   3.845   0.620   1.483
 1486SOL    HW1 4593   3.927   0.668   1.476
 1486SOL    HW2 4594   3.870   0.534   1.518
 1487SOL     OW 4595   2.295   3.172   1.311
 1487SOL    HW1 4596   2.224   3.223   1.272
 1487SOL    HW2 4597   2.261   3.144   1.396
 1488SOL     OW 4598   3.704   2.442   1.028
 1488SOL    HW1 4599   3.797   2.464   1.027
 1488SOL    HW2 4600   3.701   2.347   1.019
 1489SOL     OW 4601   0.841   3.018   0.263
 1489SOL    HW1 4602   0.779   3.091   0.260
 1489SOL    HW2 4603   0.888   3.022   0.180
 1490SOL     OW 4604   1.132   2.609   3.719
 1490SOL    HW1 4605   1.062   2.660   3.679
 1490SOL    HW2 4606   1.193   2.592   3.647
 1491SOL     OW 4607   3.697   0.483   0.504
 1491SOL    HW1 4608   3.720   0.419   0.437
 1491SOL    HW2 4609   3.614   0.520   0.475
 1492SOL     OW 4610   3.097   1.833   2.379
 1492SOL    HW1 4611   3.055   1.894   2.319
 1492SOL    HW2 4612   3.052   1.845   2.462
 1493SOL     OW 4613   0.408   3.680   0.817
 1493SOL    HW1 4614   0.454   3.742   0.761
 1493SOL    HW2 4615   0.466   3.603   0.819
 1494SOL     OW 4616   1.756   3.031   3.020
 1494SOL    HW1 4617   1.695   3.100   2.997
 1494SOL    HW2 4618   1.725   2.954   2.973
 1495SOL     OW 4619   2.550   2.746   0.470
 1495SOL    HW1 4620   2.540   2.826   0.522
 1495SOL    HW2 4621   2.624   2.764   0.412
 1496SOL     OW 4622   0.532   2.353   3.627
 1496SOL    HW1 4623   0.609   2.337   3.572
 1496SOL    HW2 4624   0.555   2.431   3.678
 1497SOL     OW 4625   1.762   1.907   3.865
 1497SOL    HW1 4626   1.671   1.885   3.844
 1497SOL    HW2 4627   1.765   2.003   3.862
 1498SOL     OW 4628   1.646   3.961   0.095
 1498SOL    HW1 4629   1.694   3.879   0.080
 1498SOL    HW2 4630   1.660   4.012   0.015
 1499SOL     OW 4631   2.286   3.891   3.140
 1499SOL    HW1 4632   2.199   3.911   3.175
 1499SOL    HW2 4633   2.315   3.974   3.101
 1500SOL     OW 4634   0.065   3.825   2.174
 1500SOL    HW1 4635   0.111   3.872   2.105
 1500SOL    HW2 4636   0.104   3.858   2.255
 1501SOL     OW 4637   1.810   0.685   0.782
 1501SOL    HW1 4638   1.832   0.677   0.875
 1501SOL    HW2 4639   1.721   0.721   0.781
 1502SOL     OW 4640   1.336   1.232   0.929
 1502SOL    HW1 4641   1.350   1.146   0.891
 1502SOL    HW2 4642   1.369   1.293   0.863
 1503SOL     OW 4643   0.973   1.422   3.874
 1503SOL    HW1 4644   1.040   1.360   3.846
 1503SOL    HW2 4645   0.891   1.383   3.843
 1504SOL     OW 4646   2.676   1.296   0.624
 1504SOL    HW1 4647   2.679   1.260   0.713
 1504SOL    HW2 4648   2.682   1.391   0.637
 1505SOL     OW 4649   1.339   2.278   3.248
 1505SOL    HW1 4650   1.310   2.238   3.329
 1505SOL    HW2 4651   1.414   2.225   3.221
 1506SOL     OW 4652   0.299   0.062   1.692
 1506SOL    HW1 4653   0.285   0.108   1.609
 1506SOL    HW2 4654   0.264  -0.026   1.676
 1507SOL     OW 4655   3.326   3.235   1.191
 1507SOL    HW1 4656   3.237   3.242   1.157
 1507SOL    HW2 4657   3.340   3.141   1.203
 1508SOL     OW 4658   1.373   3.966   3.826
 1508SOL    HW1 4659   1.385   3.925   3.912
 1508SOL    HW2 4660   1.399   3.898   3.763
 1509SOL     OW 4661   1.358   2.862   2.306
 1509SOL    HW1 4662   1.450   2.854   2.282
 1509SOL    HW2 4663   1.310   2.842   2.226
 1510SOL     OW 4664   1.137   3.595   0.070
 1510SOL    HW1 4665   1.048   3.564   0.054
 1510SOL    HW2 4666   1.172   3.614  -0.017
 1511SOL     OW 4667   1.041   2.587   3.386
 1511SOL    HW1 4668   1.017   2.498   3.412
 1511SOL    HW2 4669   0.980   2.608   3.316
 1512SOL     OW 4670   1.816   1.423   3.155
 1512SOL    HW1 4671   1.780   1.454   3.072
 1512SOL    HW2 4672   1.890   1.482   3.173
 1513SOL     OW 4673   0.667   3.260   2.897
 1513SOL    HW1 4674   0.646   3.182   2.847
 1513SOL    HW2 4675   0.672   3.330   2.832
 1514SOL     OW 4676   2.526   2.738   1.216
 1514SOL    HW1 4677   2.526   2.723   1.311
 1514SOL    HW2 4678   2.485   2.660   1.179
 1515SOL     OW 4679   3.875   0.509   0.924
 1515SOL    HW1 4680   3.801   0.556   0.888
 1515SOL    HW2 4681   3.852   0.495   1.016
 1516SOL     OW 4682   1.012   2.850   3.858
 1516SOL    HW1 4683   0.968   2.932   3.880
 1516SOL    HW2 4684   0.948   2.801   3.806
 1517SOL     OW 4685   2.911   1.233   0.959
 1517SOL    HW1 4686   2.966   1.179   0.901
 1517SOL    HW2 4687   2.832   1.180   0.971
 1518SOL     OW 4688   0.693   1.460   2.400
 1518SOL    HW1 4689   0.660   1.370   2.400
 1518SOL    HW2 4690   0.671   1.493   2.313
 1519SOL     OW 4691   0.096   0.439   2.680
 1519SOL    HW1 4692   0.142   0.425   2.597
 1519SOL    HW2 4693   0.163   0.474   2.739
 1520SOL     OW 4694   2.008   2.945   3.210
 1520SOL    HW1 4695   2.086   2.989   3.176
 1520SOL    HW2 4696   2.042   2.865   3.251
 1521SOL     OW 4697   1.259   2.978   0.261
 1521SOL    HW1 4698   1.247   2.936   0.346
 1521SOL    HW2 4699   1.245   3.071   0.278
 1522SOL     OW 4700   1.401   3.009   2.706
 1522SOL    HW1 4701   1.404   2.967   2.620
 1522SOL    HW2 4702   1.316   3.052   2.710
 1523SOL     OW 4703   2.737   1.382   3.356
 1523SOL    HW1 4704   2.815   1.329   3.346
 1523SOL    HW2 4705   2.675   1.325   3.403
 1524SOL     OW 4706   1.043  -0.025   2.092
 1524SOL    HW1 4707   1.102  -0.006   2.165
 1524SOL    HW2 4708   1.030   0.059   2.049
 1525SOL     OW 4709   2.663   1.298   1.984
 1525SOL    HW1 4710   2.702   1.211   1.980
 1525SOL    HW2 4711   2.738   1.358   1.982
 1526SOL     OW 4712   2.802   3.254   3.567
 1526SOL    HW1 4713   2.732   3.240   3.504
 1526SOL    HW2 4714   2.856   3.175   3.563
 1527SOL     OW 4715   3.319   1.354   3.135
 1527SOL    HW1 4716   3.304   1.370   3.042
 1527SOL    HW2 4717   3.332   1.259   3.142
 1528SOL     OW 4718   1.738   2.531   1.074
 1528SOL    HW1 4719   1.719   2.595   1.142
 1528SOL    HW2 4720   1.670   2.464   1.083
 1529SOL     OW 4721   1.457   0.791   3.061
 1529SOL    HW1 4722   1.543   0.754   3.080
 1529SOL    HW2 4723   1.395   0.725   3.093
 1530SOL     OW 4724   2.430   1.811   0.742
 1530SOL    HW1 4725   2.381   1.729   0.752
 1530SOL    HW2 4726   2.403   1.863   0.818
 1531SOL     OW 4727   0.471   1.854   0.909
 1531SOL    HW1 4728   0.445   1.804   0.986
 1531SOL    HW2 4729   0.447   1.944   0.930
 1532SOL     OW 4730   0.206   3.476   3.820
 1532SOL    HW1 4731   0.217   3.480   3.726
 1532SOL    HW2 4732   0.290   3.504   3.856
 1533SOL     OW 4733   0.378   2.274   1.358
 1533SOL    HW1 4734   0.406   2.183   1.358
 1533SOL    HW2 4735   0.457   2.323   1.336
 1534SOL     OW 4736   0.837   3.885   3.586
 1534SOL    HW1 4737   0.742   3.883   3.595
 1534SOL    HW2 4738   0.856   3.972   3.551
 1535SOL     OW 4739   1.703   0.720   1.477
 1535SOL    HW1 4740   1.633   0.693   1.418
 1535SOL    HW2 4741   1.778   0.667   1.451
 1536SOL     OW 4742   2.032   0.718   1.655
 1536SOL    HW1 4743   2.066   0.635   1.687
 1536SOL    HW2 4744   1.971   0.747   1.723
 1537SOL     OW 4745   0.954   0.721   1.491
 1537SOL    HW1 4746   0.967   0.797   1.549
 1537SOL    HW2 4747   0.978   0.753   1.404
 1538SOL     OW 4748   1.907   1.645   0.632
 1538SOL    HW1 4749   1.871   1.556   0.630
 1538SOL    HW2 4750   1.963   1.649   0.554
 1539SOL     OW 4751   2.450   1.731   3.798
 1539SOL    HW1 4752   2.493   1.791   3.859
 1539SOL    HW2 4753   2.357   1.751   3.807
 1540SOL     OW 4754   2.447   3.627   2.811
 1540SOL    HW1 4755   2.534   3.657   2.783
 1540SOL    HW2 4756   2.452   3.627   2.907
 1541SOL     OW 4757   1.298   0.538   0.113
 1541SOL    HW1 4758   1.377   0.504   0.072
 1541SOL    HW2 4759   1.270   0.611   0.057
 1542SOL     OW 4760   1.576   1.404   1.120
 1542SOL    HW1 4761   1.634   1.336   1.087
 1542SOL    HW2 4762   1.545   1.449   1.041
 1543SOL     OW 4763   0.176   0.580   0.940
 1543SOL    HW1 4764   0.207   0.494   0.970
 1543SOL    HW2 4765   0.083   0.565   0.919
 1544SOL     OW 4766   3.174   0.832   1.585
 1544SOL    HW1 4767   3.263   0.827   1.550
 1544SOL    HW2 4768   3.174   0.773   1.660
 1545SOL     OW 4769   0.655   2.137   2.355
 1545SOL    HW1 4770   0.624   2.222   2.383
 1545SOL    HW2 4771   0.640   2.136   2.260
 1546SOL     OW 4772   2.896   0.879   0.829
 1546SOL    HW1 4773   2.813   0.896   0.784
 1546SOL    HW2 4774   2.893   0.786   0.852
 1547SOL     OW 4775   0.208   1.505   0.527
 1547SOL    HW1 4776   0.289   1.555   0.514
 1547SOL    HW2 4777   0.144   1.547   0.469
 1548SOL     OW 4778   0.512   3.619   2.955
 1548SOL    HW1 4779   0.569   3.595   3.029
 1548SOL    HW2 4780   0.565   3.603   2.877
 1549SOL     OW 4781   0.940   3.497   3.406
 1549SOL    HW1 4782   0.955   3.591   3.395
 1549SOL    HW2 4783   0.854   3.491   3.448
 1550SOL     OW 4784   3.498   0.446   0.950
 1550SOL    HW1 4785   3.534   0.438   1.039
 1550SOL    HW2 4786   3.565   0.493   0.901
 1551SOL     OW 4787   2.085   2.469  -0.020
 1551SOL    HW1 4788   2.090   2.535   0.048
 1551SOL    HW2 4789   2.013   2.412   0.006
 1552SOL     OW 4790   2.560   1.242   3.504
 1552SOL    HW1 4791   2.518   1.316   3.546
 1552SOL    HW2 4792   2.591   1.187   3.576
 1553SOL     OW 4793   1.941   1.137   0.328
 1553SOL    HW1 4794   1.916   1.070   0.264
 1553SOL    HW2 4795   1.911   1.219   0.289
 1554SOL     OW 4796   0.715   0.865   3.178
 1554SOL    HW1 4797   0.651   0.857   3.107
 1554SOL    HW2 4798   0.662   0.866   3.258
 1555SOL     OW 4799   1.050   2.102   2.064
 1555SOL    HW1 4800   1.055   2.007   2.060
 1555SOL    HW2 4801   1.099   2.132   1.988
 1556SOL     OW 4802   0.161   3.081   3.439
 1556SOL    HW1 4803   0.103   3.010   3.465
 1556SOL    HW2 4804   0.186   3.123   3.521
 1557SOL     OW 4805   1.340   1.000   2.037
 1557SOL    HW1 4806   1.414   1.059   2.021
 1557SOL    HW2 4807   1.378   0.912   2.033
 1558SOL     OW 4808   1.858   1.985   1.346
 1558SOL    HW1 4809   1.910   1.906   1.358
 1558SOL    HW2 4810   1.864   2.004   1.252
 1559SOL     OW 4811   1.802   0.937   2.257
 1559SOL    HW1 4812   1.845   0.889   2.186
 1559SOL    HW2 4813   1.808   0.878   2.333
 1560SOL     OW 4814   1.348   2.035   1.340
 1560SOL    HW1 4815   1.273   1.981   1.313
 1560SOL    HW2 4816   1.411   2.026   1.269
 1561SOL     OW 4817   2.698   3.775   3.059
 1561SOL    HW1 4818   2.642   3.698   3.062
 1561SOL    HW2 4819   2.690   3.807   2.969
 1562SOL     OW 4820   3.609   0.186   2.746
 1562SOL    HW1 4821   3.592   0.135   2.667
 1562SOL    HW2 4822   3.528   0.234   2.762
 1563SOL     OW 4823   3.498   2.467   2.274
 1563SOL    HW1 4824   3.427   2.530   2.283
 1563SOL    HW2 4825   3.560   2.510   2.215
 1564SOL     OW 4826   3.243   1.594   2.353
 1564SOL    HW1 4827   3.193   1.676   2.354
 1564SOL    HW2 4828   3.177   1.527   2.334
 1565SOL     OW 4829   3.184   2.386   0.439
 1565SOL    HW1 4830   3.255   2.449   0.430
 1565SOL    HW2 4831   3.217   2.306   0.398
 1566SOL     OW 4832   2.942   2.046   1.788
 1566SOL    HW1 4833   2.980   1.963   1.760
 1566SOL    HW2 4834   2.883   2.021   1.859
 1567SOL     OW 4835   1.399   1.867   0.408
 1567SOL    HW1 4836   1.441   1.810   0.473
 1567SOL    HW2 4837   1.459   1.866   0.334
 1568SOL     OW 4838   0.642   3.929   1.603
 1568SOL    HW1 4839   0.656   3.839   1.573
 1568SOL    HW2 4840   0.561   3.956   1.559
 1569SOL     OW 4841   2.264   0.669   3.212
 1569SOL    HW1 4842   2.342   0.693   3.161
 1569SOL    HW2 4843   2.199   0.735   3.188
 1570SOL     OW 4844   0.429   1.106   3.260
 1570SOL    HW1 4845   0.367   1.062   3.317
 1570SOL    HW2 4846   0.438   1.049   3.184
 1571SOL     OW 4847   2.711   0.354   2.778
 1571SOL    HW1 4848   2.746   0.428   2.730
 1571SOL    HW2 4849   2.743   0.366   2.867
 1572SOL     OW 4850   2.397   3.720   0.756
 1572SOL    HW1 4851   2.464   3.655   0.782
 1572SOL    HW2 4852   2.327   3.707   0.820
 1573SOL     OW 4853   1.227   0.545   0.792
 1573SOL    HW1 4854   1.203   0.467   0.842
 1573SOL    HW2 4855   1.313   0.524   0.755
 1574SOL     OW 4856   1.423   3.494   1.577
 1574SOL    HW1 4857   1.360   3.567   1.572
 1574SOL    HW2 4858   1.464   3.492   1.491
 1575SOL     OW 4859   2.536   2.520   3.426
 1575SOL    HW1 4860   2.460   2.481   3.469
 1575SOL    HW2 4861   2.503   2.600   3.387
 1576SOL     OW 4862   3.051   3.893   0.742
 1576SOL    HW1 4863   3.140   3.903   0.707
 1576SOL    HW2 4864   3.026   3.982   0.768
 1577SOL     OW 4865   0.812   0.232   2.721
 1577SOL    HW1 4866   0.885   0.275   2.678
 1577SOL    HW2 4867   0.743   0.298   2.724
 1578SOL     OW 4868   2.684   1.553   3.782
 1578SOL    HW1 4869   2.704   1.568   3.874
 1578SOL    HW2 4870   2.589   1.568   3.776
 1579SOL     OW 4871   0.776   3.760   2.371
 1579SOL    HW1 4872   0.801   3.708   2.295
 1579SOL    HW2 4873   0.763   3.849   2.336
 1580SOL     OW 4874   1.331   2.433   1.229
 1580SOL    HW1 4875   1.405   2.373   1.223
 1580SOL    HW2 4876   1.336   2.486   1.149
 1581SOL     OW 4877   2.084   3.379   0.965
 1581SOL    HW1 4878   2.171   3.393   1.003
 1581SOL    HW2 4879   2.026   3.433   1.019
 1582SOL     OW 4880   3.172   0.115   3.905
 1582SOL    HW1 4881   3.084   0.145   3.886
 1582SOL    HW2 4882   3.224   0.143   3.830
 1583SOL     OW 4883   2.486   1.769   2.337
 1583SOL    HW1 4884   2.460   1.677   2.347
 1583SOL    HW2 4885   2.581   1.768   2.347
 1584SOL     OW 4886   3.373   0.680   3.668
 1584SOL    HW1 4887   3.406   0.697   3.580
 1584SOL    HW2 4888   3.286   0.719   3.669
 1585SOL     OW 4889   3.181   2.523   0.925
 1585SOL    HW1 4890   3.219   2.542   0.840
 1585SOL    HW2 4891   3.256   2.508   0.983
 1586SOL     OW 4892   2.687   3.927   0.945
 1586SOL    HW1 4893   2.606   3.973   0.925
 1586SOL    HW2 4894   2.717   3.893   0.861
 1587SOL     OW 4895   0.563   3.364   1.993
 1587SOL    HW1 4896   0.531   3.330   1.909
 1587SOL    HW2 4897   0.514   3.446   2.006
 1588SOL     OW 4898   0.984   2.057   1.679
 1588SOL    HW1 4899   0.950   2.087   1.594
 1588SOL    HW2 4900   0.970   1.963   1.679
 1589SOL     OW 4901   0.902   1.559   2.451
 1589SOL    HW1 4902   0.889   1.633   2.510
 1589SOL    HW2 4903   0.814   1.527   2.433
 1590SOL     OW 4904   3.112   0.763   3.657
 1590SOL    HW1 4905   3.089   0.813   3.579
 1590SOL    HW2 4906   3.074   0.814   3.729
 1591SOL     OW 4907   2.895   3.479   3.769
 1591SOL    HW1 4908   2.860   3.415   3.707
 1591SOL    HW2 4909   2.937   3.545   3.714
 1592SOL     OW 4910   2.753   1.405   0.143
 1592SOL    HW1 4911   2.685   1.458   0.183
 1592SOL    HW2 4912   2.754   1.324   0.194
 1593SOL     OW 4913   3.891   3.334   3.751
 1593SOL    HW1 4914   3.902   3.378   3.667
 1593SOL    HW2 4915   3.941   3.388   3.813
 1594SOL     OW 4916   0.144   2.776   2.297
 1594SOL    HW1 4917   0.096   2.753   2.217
 1594SOL    HW2 4918   0.202   2.702   2.312
 1595SOL     OW 4919   1.169   0.109   2.310
 1595SOL    HW1 4920   1.168   0.039   2.375
 1595SOL    HW2 4921   1.254   0.100   2.266
 1596SOL     OW 4922   2.884   3.689   2.048
 1596SOL    HW1 4923   2.887   3.595   2.066
 1596SOL    HW2 4924   2.947   3.702   1.977
 1597SOL     OW 4925   2.551   0.422   0.565
 1597SOL    HW1 4926   2.468   0.469   0.564
 1597SOL    HW2 4927   2.528   0.331   0.550
 1598SOL     OW 4928   0.897   2.151   0.043
 1598SOL    HW1 4929   0.938   2.234   0.020
 1598SOL    HW2 4930   0.852   2.123  -0.037
 1599SOL     OW 4931   2.322   2.002   2.911
 1599SOL    HW1 4932   2.355   2.092   2.916
 1599SOL    HW2 4933   2.290   1.984   3.000
 1600SOL     OW 4934   2.515   0.986   2.808
 1600SOL    HW1 4935   2.505   0.994   2.713
 1600SOL    HW2 4936   2.427   1.001   2.843
 1601SOL     OW 4937   2.056   3.714   3.695
 1601SOL    HW1 4938   1.962   3.704   3.710
 1601SOL    HW2 4939   2.095   3.704   3.782
 1602SOL     OW 4940   1.088   0.073   0.668
 1602SOL    HW1 4941   1.085   0.013   0.593
 1602SOL    HW2 4942   1.044   0.152   0.636
 1603SOL     OW 4943   0.633   0.255   3.745
 1603SOL    HW1 4944   0.696   0.218   3.682
 1603SOL    HW2 4945   0.548   0.226   3.712
 1604SOL     OW 4946   3.798   2.875   2.536
 1604SOL    HW1 4947   3.799   2.966   2.565
 1604SOL    HW2 4948   3.888   2.844   2.551
 1605SOL     OW 4949   1.861   0.976   2.932
 1605SOL    HW1 4950   1.832   1.031   2.859
 1605SOL    HW2 4951   1.836   1.025   3.010
 1606SOL     OW 4952   2.259   0.622   3.493
 1606SOL    HW1 4953   2.324   0.598   3.426
 1606SOL    HW2 4954   2.182   0.650   3.442
 1607SOL     OW 4955   1.587   1.480   1.984
 1607SOL    HW1 4956   1.667   1.500   2.032
 1607SOL    HW2 4957   1.517   1.513   2.040
 1608SOL     OW 4958   3.566   3.297   2.673
 1608SOL    HW1 4959   3.592   3.373   2.725
 1608SOL    HW2 4960   3.512   3.245   2.733
 1609SOL     OW 4961   3.261   3.524   3.710
 1609SOL    HW1 4962   3.210   3.459   3.662
 1609SOL    HW2 4963   3.221   3.608   3.688
 1610SOL     OW 4964   2.581   3.604   2.491
 1610SOL    HW1 4965   2.567   3.515   2.458
 1610SOL    HW2 4966   2.673   3.606   2.518
 1611SOL     OW 4967   2.823   1.139   0.253
 1611SOL    HW1 4968   2.829   1.156   0.347
 1611SOL    HW2 4969   2.775   1.056   0.247
 1612SOL     OW 4970   0.006   1.446   1.914
 1612SOL    HW1 4971  -0.030   1.466   2.000
 1612SOL    HW2 4972   0.078   1.508   1.903
 1613SOL     OW 4973   1.378   1.206   2.489
 1613SOL    HW1 4974   1.411   1.118   2.508
 1613SOL    HW2 4975   1.346   1.201   2.399
 1614SOL     OW 4976   1.685   2.407   3.762
 1614SOL    HW1 4977   1.762   2.457   3.786
 1614SOL    HW2 4978   1.676   2.420   3.668
 1615SOL     OW 4979   0.264   1.467   1.464
 1615SOL    HW1 4980   0.288   1.427   1.380
 1615SOL    HW2 4981   0.185   1.517   1.444
 1616SOL     OW 4982   1.067   1.076   3.085
 1616SOL    HW1 4983   1.158   1.098   3.106
 1616SOL    HW2 4984   1.035   1.032   3.164
 1617SOL     OW 4985   3.236   2.446   3.046
 1617SOL    HW1 4986   3.152   2.401   3.047
 1617SOL    HW2 4987   3.265   2.441   2.954
 1618SOL     OW 4988   2.893   2.968   3.201
 1618SOL    HW1 4989   2.928   3.046   3.157
 1618SOL    HW2 4990   2.954   2.953   3.273
 1619SOL     OW 4991   0.429   0.229   2.734
 1619SOL    HW1 4992   0.341   0.266   2.726
 1619SOL    HW2 4993   0.466   0.273   2.811
 1620SOL     OW 4994   2.461   2.403   0.516
 1620SOL    HW1 4995   2.538   2.399   0.459
 1620SOL    HW2 4996   2.476   2.478   0.573
 1621SOL     OW 4997   0.753   3.104   3.431
 1621SOL    HW1 4998   0.727   3.043   3.361
 1621SOL    HW2 4999   0.848   3.108   3.424
 1622SOL     OW 5000   2.725   3.826   2.790
 1622SOL    HW1 5001   2.744   3.917   2.768
 1622SOL    HW2 5002   2.809   3.781   2.781
 1623SOL     OW 5003   2.285   1.931   0.920
 1623SOL    HW1 5004   2.289   1.968   1.008
 1623SOL    HW2 5005   2.257   2.004   0.865
 1624SOL     OW 5006   1.118   3.588   0.444
 1624SOL    HW1 5007   1.070   3.508   0.422
 1624SOL    HW2 5008   1.206   3.558   0.466
 1625SOL     OW 5009   1.904   0.717   0.540
 1625SOL    HW1 5010   1.852   0.730   0.619
 1625SOL    HW2 5011   1.926   0.624   0.540
 1626SOL     OW 5012   2.768   2.757   0.291
 1626SOL    HW1 5013   2.800   2.678   0.335
 1626SOL    HW2 5014   2.839   2.820   0.300
 1627SOL     OW 5015   0.574   3.262   0.992
 1627SOL    HW1 5016   0.589   3.272   0.898
 1627SOL    HW2 5017   0.629   3.328   1.033
 1628SOL     OW 5018   0.674   3.233   0.254
 1628SOL    HW1 5019   0.644   3.324   0.255
 1628SOL    HW2 5020   0.594   3.182   0.264
 1629SOL     OW 5021   3.508   3.096   2.926
 1629SOL    HW1 5022   3.549   3.177   2.955
 1629SOL    HW2 5023   3.580   3.044   2.891
 1630SOL     OW 5024   1.429   3.307   2.265
 1630SOL    HW1 5025   1.505   3.251   2.279
 1630SOL    HW2 5026   1.462   3.396   2.276
 1631SOL     OW 5027   2.098   3.663   0.011
 1631SOL    HW1 5028   2.040   3.587   0.015
 1631SOL    HW2 5029   2.183   3.629   0.038
 1632SOL     OW 5030   2.094   2.265   1.903
 1632SOL    HW1 5031   2.148   2.198   1.945
 1632SOL    HW2 5032   2.080   2.331   1.972
 1633SOL     OW 5033   0.345   3.981   0.723
 1633SOL    HW1 5034   0.394   3.901   0.702
 1633SOL    HW2 5035   0.254   3.951   0.732
 1634SOL     OW 5036   2.328   0.073   1.835
 1634SOL    HW1 5037   2.305   0.020   1.759
 1634SOL    HW2 5038   2.244   0.093   1.877
 1635SOL     OW 5039   0.564   0.816   2.438
 1635SOL    HW1 5040   0.502   0.882   2.471
 1635SOL    HW2 5041   0.579   0.758   2.512
 1636SOL     OW 5042   2.274   2.726   0.776
 1636SOL    HW1 5043   2.243   2.788   0.842
 1636SOL    HW2 5044   2.209   2.656   0.776
 1637SOL     OW 5045   1.068   1.349   2.487
 1637SOL    HW1 5046   1.151   1.371   2.529
 1637SOL    HW2 5047   1.018   1.431   2.490
 1638SOL     OW 5048   3.638   2.707   1.460
 1638SOL    HW1 5049   3.584   2.678   1.534
 1638SOL    HW2 5050   3.618   2.645   1.390
 1639SOL     OW 5051   2.115   1.743   3.644
 1639SOL    HW1 5052   2.128   1.802   3.718
 1639SOL    HW2 5053   2.107   1.656   3.684
 1640SOL     OW 5054   0.696   0.813   2.800
 1640SOL    HW1 5055   0.677   0.727   2.765
 1640SOL    HW2 5056   0.735   0.861   2.727
 1641SOL     OW 5057   1.493   2.966   0.120
 1641SOL    HW1 5058   1.441   2.965   0.200
 1641SOL    HW2 5059   1.435   2.926   0.054
 1642SOL     OW 5060   2.085   2.462   1.095
 1642SOL    HW1 5061   1.990   2.466   1.101
 1642SOL    HW2 5062   2.104   2.457   1.001
 1643SOL     OW 5063   1.580   1.137   1.920
 1643SOL    HW1 5064   1.539   1.146   1.834
 1643SOL    HW2 5065   1.572   1.224   1.960
 1644SOL     OW 5066   1.678   0.113   3.119
 1644SOL    HW1 5067   1.728   0.161   3.185
 1644SOL    HW2 5068   1.707   0.023   3.127
 1645SOL     OW 5069   3.708   0.659   3.642
 1645SOL    HW1 5070   3.677   0.672   3.552
 1645SOL    HW2 5071   3.647   0.596   3.680
 1646SOL     OW 5072   1.449   3.903   1.897
 1646SOL    HW1 5073   1.511   3.832   1.913
 1646SOL    HW2 5074   1.363   3.864   1.916
 1647SOL     OW 5075   0.773   0.872   1.209
 1647SOL    HW1 5076   0.678   0.883   1.207
 1647SOL    HW2 5077   0.797   0.884   1.301
 1648SOL     OW 5078   3.772   1.352   1.423
 1648SOL    HW1 5079   3.816   1.395   1.496
 1648SOL    HW2 5080   3.743   1.423   1.367
 1649SOL     OW 5081   0.058   3.937   0.443
 1649SOL    HW1 5082  -0.028   3.941   0.399
 1649SOL    HW2 5083   0.091   3.850   0.421
 1650SOL     OW 5084   2.096   1.187   1.111
 1650SOL    HW1 5085   2.088   1.142   1.027
 1650SOL    HW2 5086   2.071   1.277   1.092
 1651SOL     OW 5087   0.074   3.262   0.394
 1651SOL    HW1 5088   0.118   3.333   0.347
 1651SOL    HW2 5089   0.105   3.270   0.484
 1652SOL     OW 5090   1.798   2.213   1.025
 1652SOL    HW1 5091   1.808   2.118   1.031
 1652SOL    HW2 5092   1.846   2.237   0.946
 1653SOL     OW 5093   3.621   0.465   1.223
 1653SOL    HW1 5094   3.692   0.519   1.189
 1653SOL    HW2 5095   3.647   0.444   1.312
 1654SOL     OW 5096   2.044   2.471   2.069
 1654SOL    HW1 5097   1.978   2.494   2.134
 1654SOL    HW2 5098   2.023   2.525   1.993
 1655SOL     OW 5099   1.080   3.814   2.404
 1655SOL    HW1 5100   0.987   3.811   2.384
 1655SOL    HW2 5101   1.116   3.736   2.363
 1656SOL     OW 5102   1.010   2.355   3.523
 1656SOL    HW1 5103   1.062   2.282   3.556
 1656SOL    HW2 5104   0.920   2.323   3.522
 1657SOL     OW 5105   3.623   1.005   1.129
 1657SOL    HW1 5106   3.608   1.089   1.086
 1657SOL    HW2 5107   3.683   1.026   1.201
 1658SOL     OW 5108   3.346   0.447   1.814
 1658SOL    HW1 5109   3.318   0.410   1.730
 1658SOL    HW2 5110   3.266   0.450   1.866
 1659SOL     OW 5111   3.684   0.852   0.625
 1659SOL    HW1 5112   3.751   0.921   0.626
 1659SOL    HW2 5113   3.601   0.900   0.625
 1660SOL     OW 5114   0.325   3.396   3.031
 1660SOL    HW1 5115   0.358   3.470   2.981
 1660SOL    HW2 5116   0.230   3.407   3.030
 1661SOL     OW 5117   0.286   0.944   3.498
 1661SOL    HW1 5118   0.193   0.961   3.513
 1661SOL    HW2 5119   0.330   1.022   3.530
 1662SOL     OW 5120   3.379   2.568   3.665
 1662SOL    HW1 5121   3.463   2.604   3.636
 1662SOL    HW2 5122   3.352   2.509   3.595
 1663SOL     OW 5123   3.765   2.560   2.207
 1663SOL    HW1 5124   3.820   2.516   2.271
 1663SOL    HW2 5125   3.816   2.636   2.180
 1664SOL     OW 5126   2.474   0.588   1.319
 1664SOL    HW1 5127   2.488   0.496   1.341
 1664SOL    HW2 5128   2.563   0.623   1.309
 1665SOL     OW 5129   0.675   2.793   0.789
 1665SOL    HW1 5130   0.741   2.763   0.852
 1665SOL    HW2 5131   0.634   2.869   0.831
 1666SOL     OW 5132   0.894   0.702   3.052
 1666SOL    HW1 5133   0.833   0.765   3.090
 1666SOL    HW2 5134   0.891   0.627   3.111
 1667SOL     OW 5135   2.418   3.159   3.805
 1667SOL    HW1 5136   2.365   3.238   3.801
 1667SOL    HW2 5137   2.473   3.171   3.883
 1668SOL     OW 5138   2.819   0.634   3.457
 1668SOL    HW1 5139   2.823   0.684   3.538
 1668SOL    HW2 5140   2.909   0.602   3.444
 1669SOL     OW 5141   2.571   2.081   0.786
 1669SOL    HW1 5142   2.546   1.991   0.763
 1669SOL    HW2 5143   2.656   2.073   0.829
 1670SOL     OW 5144   0.454   1.635   2.582
 1670SOL    HW1 5145   0.511   1.711   2.570
 1670SOL    HW2 5146   0.384   1.647   2.517
 1671SOL     OW 5147   2.458   2.026   2.499
 1671SOL    HW1 5148   2.530   2.078   2.535
 1671SOL    HW2 5149   2.492   1.937   2.494
 1672SOL     OW 5150   2.258   1.898   2.036
 1672SOL    HW1 5151   2.334   1.954   2.047
 1672SOL    HW2 5152   2.204   1.914   2.114
 1673SOL     OW 5153   0.638   2.095   0.615
 1673SOL    HW1 5154   0.704   2.064   0.552
 1673SOL    HW2 5155   0.558   2.102   0.564
 1674SOL     OW 5156   0.761   2.149   2.621
 1674SOL    HW1 5157   0.820   2.224   2.622
 1674SOL    HW2 5158   0.729   2.145   2.530
 1675SOL     OW 5159   3.882   1.499   2.184
 1675SOL    HW1 5160   3.855   1.538   2.267
 1675SOL    HW2 5161   3.812   1.437   2.163
 1676SOL     OW 5162   1.804   3.411   0.350
 1676SOL    HW1 5163   1.751   3.349   0.299
 1676SOL    HW2 5164   1.741   3.456   0.406
 1677SOL     OW 5165   3.659   3.076   0.343
 1677SOL    HW1 5166   3.616   2.999   0.381
 1677SOL    HW2 5167   3.699   3.120   0.417
 1678SOL     OW 5168   1.872   2.957   3.836
 1678SOL    HW1 5169   1.860   3.030   3.776
 1678SOL    HW2 5170   1.810   2.891   3.805
 1679SOL     OW 5171   2.999   3.611   0.285
 1679SOL    HW1 5172   3.074   3.671   0.288
 1679SOL    HW2 5173   3.008   3.565   0.201
 1680SOL     OW 5174   2.597   3.306   3.008
 1680SOL    HW1 5175   2.633   3.227   3.051
 1680SOL    HW2 5176   2.637   3.379   3.055
 1681SOL     OW 5177   3.244   1.801   3.974
 1681SOL    HW1 5178   3.225   1.756   3.892
 1681SOL    HW2 5179   3.328   1.845   3.959
 1682SOL     OW 5180   2.309   2.371   3.561
 1682SOL    HW1 5181   2.319   2.399   3.652
 1682SOL    HW2 5182   2.341   2.280   3.561
 1683SOL     OW 5183   1.183   0.220   2.726
 1683SOL    HW1 5184   1.242   0.151   2.695
 1683SOL    HW2 5185   1.186   0.287   2.657
 1684SOL     OW 5186   3.353   0.221   3.430
 1684SOL    HW1 5187   3.390   0.235   3.343
 1684SOL    HW2 5188   3.367   0.128   3.448
 1685SOL     OW 5189   0.301   3.387   2.294
 1685SOL    HW1 5190   0.286   3.414   2.385
 1685SOL    HW2 5191   0.344   3.302   2.301
 1686SOL     OW 5192   2.845   1.411   2.856
 1686SOL    HW1 5193   2.806   1.326   2.838
 1686SOL    HW2 5194   2.821   1.429   2.947
 1687SOL     OW 5195   1.113   1.751   0.229
 1687SOL    HW1 5196   1.066   1.669   0.211
 1687SOL    HW2 5197   1.122   1.753   0.324
 1688SOL     OW 5198   2.894   3.915   1.364
 1688SOL    HW1 5199   2.809   3.872   1.362
 1688SOL    HW2 5200   2.897   3.959   1.449
 1689SOL     OW 5201   0.157   3.049   2.233
 1689SOL    HW1 5202   0.190   3.088   2.314
 1689SOL    HW2 5203   0.138   2.958   2.257
 1690SOL     OW 5204   3.009   1.239   2.185
 1690SOL    HW1 5205   2.992   1.293   2.108
 1690SOL    HW2 5206   2.935   1.179   2.189
 1691SOL     OW 5207   3.706   3.491   1.449
 1691SOL    HW1 5208   3.641   3.472   1.381
 1691SOL    HW2 5209   3.759   3.412   1.455
 1692SOL     OW 5210   1.861   3.336   1.728
 1692SOL    HW1 5211   1.873   3.324   1.634
 1692SOL    HW2 5212   1.766   3.339   1.739
 1693SOL     OW 5213   1.209   2.161   2.664
 1693SOL    HW1 5214   1.126   2.122   2.691
 1693SOL    HW2 5215   1.223   2.128   2.575
 1694SOL     OW 5216   2.564   2.072   1.182
 1694SOL    HW1 5217   2.611   2.001   1.138
 1694SOL    HW2 5218   2.628   2.142   1.192
 1695SOL     OW 5219   1.290   0.283   1.964
 1695SOL    HW1 5220   1.358   0.321   1.908
 1695SOL    HW2 5221   1.214   0.340   1.953
 1696SOL     OW 5222   0.999   0.133   1.786
 1696SOL    HW1 5223   0.935   0.157   1.853
 1696SOL    HW2 5224   1.028   0.216   1.750
 1697SOL     OW 5225   0.428   0.091   3.196
 1697SOL    HW1 5226   0.483   0.034   3.249
 1697SOL    HW2 5227   0.373   0.137   3.259
 1698SOL     OW 5228   0.050   2.047   0.274
 1698SOL    HW1 5229   0.113   2.028   0.205
 1698SOL    HW2 5230   0.007   2.128   0.247
 1699SOL     OW 5231   1.257   1.913   3.122
 1699SOL    HW1 5232   1.170   1.874   3.129
 1699SOL    HW2 5233   1.303   1.882   3.200
 1700SOL     OW 5234   0.188   2.850   1.061
 1700SOL    HW1 5235   0.199   2.922   1.123
 1700SOL    HW2 5236   0.188   2.771   1.115
 1701SOL     OW 5237   1.113   3.866   3.181
 1701SOL    HW1 5238   1.123   3.900   3.092
 1701SOL    HW2 5239   1.098   3.944   3.234
 1702SOL     OW 5240   3.032   2.895   1.384
 1702SOL    HW1 5241   3.060   2.827   1.322
 1702SOL    HW2 5242   2.985   2.958   1.330
 1703SOL     OW 5243   0.765   0.439   2.401
 1703SOL    HW1 5244   0.823   0.366   2.423
 1703SOL    HW2 5245   0.686   0.397   2.367
 1704SOL     OW 5246   3.112   3.731   1.821
 1704SOL    HW1 5247   3.198   3.702   1.851
 1704SOL    HW2 5248   3.115   3.826   1.828
 1705SOL     OW 5249   3.258   0.959   2.186
 1705SOL    HW1 5250   3.283   1.051   2.186
 1705SOL    HW2 5251   3.326   0.916   2.239
 1706SOL     OW 5252   2.104   0.791   0.386
 1706SOL    HW1 5253   2.027   0.786   0.442
 1706SOL    HW2 5254   2.093   0.720   0.322
 1707SOL     OW 5255   1.135   2.175   3.780
 1707SOL    HW1 5256   1.097   2.254   3.819
 1707SOL    HW2 5257   1.229   2.191   3.779
 1708SOL     OW 5258   0.181   3.444   0.201
 1708SOL    HW1 5259   0.153   3.522   0.153
 1708SOL    HW2 5260   0.193   3.377   0.134
 1709SOL     OW 5261   2.178   0.911   1.823
 1709SOL    HW1 5262   2.168   0.845   1.755
 1709SOL    HW2 5263   2.127   0.986   1.793
 1710SOL     OW 5264   0.456   3.576   3.904
 1710SOL    HW1 5265   0.544   3.599   3.932
 1710SOL    HW2 5266   0.413   3.660   3.889
 1711SOL     OW 5267   3.524   0.754   0.113
 1711SOL    HW1 5268   3.578   0.779   0.188
 1711SOL    HW2 5269   3.446   0.809   0.121
 1712SOL     OW 5270   3.071   3.129   2.081
 1712SOL    HW1 5271   3.014   3.101   2.154
 1712SOL    HW2 5272   3.155   3.147   2.123
 1713SOL     OW 5273   1.253   0.006   1.677
 1713SOL    HW1 5274   1.344  -0.009   1.700
 1713SOL    HW2 5275   1.225   0.077   1.734
 1714SOL     OW 5276   2.708   0.229   1.822
 1714SOL    HW1 5277   2.798   0.259   1.811
 1714SOL    HW2 5278   2.710   0.174   1.900
 1715SOL     OW 5279   2.819   0.260   0.572
 1715SOL    HW1 5280   2.782   0.207   0.501
 1715SOL    HW2 5281   2.766   0.340   0.572
 1716SOL     OW 5282   0.129   2.301   1.235
 1716SOL    HW1 5283   0.099   2.213   1.213
 1716SOL    HW2 5284   0.214   2.288   1.276
 1717SOL     OW 5285   0.848   1.237   3.073
 1717SOL    HW1 5286   0.914   1.170   3.090
 1717SOL    HW2 5287   0.841   1.241   2.978
 1718SOL     OW 5288   1.110   3.537   1.990
 1718SOL    HW1 5289   1.089   3.556   2.081
 1718SOL    HW2 5290   1.153   3.616   1.957
 1719SOL     OW 5291   3.223   1.129   0.003
 1719SOL    HW1 5292   3.232   1.222   0.025
 1719SOL    HW2 5293   3.129   1.117  -0.011
 1720SOL     OW 5294   3.174   0.853   3.133
 1720SOL    HW1 5295   3.098   0.813   3.091
 1720SOL    HW2 5296   3.245   0.789   3.122
 1721SOL     OW 5297   1.754   1.868   2.033
 1721SOL    HW1 5298   1.789   1.863   1.944
 1721SOL    HW2 5299   1.800   1.942   2.073
 1722SOL     OW 5300   0.045   1.641   1.439
 1722SOL    HW1 5301   0.034   1.707   1.508
 1722SOL    HW2 5302   0.054   1.692   1.358
 1723SOL     OW 5303   1.905   0.294   0.310
 1723SOL    HW1 5304   1.876   0.229   0.373
 1723SOL    HW2 5305   1.884   0.255   0.225
 1724SOL     OW 5306   0.055   3.904   0.715
 1724SOL    HW1 5307   0.056   3.948   0.629
 1724SOL    HW2 5308   0.046   3.811   0.694
 1725SOL     OW 5309   1.607   0.916   1.691
 1725SOL    HW1 5310   1.608   0.865   1.610
 1725SOL    HW2 5311   1.523   0.962   1.688
 1726SOL     OW 5312   1.894   0.721   3.905
 1726SOL    HW1 5313   1.888   0.628   3.882
 1726SOL    HW2 5314   1.948   0.759   3.835
 1727SOL     OW 5315   0.964   1.969   1.203
 1727SOL    HW1 5316   1.012   1.896   1.241
 1727SOL    HW2 5317   0.985   1.965   1.109
 1728SOL     OW 5318   0.413   3.335   3.291
 1728SOL    HW1 5319   0.487   3.278   3.270
 1728SOL    HW2 5320   0.379   3.362   3.206
 1729SOL     OW 5321   3.306   1.783   2.711
 1729SOL    HW1 5322   3.259   1.806   2.790
 1729SOL    HW2 5323   3.250   1.815   2.640
 1730SOL     OW 5324   0.544   2.743   0.312
 1730SOL    HW1 5325   0.480   2.676   0.334
 1730SOL    HW2 5326   0.623   2.718   0.361
 1731SOL     OW 5327   2.535   2.749   1.788
 1731SOL    HW1 5328   2.617   2.708   1.817
 1731SOL    HW2 5329   2.559   2.839   1.768
 1732SOL     OW 5330   1.190   0.113   1.429
 1732SOL    HW1 5331   1.178   0.083   1.519
 1732SOL    HW2 5332   1.101   0.119   1.394
 1733SOL     OW 5333   3.137   3.426   1.797
 1733SOL    HW1 5334   3.125   3.506   1.746
 1733SOL    HW2 5335   3.157   3.359   1.731
 1734SOL     OW 5336   1.357   1.421   2.243
 1734SOL    HW1 5337   1.264   1.410   2.225
 1734SOL    HW2 5338   1.363   1.504   2.290
 1735SOL     OW 5339   3.209   2.245   2.516
 1735SOL    HW1 5340   3.154   2.289   2.451
 1735SOL    HW2 5341   3.156   2.245   2.596
 1736SOL     OW 5342   0.377   2.092   1.003
 1736SOL    HW1 5343   0.451   2.132   1.048
 1736SOL    HW2 5344   0.376   2.133   0.916
 1737SOL     OW 5345   2.656   1.570   1.395
 1737SOL    HW1 5346   2.662   1.665   1.392
 1737SOL    HW2 5347   2.590   1.552   1.461
 1738SOL     OW 5348   0.718   2.466   2.982
 1738SOL    HW1 5349   0.737   2.556   2.952
 1738SOL    HW2 5350   0.801   2.420   2.969
 1739SOL     OW 5351   0.454   3.753   3.309
 1739SOL    HW1 5352   0.443   3.669   3.353
 1739SOL    HW2 5353   0.514   3.734   3.237
 1740SOL     OW 5354   3.519   0.034   3.033
 1740SOL    HW1 5355   3.442   0.015   2.979
 1740SOL    HW2 5356   3.591   0.039   2.971
 1741SOL     OW 5357   2.334   1.020   0.902
 1741SOL    HW1 5358   2.340   0.997   0.994
 1741SOL    HW2 5359   2.270   0.959   0.865
 1742SOL     OW 5360   1.183   2.930   2.510
 1742SOL    HW1 5361   1.246   2.892   2.449
 1742SOL    HW2 5362   1.100   2.933   2.462
 1743SOL     OW 5363   0.096   3.830   2.771
 1743SOL    HW1 5364   0.067   3.847   2.861
 1743SOL    HW2 5365   0.188   3.856   2.771
 1744SOL     OW 5366   3.915   0.331   1.479
 1744SOL    HW1 5367   3.966   0.292   1.549
 1744SOL    HW2 5368   3.839   0.274   1.469
 1745SOL     OW 5369   1.068   1.331   0.917
 1745SOL    HW1 5370   1.162   1.318   0.926
 1745SOL    HW2 5371   1.036   1.250   0.877
 1746SOL     OW 5372   3.979   1.271   2.709
 1746SOL    HW1 5373   3.885   1.278   2.729
 1746SOL    HW2 5374   3.985   1.281   2.614
 1747SOL     OW 5375   0.128   2.788   0.440
 1747SOL    HW1 5376   0.125   2.859   0.376
 1747SOL    HW2 5377   0.221   2.775   0.458
 1748SOL     OW 5378   3.310   0.016   2.849
 1748SOL    HW1 5379   3.263   0.053   2.774
 1748SOL    HW2 5380   3.284   0.072   2.923
 1749SOL     OW 5381   3.581   2.053   0.627
 1749SOL    HW1 5382   3.499   2.050   0.676
 1749SOL    HW2 5383   3.604   2.146   0.625
 1750SOL     OW 5384   2.120   1.438   1.796
 1750SOL    HW1 5385   2.192   1.497   1.817
 1750SOL    HW2 5386   2.076   1.421   1.880
 1751SOL     OW 5387   3.582   0.158   1.684
 1751SOL    HW1 5388   3.586   0.062   1.676
 1751SOL    HW2 5389   3.553   0.174   1.773
 1752SOL     OW 5390   2.249   1.594   1.197
 1752SOL    HW1 5391   2.304   1.622   1.123
 1752SOL    HW2 5392   2.256   1.498   1.196
 1753SOL     OW 5393   0.889   1.915   0.183
 1753SOL    HW1 5394   0.974   1.869   0.182
 1753SOL    HW2 5395   0.909   2.003   0.151
 1754SOL     OW 5396   0.988   0.442   1.444
 1754SOL    HW1 5397   1.002   0.528   1.484
 1754SOL    HW2 5398   0.908   0.453   1.391
 1755SOL     OW 5399   3.374   3.737   3.831
 1755SOL    HW1 5400   3.366   3.650   3.794
 1755SOL    HW2 5401   3.443   3.729   3.897
 1756SOL     OW 5402   2.816   3.779   2.304
 1756SOL    HW1 5403   2.756   3.705   2.309
 1756SOL    HW2 5404   2.856   3.771   2.217
 1757SOL     OW 5405   0.823   3.816   0.664
 1757SOL    HW1 5406   0.870   3.735   0.683
 1757SOL    HW2 5407   0.869   3.883   0.714
 1758SOL     OW 5408   2.734   1.975   2.251
 1758SOL    HW1 5409   2.797   2.046   2.238
 1758SOL    HW2 5410   2.783   1.906   2.296
 1759SOL     OW 5411   1.346   1.685   2.110
 1759SOL    HW1 5412   1.349   1.727   2.024
 1759SOL    HW2 5413   1.269   1.627   2.105
 1760SOL     OW 5414   3.222   0.970   1.879
 1760SOL    HW1 5415   3.203   0.878   1.865
 1760SOL    HW2 5416   3.232   0.979   1.974
 1761SOL     OW 5417   2.145   1.813   2.279
 1761SOL    HW1 5418   2.074   1.803   2.343
 1761SOL    HW2 5419   2.159   1.725   2.245
 1762SOL     OW 5420   2.974   3.352   2.837
 1762SOL    HW1 5421   2.881   3.342   2.816
 1762SOL    HW2 5422   3.004   3.264   2.857
 1763SOL     OW 5423   3.747   2.110   2.229
 1763SOL    HW1 5424   3.705   2.027   2.253
 1763SOL    HW2 5425   3.678   2.159   2.184
 1764SOL     OW 5426   1.661   0.954   0.099
 1764SOL    HW1 5427   1.655   1.047   0.118
 1764SOL    HW2 5428   1.679   0.913   0.183
 1765SOL     OW 5429   1.936   2.444   1.467
 1765SOL    HW1 5430   1.846   2.440   1.436
 1765SOL    HW2 5431   1.984   2.483   1.394
 1766SOL     OW 5432   0.006   2.060   3.141
 1766SOL    HW1 5433   0.020   2.113   3.063
 1766SOL    HW2 5434   0.091   2.057   3.184
 1767SOL     OW 5435   0.068   1.078   2.957
 1767SOL    HW1 5436  -0.018   1.056   2.991
 1767SOL    HW2 5437   0.051   1.120   2.873
 1768SOL     OW 5438   0.050   2.360   3.765
 1768SOL    HW1 5439   0.054   2.264   3.773
 1768SOL    HW2 5440  -0.007   2.387   3.837
 1769SOL     OW 5441   0.672   0.369   3.277
 1769SOL    HW1 5442   0.651   0.457   3.248
 1769SOL    HW2 5443   0.588   0.323   3.280
 1770SOL     OW 5444   0.940   2.660   2.774
 1770SOL    HW1 5445   0.937   2.755   2.770
 1770SOL    HW2 5446   0.998   2.641   2.848
 1771SOL     OW 5447   1.989   0.986   0.933
 1771SOL    HW1 5448   1.940   1.016   0.857
 1771SOL    HW2 5449   1.931   1.002   1.007
 1772SOL     OW 5450   3.941   1.682   3.729
 1772SOL    HW1 5451   3.878   1.611   3.717
 1772SOL    HW2 5452   3.986   1.688   3.645
 1773SOL     OW 5453   1.975   1.924   3.069
 1773SOL    HW1 5454   1.988   1.914   2.974
 1773SOL    HW2 5455   2.059   1.953   3.103
 1774SOL     OW 5456   0.402   0.494   3.621
 1774SOL    HW1 5457   0.494   0.517   3.633
 1774SOL    HW2 5458   0.354   0.570   3.654
 1775SOL     OW 5459   0.073   1.302   1.596
 1775SOL    HW1 5460   0.127   1.369   1.555
 1775SOL    HW2 5461   0.012   1.352   1.651
 1776SOL     OW 5462   1.399   0.868   0.246
 1776SOL    HW1 5463   1.465   0.859   0.177
 1776SOL    HW2 5464   1.344   0.790   0.238
 1777SOL     OW 5465   3.885   2.801   0.602
 1777SOL    HW1 5466   3.955   2.781   0.540
 1777SOL    HW2 5467   3.928   2.807   0.687
 1778SOL     OW 5468   1.107   0.786   1.878
 1778SOL    HW1 5469   1.110   0.805   1.972
 1778SOL    HW2 5470   1.104   0.871   1.836
 1779SOL     OW 5471   3.260   3.768   3.388
 1779SOL    HW1 5472   3.347   3.787   3.423
 1779SOL    HW2 5473   3.275   3.750   3.295
 1780SOL     OW 5474   0.742   0.936   1.994
 1780SOL    HW1 5475   0.759   0.854   1.947
 1780SOL    HW2 5476   0.777   1.004   1.937
 1781SOL     OW 5477   2.589   3.106   0.073
 1781SOL    HW1 5478   2.606   3.012   0.060
 1781SOL    HW2 5479   2.676   3.143   0.089
 1782SOL     OW 5480   2.689   3.992   2.010
 1782SOL    HW1 5481   2.660   3.927   1.946
 1782SOL    HW2 5482   2.718   3.941   2.085
 1783SOL     OW 5483   3.738   1.546   3.508
 1783SOL    HW1 5484   3.728   1.595   3.426
 1783SOL    HW2 5485   3.684   1.594   3.571
 1784SOL     OW 5486   2.619   0.747   3.904
 1784SOL    HW1 5487   2.665   0.705   3.977
 1784SOL    HW2 5488   2.542   0.788   3.945
 1785SOL     OW 5489   0.579   2.373   2.455
 1785SOL    HW1 5490   0.646   2.425   2.500
 1785SOL    HW2 5491   0.551   2.428   2.382
 1786SOL     OW 5492   0.249   2.576   1.514
 1786SOL    HW1 5493   0.244   2.669   1.533
 1786SOL    HW2 5494   0.269   2.535   1.599
 1787SOL     OW 5495   3.483   1.089   2.539
 1787SOL    HW1 5496   3.392   1.115   2.531
 1787SOL    HW2 5497   3.490   1.009   2.488
 1788SOL     OW 5498   1.759   1.476   2.868
 1788SOL    HW1 5499   1.828   1.410   2.868
 1788SOL    HW2 5500   1.699   1.448   2.799
 1789SOL     OW 5501   0.205   3.247   1.719
 1789SOL    HW1 5502   0.221   3.340   1.704
 1789SOL    HW2 5503   0.216   3.207   1.633
 1790SOL     OW 5504   1.922   3.867   0.122
 1790SOL    HW1 5505   1.915   3.806   0.195
 1790SOL    HW2 5506   1.984   3.826   0.061
 1791SOL     OW 5507   1.551   2.381   2.978
 1791SOL    HW1 5508   1.499   2.447   2.932
 1791SOL    HW2 5509   1.526   2.298   2.937
 1792SOL     OW 5510   2.077   2.996   0.207
 1792SOL    HW1 5511   2.121   3.025   0.287
 1792SOL    HW2 5512   2.039   3.076   0.171
 1793SOL     OW 5513   2.275   2.900   0.008
 1793SOL    HW1 5514   2.332   2.976   0.025
 1793SOL    HW2 5515   2.192   2.923   0.049
 1794SOL     OW 5516   0.306   2.575   0.429
 1794SOL    HW1 5517   0.350   2.529   0.500
 1794SOL    HW2 5518   0.227   2.612   0.469
 1795SOL     OW 5519   1.994   0.296   1.847
 1795SOL    HW1 5520   2.036   0.250   1.774
 1795SOL    HW2 5521   2.042   0.267   1.924
 1796SOL     OW 5522   3.948   3.587   2.710
 1796SOL    HW1 5523   3.856   3.612   2.720
 1796SOL    HW2 5524   3.995   3.670   2.699
 1797SOL     OW 5525   1.969   2.120   3.619
 1797SOL    HW1 5526   1.874   2.110   3.626
 1797SOL    HW2 5527   1.981   2.191   3.555
 1798SOL     OW 5528   0.457   1.720   1.377
 1798SOL    HW1 5529   0.548   1.742   1.396
 1798SOL    HW2 5530   0.423   1.687   1.460
 1799SOL     OW 5531   2.441   1.638   3.362
 1799SOL    HW1 5532   2.365   1.686   3.394
 1799SOL    HW2 5533   2.413   1.547   3.359
 1800SOL     OW 5534   0.255   3.910   1.016
 1800SOL    HW1 5535   0.200   3.882   1.089
 1800SOL    HW2 5536   0.199   3.966   0.963
 1801SOL     OW 5537   0.445   2.342   3.919
 1801SOL    HW1 5538   0.536   2.373   3.926
 1801SOL    HW2 5539   0.430   2.331   3.826
 1802SOL     OW 5540   3.481   0.249   3.178
 1802SOL    HW1 5541   3.495   0.167   3.131
 1802SOL    HW2 5542   3.569   0.281   3.199
 1803SOL     OW 5543   2.289   1.130   2.107
 1803SOL    HW1 5544   2.227   1.203   2.106
 1803SOL    HW2 5545   2.234   1.052   2.107
 1804SOL     OW 5546   1.328   3.294   0.042
 1804SOL    HW1 5547   1.329   3.251   0.128
 1804SOL    HW2 5548   1.311   3.386   0.061
 1805SOL     OW 5549   2.905   1.942   1.223
 1805SOL    HW1 5550   2.982   1.897   1.258
 1805SOL    HW2 5551   2.884   1.896   1.142
 1806SOL     OW 5552   0.512   2.784   3.109
 1806SOL    HW1 5553   0.528   2.718   3.176
 1806SOL    HW2 5554   0.433   2.830   3.139
 1807SOL     OW 5555   1.550   1.542   0.352
 1807SOL    HW1 5556   1.539   1.512   0.442
 1807SOL    HW2 5557   1.617   1.610   0.357
 1808SOL     OW 5558   0.874   0.928   2.606
 1808SOL    HW1 5559   0.853   0.942   2.514
 1808SOL    HW2 5560   0.964   0.960   2.615
 1809SOL     OW 5561   3.501   1.640   0.967
 1809SOL    HW1 5562   3.547   1.712   1.011
 1809SOL    HW2 5563   3.426   1.682   0.925
 1810SOL     OW 5564   0.312   2.465   3.149
 1810SOL    HW1 5565   0.246   2.420   3.202
 1810SOL    HW2 5566   0.324   2.408   3.073
 1811SOL     OW 5567   0.130   1.010   1.563
 1811SOL    HW1 5568   0.116   1.103   1.577
 1811SOL    HW2 5569   0.052   0.968   1.600
 1812SOL     OW 5570   0.653   0.651   1.529
 1812SOL    HW1 5571   0.749   0.644   1.526
 1812SOL    HW2 5572   0.624   0.628   1.441
 1813SOL     OW 5573   2.975   0.738   0.394
 1813SOL    HW1 5574   3.011   0.815   0.438
 1813SOL    HW2 5575   2.913   0.702   0.456
 1814SOL     OW 5576   1.472   0.647   3.833
 1814SOL    HW1 5577   1.567   0.662   3.834
 1814SOL    HW2 5578   1.463   0.560   3.795
 1815SOL     OW 5579   3.834   2.507   0.562
 1815SOL    HW1 5580   3.878   2.580   0.520
 1815SOL    HW2 5581   3.779   2.469   0.494
 1816SOL     OW 5582   3.934   0.015   1.573
 1816SOL    HW1 5583   3.934  -0.049   1.644
 1816SOL    HW2 5584   3.988   0.087   1.606
 1817SOL     OW 5585   0.364   3.881   2.712
 1817SOL    HW1 5586   0.406   3.967   2.701
 1817SOL    HW2 5587   0.381   3.858   2.803
 1818SOL     OW 5588   1.913  -0.012   0.813
 1818SOL    HW1 5589   1.890   0.081   0.813
 1818SOL    HW2 5590   1.855  -0.051   0.879
 1819SOL     OW 5591   0.831   0.243   0.993
 1819SOL    HW1 5592   0.840   0.188   1.071
 1819SOL    HW2 5593   0.755   0.297   1.011
 1820SOL     OW 5594   0.273   1.122   0.198
 1820SOL    HW1 5595   0.325   1.194   0.233
 1820SOL    HW2 5596   0.250   1.150   0.110
 1821SOL     OW 5597   0.245   3.401   1.307
 1821SOL    HW1 5598   0.163   3.360   1.281
 1821SOL    HW2 5599   0.284   3.432   1.226
 1822SOL     OW 5600   2.706   3.517   2.228
 1822SOL    HW1 5601   2.735   3.492   2.141
 1822SOL    HW2 5602   2.727   3.442   2.284
 1823SOL     OW 5603   0.036   3.661   0.600
 1823SOL    HW1 5604   0.083   3.580   0.621
 1823SOL    HW2 5605  -0.048   3.632   0.565
 1824SOL     OW 5606   0.590   0.254   1.437
 1824SOL    HW1 5607   0.641   0.265   1.517
 1824SOL    HW2 5608   0.580   0.159   1.427
 1825SOL     OW 5609   3.620   3.223   1.783
 1825SOL    HW1 5610   3.602   3.317   1.779
 1825SOL    HW2 5611   3.577   3.194   1.864
 1826SOL     OW 5612   0.515   1.227   1.264
 1826SOL    HW1 5613   0.431   1.268   1.244
 1826SOL    HW2 5614   0.542   1.185   1.182
 1827SOL     OW 5615   3.727   0.371   2.048
 1827SOL    HW1 5616   3.692   0.392   1.961
 1827SOL    HW2 5617   3.679   0.293   2.075
 1828SOL     OW 5618   3.491   3.321   3.300
 1828SOL    HW1 5619   3.580   3.335   3.266
 1828SOL    HW2 5620   3.440   3.295   3.223
 1829SOL     OW 5621   0.279   2.044   3.280
 1829SOL    HW1 5622   0.286   1.949   3.270
 1829SOL    HW2 5623   0.249   2.056   3.370
 1830SOL     OW 5624   0.240   0.060   2.063
 1830SOL    HW1 5625   0.335   0.068   2.077
 1830SOL    HW2 5626   0.222   0.117   1.989
 1831SOL     OW 5627   2.029   2.912   0.471
 1831SOL    HW1 5628   1.999   2.971   0.541
 1831SOL    HW2 5629   2.118   2.942   0.452
 1832SOL     OW 5630   3.939   1.872   2.630
 1832SOL    HW1 5631   3.982   1.790   2.605
 1832SOL    HW2 5632   3.935   1.923   2.549
 1833SOL     OW 5633   0.974   0.363   3.909
 1833SOL    HW1 5634   0.929   0.311   3.975
 1833SOL    HW2 5635   1.063   0.373   3.942
 1834SOL     OW 5636   0.442   1.668   3.674
 1834SOL    HW1 5637   0.417   1.701   3.761
 1834SOL    HW2 5638   0.536   1.686   3.668
 1835SOL     OW 5639   0.042   1.329   0.661
 1835SOL    HW1 5640   0.133   1.323   0.630
 1835SOL    HW2 5641  -0.010   1.327   0.581
 1836SOL     OW 5642   0.469   2.540   1.746
 1836SOL    HW1 5643   0.531   2.484   1.792
 1836SOL    HW2 5644   0.486   2.628   1.779
 1837SOL     OW 5645   1.018   3.119   0.439
 1837SOL    HW1 5646   1.064   3.063   0.501
 1837SOL    HW2 5647   0.956   3.060   0.395
 1838SOL     OW 5648   2.831   0.348   1.433
 1838SOL    HW1 5649   2.813   0.296   1.355
 1838SOL    HW2 5650   2.746   0.382   1.460
 1839SOL     OW 5651   2.565   2.502   2.235
 1839SOL    HW1 5652   2.474   2.492   2.208
 1839SOL    HW2 5653   2.562   2.494   2.331
 1840SOL     OW 5654   3.311   0.292   0.803
 1840SOL    HW1 5655   3.351   0.368   0.846
 1840SOL    HW2 5656   3.266   0.329   0.727
 1841SOL     OW 5657   0.031   2.006   1.301
 1841SOL    HW1 5658   0.017   1.980   1.211
 1841SOL    HW2 5659   0.122   1.983   1.319
 1842SOL     OW 5660   2.615   2.345   0.968
 1842SOL    HW1 5661   2.603   2.270   0.909
 1842SOL    HW2 5662   2.615   2.421   0.910
 1843SOL     OW 5663   0.415   0.662   1.019
 1843SOL    HW1 5664   0.323   0.636   1.015
 1843SOL    HW2 5665   0.463   0.585   0.986
 1844SOL     OW 5666   0.671   0.584   2.605
 1844SOL    HW1 5667   0.692   0.530   2.529
 1844SOL    HW2 5668   0.743   0.567   2.666
 1845SOL     OW 5669   1.985   0.891   3.713
 1845SOL    HW1 5670   1.935   0.966   3.747
 1845SOL    HW2 5671   2.056   0.930   3.663
 1846SOL     OW 5672   3.655   0.122   2.100
 1846SOL    HW1 5673   3.640   0.107   2.006
 1846SOL    HW2 5674   3.683   0.037   2.134
 1847SOL     OW 5675   0.484   3.953   1.357
 1847SOL    HW1 5676   0.509   3.961   1.265
 1847SOL    HW2 5677   0.407   3.897   1.357
 1848SOL     OW 5678   0.539   3.671   2.670
 1848SOL    HW1 5679   0.454   3.715   2.681
 1848SOL    HW2 5680   0.551   3.665   2.575
 1849SOL     OW 5681   0.556   0.762   0.791
 1849SOL    HW1 5682   0.487   0.735   0.852
 1849SOL    HW2 5683   0.522   0.739   0.705
 1850SOL     OW 5684   1.412   1.145   3.592
 1850SOL    HW1 5685   1.335   1.096   3.622
 1850SOL    HW2 5686   1.479   1.126   3.657
 1851SOL     OW 5687   2.992   1.932   0.103
 1851SOL    HW1 5688   2.970   1.840   0.116
 1851SOL    HW2 5689   3.088   1.932   0.095
 1852SOL     OW 5690   0.419   0.241   1.855
 1852SOL    HW1 5691   0.390   0.175   1.792
 1852SOL    HW2 5692   0.457   0.310   1.800
 1853SOL     OW 5693   1.456   1.711   3.256
 1853SOL    HW1 5694   1.499   1.635   3.216
 1853SOL    HW2 5695   1.418   1.676   3.337
 1854SOL     OW 5696   0.098   2.099   3.799
 1854SOL    HW1 5697   0.173   2.141   3.842
 1854SOL    HW2 5698   0.068   2.033   3.861
 1855SOL     OW 5699   0.232   3.151   2.485
 1855SOL    HW1 5700   0.185   3.233   2.499
 1855SOL    HW2 5701   0.197   3.091   2.551
 1856SOL     OW 5702   1.795   3.663   3.786
 1856SOL    HW1 5703   1.704   3.676   3.813
 1856SOL    HW2 5704   1.823   3.584   3.832
 1857SOL     OW 5705   2.982   2.085   3.824
 1857SOL    HW1 5706   2.972   2.024   3.897
 1857SOL    HW2 5707   2.893   2.112   3.803
 1858SOL     OW 5708   1.223   1.598   2.775
 1858SOL    HW1 5709   1.272   1.563   2.700
 1858SOL    HW2 5710   1.204   1.522   2.829
 1859SOL     OW 5711   0.377   0.215   3.705
 1859SOL    HW1 5712   0.354   0.291   3.652
 1859SOL    HW2 5713   0.297   0.163   3.709
 1860SOL     OW 5714   1.915   3.848   1.667
 1860SOL    HW1 5715   1.841   3.799   1.631
 1860SOL    HW2 5716   1.992   3.798   1.639
 1861SOL     OW 5717   3.198   2.653   1.893
 1861SOL    HW1 5718   3.170   2.594   1.823
 1861SOL    HW2 5719   3.293   2.661   1.880
 1862SOL     OW 5720   1.568   3.150   2.879
 1862SOL    HW1 5721   1.555   3.241   2.852
 1862SOL    HW2 5722   1.485   3.107   2.862
 1863SOL     OW 5723   0.697   1.890   0.367
 1863SOL    HW1 5724   0.668   1.800   0.354
 1863SOL    HW2 5725   0.760   1.905   0.296
 1864SOL     OW 5726   0.936   3.360   0.319
 1864SOL    HW1 5727   0.990   3.294   0.362
 1864SOL    HW2 5728   0.861   3.311   0.285
 1865SOL     OW 5729   0.033   2.467   1.429
 1865SOL    HW1 5730   0.064   2.407   1.361
 1865SOL    HW2 5731   0.112   2.507   1.464
 1866SOL     OW 5732   3.684   0.795   0.350
 1866SOL    HW1 5733   3.773   0.762   0.343
 1866SOL    HW2 5734   3.662   0.789   0.443
 1867SOL     OW 5735   0.208   3.209   2.844
 1867SOL    HW1 5736   0.116   3.238   2.848
 1867SOL    HW2 5737   0.258   3.290   2.841
 1868SOL     OW 5738   0.810   0.508   1.238
 1868SOL    HW1 5739   0.851   0.556   1.166
 1868SOL    HW2 5740   0.718   0.533   1.234
 1869SOL     OW 5741   1.236   0.865   3.794
 1869SOL    HW1 5742   1.225   0.867   3.889
 1869SOL    HW2 5743   1.329   0.886   3.781
 1870SOL     OW 5744   3.310   2.081   1.883
 1870SOL    HW1 5745   3.242   2.122   1.829
 1870SOL    HW2 5746   3.283   1.989   1.889
 1871SOL     OW 5747   2.948   3.433   1.998
 1871SOL    HW1 5748   2.957   3.345   2.034
 1871SOL    HW2 5749   3.017   3.440   1.932
 1872SOL     OW 5750   3.522   2.026   3.241
 1872SOL    HW1 5751   3.550   2.116   3.227
 1872SOL    HW2 5752   3.531   1.984   3.156
 1873SOL     OW 5753   0.511   1.691   0.210
 1873SOL    HW1 5754   0.462   1.670   0.289
 1873SOL    HW2 5755   0.592   1.640   0.217
 1874SOL     OW 5756   2.638   3.608   0.862
 1874SOL    HW1 5757   2.658   3.698   0.838
 1874SOL    HW2 5758   2.590   3.615   0.944
 1875SOL     OW 5759   1.834   2.026   0.426
 1875SOL    HW1 5760   1.863   2.109   0.464
 1875SOL    HW2 5761   1.908   1.996   0.373
 1876SOL     OW 5762   3.042   0.376   3.184
 1876SOL    HW1 5763   3.110   0.435   3.151
 1876SOL    HW2 5764   3.062   0.367   3.278
 1877SOL     OW 5765   1.840   3.707   0.307
 1877SOL    HW1 5766   1.874   3.619   0.324
 1877SOL    HW2 5767   1.842   3.750   0.393
 1878SOL     OW 5768   2.337   3.512   0.116
 1878SOL    HW1 5769   2.346   3.573   0.190
 1878SOL    HW2 5770   2.285   3.440   0.151
 1879SOL     OW 5771   1.323   1.723   3.647
 1879SOL    HW1 5772   1.262   1.761   3.711
 1879SOL    HW2 5773   1.266   1.684   3.581
 1880SOL     OW 5774   1.597   1.427   3.376
 1880SOL    HW1 5775   1.636   1.434   3.289
 1880SOL    HW2 5776   1.513   1.385   3.361
 1881SOL     OW 5777   1.938   0.527   2.211
 1881SOL    HW1 5778   2.021   0.480   2.201
 1881SOL    HW2 5779   1.871   0.459   2.209
 1882SOL     OW 5780   2.051   0.121   1.623
 1882SOL    HW1 5781   2.014   0.128   1.535
 1882SOL    HW2 5782   2.010   0.043   1.660
 1883SOL     OW 5783   1.438   3.809   3.159
 1883SOL    HW1 5784   1.529   3.828   3.182
 1883SOL    HW2 5785   1.387   3.850   3.229
 1884SOL     OW 5786   3.305   1.225   0.951
 1884SOL    HW1 5787   3.242   1.157   0.927
 1884SOL    HW2 5788   3.385   1.177   0.972
 1885SOL     OW 5789   0.988   1.111   1.284
 1885SOL    HW1 5790   0.936   1.121   1.204
 1885SOL    HW2 5791   0.939   1.158   1.351
 1886SOL     OW 5792   0.382   3.559   2.086
 1886SOL    HW1 5793   0.326   3.513   2.149
 1886SOL    HW2 5794   0.441   3.612   2.140
 1887SOL     OW 5795   2.428   2.756   3.775
 1887SOL    HW1 5796   2.389   2.795   3.853
 1887SOL    HW2 5797   2.523   2.759   3.792
 1888SOL     OW 5798   1.400   1.042   1.509
 1888SOL    HW1 5799   1.336   1.039   1.438
 1888SOL    HW2 5800   1.484   1.054   1.466
 1889SOL     OW 5801   3.371   3.352   1.921
 1889SOL    HW1 5802   3.383   3.424   1.983
 1889SOL    HW2 5803   3.286   3.370   1.881
 1890SOL     OW 5804   3.730   3.929   3.519
 1890SOL    HW1 5805   3.788   3.946   3.593
 1890SOL    HW2 5806   3.780   3.959   3.443
 1891SOL     OW 5807   2.924   2.827   0.595
 1891SOL    HW1 5808   2.927   2.736   0.565
 1891SOL    HW2 5809   2.891   2.876   0.520
 1892SOL     OW 5810   2.026   2.097   3.869
 1892SOL    HW1 5811   2.040   2.003   3.880
 1892SOL    HW2 5812   2.021   2.110   3.775
 1893SOL     OW 5813   2.924   2.471   2.842
 1893SOL    HW1 5814   2.887   2.447   2.926
 1893SOL    HW2 5815   2.888   2.558   2.824
 1894SOL     OW 5816   2.967   1.283   1.225
 1894SOL    HW1 5817   2.875   1.299   1.246
 1894SOL    HW2 5818   2.970   1.280   1.130
 1895SOL     OW 5819   0.028   3.907   2.486
 1895SOL    HW1 5820   0.049   3.997   2.462
 1895SOL    HW2 5821   0.033   3.905   2.582
 1896SOL     OW 5822   1.583   0.586   2.449
 1896SOL    HW1 5823   1.552   0.545   2.530
 1896SOL    HW2 5824   1.627   0.515   2.402
 1897SOL     OW 5825   3.008   2.803   3.690
 1897SOL    HW1 5826   3.068   2.778   3.619
 1897SOL    HW2 5827   3.064   2.810   3.767
 1898SOL     OW 5828   1.341   1.820   1.147
 1898SOL    HW1 5829   1.257   1.775   1.139
 1898SOL    HW2 5830   1.367   1.841   1.057
 1899SOL     OW 5831   2.830   3.236   1.746
 1899SOL    HW1 5832   2.878   3.181   1.684
 1899SOL    HW2 5833   2.889   3.246   1.820
 1900SOL     OW 5834   2.011   0.111   2.983
 1900SOL    HW1 5835   2.012   0.052   3.058
 1900SOL    HW2 5836   2.090   0.164   2.994
 1901SOL     OW 5837   3.039   1.241   2.435
 1901SOL    HW1 5838   2.969   1.183   2.465
 1901SOL    HW2 5839   3.027   1.246   2.340
 1902SOL     OW 5840   2.486   2.581   0.175
 1902SOL    HW1 5841   2.495   2.662   0.226
 1902SOL    HW2 5842   2.576   2.560   0.148
 1903SOL     OW 5843   0.551   1.635   3.158
 1903SOL    HW1 5844   0.605   1.560   3.185
 1903SOL    HW2 5845   0.503   1.603   3.082
 1904SOL     OW 5846   0.382   1.274   0.650
 1904SOL    HW1 5847   0.408   1.307   0.737
 1904SOL    HW2 5848   0.355   1.352   0.602
 1905SOL     OW 5849   1.634   1.904   1.457
 1905SOL    HW1 5850   1.585   1.844   1.401
 1905SOL    HW2 5851   1.721   1.909   1.417
 1906SOL     OW 5852   3.954   2.487   3.546
 1906SOL    HW1 5853   3.861   2.489   3.568
 1906SOL    HW2 5854   3.997   2.453   3.625
 1907SOL     OW 5855   3.830   2.164   3.450
 1907SOL    HW1 5856   3.796   2.124   3.370
 1907SOL    HW2 5857   3.767   2.233   3.471
 1908SOL     OW 5858   2.936   3.623   2.838
 1908SOL    HW1 5859   2.967   3.534   2.827
 1908SOL    HW2 5860   2.927   3.634   2.933
 1909SOL     OW 5861   1.418   3.717   2.826
 1909SOL    HW1 5862   1.484   3.784   2.810
 1909SOL    HW2 5863   1.345   3.765   2.866
 1910SOL     OW 5864   2.587   3.720   0.465
 1910SOL    HW1 5865   2.598   3.633   0.502
 1910SOL    HW2 5866   2.493   3.727   0.446
 1911SOL     OW 5867   0.165   3.773   3.389
 1911SOL    HW1 5868   0.198   3.801   3.304
 1911SOL    HW2 5869   0.136   3.854   3.432
 1912SOL     OW 5870   0.299   2.691   2.697
 1912SOL    HW1 5871   0.353   2.625   2.741
 1912SOL    HW2 5872   0.291   2.762   2.760
 1913SOL     OW 5873   2.451   2.772   2.817
 1913SOL    HW1 5874   2.483   2.715   2.887
 1913SOL    HW2 5875   2.465   2.860   2.850
 1914SOL     OW 5876   2.066   0.438   1.579
 1914SOL    HW1 5877   2.075   0.355   1.531
 1914SOL    HW2 5878   2.150   0.483   1.565
 1915SOL     OW 5879   2.151   1.667   0.914
 1915SOL    HW1 5880   2.166   1.655   0.820
 1915SOL    HW2 5881   2.205   1.741   0.938
 1916SOL     OW 5882   0.313   3.590   0.555
 1916SOL    HW1 5883   0.325   3.631   0.640
 1916SOL    HW2 5884   0.375   3.635   0.497
 1917SOL     OW 5885   1.762   2.589   3.399
 1917SOL    HW1 5886   1.700   2.535   3.448
 1917SOL    HW2 5887   1.762   2.552   3.311
 1918NA      NA 5888   0.077   1.091   2.038
 1919NA      NA 5889   1.820   3.051   3.238
   3.96100   3.96100   3.96100   0.00000   0.00000   0.00000   0.00000   0.00000   0.00000
