Protein in water
 5889
    1TYR      N    1   2.848   1.050   0.833  0.0460  0.1524  0.4765
    1TYR     H1    2   2.850   1.051   0.937 -0.8783 -2.6590  0.6217
    1TYR     H2    3   2.896   1.136   0.801  0.3255 -0.3906 -0.6272
    1TYR     H3    4   2.747   1.055   0.808 -0.8237 -1.3083  3.3333
    1TYR     CA    5   2.911   0.936   0.772  0.3653  0.2963  0.4887
    1TYR     HA    6   2.996   0.906   0.831 -0.2387 -1.2661  0.6192
    1TYR     CB    7   2.809   0.813   0.779  0.0219 -0.0858 -0.4850
    1TYR    HB1    8   2.782   0.804   0.886 -2.1522 -1.1196 -1.0671
    1TYR    HB2    9   2.715   0.835   0.724 -1.0491  1.8910  1.9839
    1TYR     CG   10   2.871   0.678   0.747  0.1945 -0.2189 -0.4345
    1TYR    CD1   11   2.807   0.601   0.642 -0.0869 -0.3998 -0.0440
    1TYR    HD1   12   2.705   0.620   0.611 -0.7563 -1.5349  1.2998
    1TYR    CE1   13   2.861   0.479   0.597 -0.5854  0.9217  0.2516
    1TYR    HE1   14   2.807   0.419   0.525  0.1806  0.0787  0.3576
    1TYR     CZ   15   2.983   0.440   0.650  0.5561  0.3390  0.1583
    1TYR     OH   16   3.034   0.316   0.591  0.3863 -1.0951  0.1740
    1TYR     HH   17   3.116   0.291   0.634  1.2428  0.1678 -0.6702
    1TYR    CD2   18   2.990   0.624   0.799 -0.0247 -0.2143 -0.7850
    1TYR    HD2   19   3.039   0.673   0.882  0.1290  0.3604 -1.2062
    1TYR    CE2   20   3.051   0.510   0.743 -0.2677 -0.3729  0.8484
    1TYR    HE2   21   3.145   0.469   0.776  0.3910  0.9622  0.6570
    1TYR      C   22   2.958   0.970   0.632  0.1703 -0.0147  0.3651
    1TYR      O   23   3.076   0.980   0.600  0.2944 -0.5370  0.6720
    2TYR      N   24   2.863   0.981   0.548 -0.2015  0.4251 -0.0502
    2TYR     HN   25   2.776   0.935   0.564 -0.0090 -0.5591 -1.6007
    2TYR     CA   26   2.870   1.040   0.417 -1.0851 -0.7384 -0.3181
    2TYR     HA   27   2.975   1.050   0.394 -0.5059  2.4937  2.8606
    2TYR     CB   28   2.775   0.977   0.314 -0.4197 -0.3722 -0.3465
    2TYR    HB1   29   2.775   0.866   0.320 -0.4174 -0.3074  1.1811
    2TYR    HB2   30   2.679   1.030   0.331  0.1633  0.5106  0.2845
    2TYR     CG   31   2.821   1.012   0.172  0.0561  0.2905 -0.1289
    2TYR    CD1   32   2.913   0.928   0.100  0.4342 -0.1907 -1.0900
    2TYR    HD1   33   2.956   0.844   0.152 -3.0434 -1.2570  0.3240
    2TYR    CE1   34   2.942   0.970  -0.033  0.1913  0.9208 -0.7023
    2TYR    HE1   35   3.021   0.915  -0.083  0.7543 -0.2420  1.3456
    2TYR     CZ   36   2.871   1.071  -0.099  0.1909 -0.0836  0.7990
    2TYR     OH   37   2.918   1.096  -0.235  0.0934  0.2370 -0.1679
    2TYR     HH   38   2.890   1.183  -0.262 -1.6417 -0.0685  0.4736
    2TYR    CD2   39   2.747   1.114   0.105  0.3771  0.5750  0.1352
    2TYR    HD2   40   2.679   1.184   0.151 -0.8007  0.1931 -0.9532
    2TYR    CE2   41   2.779   1.151  -0.030  0.0565 -0.5338 -0.3665
    2TYR    HE2   42   2.730   1.233  -0.081  2.9522  0.5588 -1.6135
    2TYR      C   43   2.839   1.190   0.422  0.7295 -0.4902 -0.7178
    2TYR      O   44   2.761   1.233   0.508  0.4136 -0.3938 -0.2407
    3ASP      N   45   2.894   1.265   0.337 -0.0006  0.1146  0.0809
    3ASP     HN   46   2.976   1.243   0.285 -0.7870  0.2522 -1.2751
    3ASP     CA   47   2.882   1.408   0.325  0.1687  0.0222 -0.0327
    3ASP     HA   48   2.785   1.438   0.362  0.2831  0.6833 -0.2483
    3ASP     CB   49   2.993   1.477   0.420  0.2950  0.4216  0.7124
    3ASP    HB1   50   2.972   1.443   0.523 -0.0747 -0.2616  0.4150
    3ASP    HB2   51   3.094   1.439   0.395 -0.4637 -1.1166 -0.1507
    3ASP     CG   52   2.998   1.630   0.410 -0.6951 -0.0101  0.4116
    3ASP    OD1   53   3.095   1.697   0.457  0.2368  0.8109  0.5599
    3ASP    OD2   54   2.896   1.690   0.361  0.4633 -0.3432  0.8523
    3ASP      C   55   2.898   1.438   0.176  0.8010  0.0523  0.3740
    3ASP      O   56   2.998   1.391   0.123  0.5247  0.4556 -0.0280
    4PRO      N   57   2.812   1.500   0.093 -0.2739  0.1376 -0.2029
    4PRO     CD   58   2.668   1.509   0.132  0.0059 -0.4747  1.4386
    4PRO    HD1   59   2.659   1.581   0.215  1.3351 -1.4173  2.4263
    4PRO    HD2   60   2.630   1.407   0.156 -2.1793 -0.4703 -1.3504
    4PRO     CA   61   2.837   1.520  -0.047  0.7109 -0.9044  0.6371
    4PRO     HA   62   2.829   1.420  -0.087  0.4777 -1.6904  2.5704
    4PRO     CB   63   2.716   1.606  -0.091  0.5994 -0.8220  0.4364
    4PRO    HB1   64   2.715   1.715  -0.068  1.8862 -0.6024 -0.4502
    4PRO    HB2   65   2.704   1.591  -0.200 -1.0393  1.1487  0.2844
    4PRO     CG   66   2.604   1.549  -0.006 -0.5807  0.0817 -0.2114
    4PRO    HG1   67   2.516   1.616  -0.000  0.8718  1.9857  0.8890
    4PRO    HG2   68   2.549   1.466  -0.055 -1.5759  1.8421 -2.2047
    4PRO      C   69   2.975   1.596  -0.075  0.2154 -0.5283 -1.1273
    4PRO      O   70   3.023   1.591  -0.190  0.4904 -0.0150 -0.0937
    5GLU      N   71   3.025   1.681   0.028 -0.5419 -0.0686 -0.0560
    5GLU     HN   72   2.980   1.680   0.117 -1.7709  1.6240 -0.6096
    5GLU     CA   73   3.153   1.752   0.017  0.8097 -0.1218 -0.1229
    5GLU     HA   74   3.150   1.817  -0.069  0.2231 -0.6515 -0.5045
    5GLU     CB   75   3.147   1.842   0.144  0.2951  0.2412  0.0272
    5GLU    HB1   76   3.135   1.782   0.237  3.0482  0.4554  0.6102
    5GLU    HB2   77   3.244   1.895   0.155  1.0334 -1.0806  0.0746
    5GLU     CG   78   3.021   1.945   0.142  0.0734  0.1189 -0.2413
    5GLU    HG1   79   3.016   2.018   0.059 -1.8672  0.9097  0.5174
    5GLU    HG2   80   2.921   1.898   0.139 -0.1949  0.1674  3.3357
    5GLU     CD   81   3.024   2.041   0.267  0.0233 -0.0713  0.6804
    5GLU    OE1   82   2.927   2.038   0.342 -0.4258 -0.0576  0.2582
    5GLU    OE2   83   3.128   2.115   0.272  0.2120 -0.1441  0.2513
    5GLU      C   84   3.288   1.673   0.006  0.4287  0.4572 -0.0378
    5GLU      O   85   3.378   1.700  -0.075 -0.0388 -1.2664 -0.3498
    6THR      N   86   3.314   1.567   0.084  0.1664  0.3093  0.6256
    6THR     HN   87   3.246   1.549   0.155 -1.7963  0.4214 -1.1348
    6THR     CA   88   3.433   1.482   0.071 -0.3520  0.2032 -0.5868
    6THR     HA   89   3.517   1.548   0.054  0.5423 -1.0560 -1.1986
    6THR     CB   90   3.455   1.401   0.198  0.5010  0.5587  0.4268
    6THR     HB   91   3.535   1.326   0.184 -0.9296 -1.0617  0.5739
    6THR    OG1   92   3.329   1.344   0.235  0.4081 -0.2350  0.0636
    6THR    HG1   93   3.348   1.282   0.306  1.0447 -1.5988 -1.2470
    6THR    CG2   94   3.511   1.502   0.304  0.4578 -0.1064 -0.1322
    6THR   HG21   95   3.543   1.451   0.398 -1.1770 -0.7276  0.1237
    6THR   HG22   96   3.599   1.550   0.257  1.2887  0.0976  1.5555
    6THR   HG23   97   3.429   1.573   0.327 -0.3163 -1.0839  0.2249
    6THR      C   98   3.409   1.381  -0.048 -0.5595  0.0294 -0.3747
    6THR      O   99   3.500   1.348  -0.120  0.1354  0.1169  0.0930
    7GLY      N  100   3.284   1.341  -0.073  0.2068 -0.3727  0.3614
    7GLY     HN  101   3.218   1.368  -0.003  0.5901  3.3632 -0.5372
    7GLY     CA  102   3.239   1.252  -0.183  0.3204  0.3928  0.0849
    7GLY    HA1  103   3.132   1.259  -0.198 -0.0341 -2.4088  0.7814
    7GLY    HA2  104   3.288   1.273  -0.278  1.2461 -1.0658  0.2160
    7GLY      C  105   3.264   1.111  -0.146 -0.5881  0.7378 -0.5883
    7GLY      O  106   3.266   1.027  -0.235 -0.1967 -0.0292  0.6692
    8THR      N  107   3.282   1.080  -0.015 -0.0697  0.2104  0.9376
    8THR     HN  108   3.260   1.145   0.057 -1.1145  1.8106 -0.7370
    8THR     CA  109   3.310   0.940   0.024  0.0086 -0.4798 -0.4369
    8THR     HA  110   3.241   0.871  -0.022  1.5856 -1.7801 -0.9590
    8THR     CB  111   3.447   0.900  -0.013 -0.2982 -0.1795 -0.1855
    8THR     HB  112   3.452   0.924  -0.121 -0.7798  1.0047  0.0339
    8THR    OG1  113   3.471   0.763   0.014  0.0618 -0.3603 -0.2952
    8THR    HG1  114   3.514   0.727  -0.063  0.1691 -2.4548  0.6741
    8THR    CG2  115   3.556   0.986   0.057 -0.1232 -0.5071 -0.2884
    8THR   HG21  116   3.546   1.091   0.025  0.9276 -0.7278 -1.4242
    8THR   HG22  117   3.550   0.987   0.168 -1.2828  1.5805 -0.3309
    8THR   HG23  118   3.659   0.967   0.022  0.3389 -0.8629  1.1856
    8THR      C  119   3.294   0.934   0.178  0.4283 -0.8387  0.2658
    8THR      O  120   3.297   1.036   0.240  0.6620  0.2736  0.2590
    9TRP      N  121   3.285   0.818   0.234  0.3877 -0.8512 -0.9632
    9TRP     HN  122   3.308   0.734   0.187 -2.4470 -1.4463 -1.4423
    9TRP     CA  123   3.239   0.785   0.364  0.0056 -0.6440  0.8107
    9TRP     HA  124   3.155   0.849   0.385 -0.0816  0.9397 -3.2978
    9TRP     CB  125   3.203   0.639   0.368  0.0041  0.1585  0.5637
    9TRP    HB1  126   3.286   0.565   0.360 -1.3579 -2.2366  5.1508
    9TRP    HB2  127   3.153   0.627   0.466  0.3376 -1.7733  0.5370
    9TRP     CG  128   3.093   0.593   0.264 -0.1486 -0.2212 -0.0453
    9TRP    CD1  129   2.955   0.601   0.269  0.1692  0.1797 -0.0716
    9TRP    HD1  130   2.902   0.626   0.360  0.3641 -3.5198  1.2278
    9TRP    NE1  131   2.903   0.562   0.148  0.3336 -0.1635  0.9857
    9TRP    HE1  132   2.811   0.537   0.125  0.8954 -1.9575  0.4723
    9TRP    CE2  133   3.002   0.540   0.053 -0.1200 -0.6366 -0.1725
    9TRP    CD2  134   3.123   0.563   0.123  0.2429  0.3046 -0.2787
    9TRP    CE3  135   3.242   0.551   0.051  0.4295  0.1506  0.1561
    9TRP    HE3  136   3.342   0.562   0.092 -1.0146  0.8007  3.8899
    9TRP    CZ3  137   3.235   0.521  -0.085 -0.0113 -0.5042 -0.2052
    9TRP    HZ3  138   3.325   0.515  -0.144 -0.6866 -0.7583 -1.2311
    9TRP    CZ2  139   2.999   0.502  -0.079 -0.3495  0.5865 -0.2778
    9TRP    HZ2  140   2.909   0.472  -0.129 -1.2022 -0.5438  1.8211
    9TRP    CH2  141   3.117   0.501  -0.152 -0.2481  0.9359  0.3266
    9TRP    HH2  142   3.118   0.481  -0.258  1.1716 -1.0058  0.6631
    9TRP      C  143   3.344   0.806   0.471  0.7739 -0.5151  0.0968
    9TRP      O  144   3.325   0.782   0.590  0.0574  0.3296  0.2217
   10TYR      N  145   3.467   0.844   0.431 -0.2024  0.1342 -0.3706
   10TYR     HN  146   3.496   0.871   0.339 -0.7921  0.7492 -0.3807
   10TYR     CA  147   3.586   0.811   0.505  0.2026 -0.0170 -0.6982
   10TYR     HA  148   3.564   0.768   0.602 -0.8233  1.0803 -0.4261
   10TYR     CB  149   3.680   0.714   0.426  0.2945 -0.1500 -0.1182
   10TYR    HB1  150   3.733   0.761   0.340  0.6362  0.5372  0.4606
   10TYR    HB2  151   3.758   0.689   0.500  0.5168  1.9792  0.4447
   10TYR     CG  152   3.607   0.584   0.395 -0.6561 -0.7904  0.2421
   10TYR    CD1  153   3.574   0.558   0.265  0.8288  0.2224  0.2140
   10TYR    HD1  154   3.590   0.626   0.183 -1.3022  0.1509 -0.3096
   10TYR    CE1  155   3.501   0.443   0.241 -0.9081 -0.4239  0.2863
   10TYR    HE1  156   3.465   0.422   0.141 -3.0135  2.9390  0.2003
   10TYR     CZ  157   3.479   0.348   0.336  0.0952  0.1615  0.0786
   10TYR     OH  158   3.422   0.220   0.303  0.2278 -0.1813  0.2302
   10TYR     HH  159   3.404   0.172   0.384 -1.5614 -1.7741 -1.0179
   10TYR    CD2  160   3.580   0.494   0.496  0.1335 -0.2735  0.3560
   10TYR    HD2  161   3.609   0.515   0.598  2.3300 -1.1837 -0.0266
   10TYR    CE2  162   3.525   0.370   0.468  0.3248 -0.2959  0.4546
   10TYR    HE2  163   3.512   0.299   0.548  0.6161 -2.5042 -1.3380
   10TYR      C  164   3.660   0.941   0.533  0.5439  0.1103 -0.2990
   10TYR    OT1  165   3.714   0.965   0.641  0.4584  0.4177  0.7213
   10TYR    OT2  166   3.662   1.033   0.442  0.1994  0.5609  0.1856
   11SOL     OW  167   2.866   3.869   0.459  0.3680  0.0082 -0.0791
   11SOL    HW1  168   2.862   3.956   0.418  4.4473  1.5836  2.2231
   11SOL    HW2  169   2.832   3.883   0.548  1.4263 -0.5919  0.4375
   12SOL     OW  170   2.627   3.484   2.771  0.5592  0.0876 -0.0096
   12SOL    HW1  171   2.649   3.403   2.725  0.6165  1.0427 -1.7409
   12SOL    HW2  172   2.586   3.538   2.705  2.6885  2.4282  0.4361
   13SOL     OW  173   1.177   2.731   2.142 -0.4074 -0.2249 -0.0787
   13SOL    HW1  174   1.185   2.661   2.077 -2.3742 -0.6136  0.0382
   13SOL    HW2  175   1.083   2.745   2.150 -0.1390  3.6365 -1.3903
   14SOL     OW  176   2.693   2.074   2.859 -0.3428  0.0645 -0.1625
   14SOL    HW1  177   2.647   2.110   2.783 -0.5337  2.0271  0.8271
   14SOL    HW2  178   2.625   2.063   2.926 -0.1665 -1.5822 -0.2041
   15SOL     OW  179   0.011   3.733   1.279  0.1559  0.0048 -0.0693
   15SOL    HW1  180   0.030   3.820   1.314  1.0090 -0.1131 -0.2107
   15SOL    HW2  181   0.082   3.678   1.311  0.6092 -0.2462 -1.4346
   16SOL     OW  182   2.114   3.659   0.555  0.7838 -0.3801 -0.4132
   16SOL    HW1  183   2.168   3.607   0.614 -1.4451  0.0311  2.2082
   16SOL    HW2  184   2.074   3.595   0.496  1.1052 -1.1243  0.1610
   17SOL     OW  185   2.635   0.726   2.494  0.2409  0.2135  0.2457
   17SOL    HW1  186   2.592   0.790   2.438 -0.7404  0.0449  0.7727
   17SOL    HW2  187   2.724   0.758   2.504  0.1673  0.7315 -0.6459
   18SOL     OW  188   0.064   2.266   1.883 -0.0920  0.3327  0.0579
   18SOL    HW1  189   0.069   2.329   1.955  0.8241  0.1461  0.1750
   18SOL    HW2  190   0.082   2.318   1.805 -0.3302  0.4005  0.0498
   19SOL     OW  191   0.282   3.432   1.965 -0.0109  0.6347  0.8561
   19SOL    HW1  192   0.262   3.484   2.042  2.3316  1.9913  0.6177
   19SOL    HW2  193   0.364   3.467   1.932  0.3071 -1.5096 -0.8770
   20SOL     OW  194   3.819   1.835   0.422 -0.1378 -0.2182 -0.1810
   20SOL    HW1  195   3.728   1.864   0.434 -0.3764 -1.0959  0.2677
   20SOL    HW2  196   3.843   1.799   0.507  2.0297  3.5266  1.0374
   21SOL     OW  197   3.780   0.447   2.579  0.9177 -0.3729  0.1792
   21SOL    HW1  198   3.799   0.501   2.655  4.3454  0.3023 -0.9869
   21SOL    HW2  199   3.723   0.502   2.525  2.7694  1.4045 -0.1004
   22SOL     OW  200   1.291   0.907   1.871  0.0366 -0.1817  0.3509
   22SOL    HW1  201   1.241   0.893   1.791  0.7961  0.0897 -0.1897
   22SOL    HW2  202   1.373   0.946   1.841 -1.6333  5.1054  1.5493
   23SOL     OW  203   3.131   2.923   0.620  0.1062 -0.4956 -0.1930
   23SOL    HW1  204   3.178   2.877   0.550  0.7481 -1.7513  1.0152
   23SOL    HW2  205   3.198   2.940   0.686 -0.4576  0.8262  0.0625
   24SOL     OW  206   2.862   2.980   0.891 -0.5597 -0.2269 -0.8541
   24SOL    HW1  207   2.899   2.941   0.812 -0.3889  0.6093 -1.1994
   24SOL    HW2  208   2.790   3.035   0.859 -0.7406 -0.1891 -0.3924
   25SOL     OW  209   1.612   0.346   3.605  1.0444 -0.0950 -0.4502
   25SOL    HW1  210   1.528   0.302   3.597  1.0391 -0.6408  1.8544
   25SOL    HW2  211   1.676   0.275   3.608  1.3154  0.1677  0.3583
   26SOL     OW  212   2.467   0.970   3.855  0.0741  0.5515 -0.3689
   26SOL    HW1  213   2.491   0.891   3.904 -0.1143  1.0237  0.5040
   26SOL    HW2  214   2.416   0.937   3.781  2.2169 -0.3720 -1.5434
   27SOL     OW  215   2.860   2.646   2.177  0.0998 -0.1829  0.3376
   27SOL    HW1  216   2.776   2.664   2.136  1.0538 -0.0986 -1.6895
   27SOL    HW2  217   2.856   2.553   2.199 -0.2632 -0.3448 -0.3927
   28SOL     OW  218   2.014   1.498   0.659 -0.4868  0.6775 -1.0850
   28SOL    HW1  219   2.049   1.454   0.736 -1.3731  2.3162  0.3399
   28SOL    HW2  220   2.062   1.460   0.586  0.6506 -0.6888  0.2876
   29SOL     OW  221   3.408   1.533   2.130 -0.2165 -0.0320 -0.0743
   29SOL    HW1  222   3.322   1.576   2.128 -0.3189 -0.2601 -1.3455
   29SOL    HW2  223   3.446   1.560   2.214 -0.6018  1.9000 -0.4580
   30SOL     OW  224   3.361   0.917   2.102 -0.1214 -0.5155  0.2254
   30SOL    HW1  225   3.375   0.927   2.197 -1.0453  1.3253  0.2037
   30SOL    HW2  226   3.353   0.822   2.090  0.2859 -0.8132  1.9525
   31SOL     OW  227   0.659   0.159   0.389 -0.1368  0.3470  0.1863
   31SOL    HW1  228   0.625   0.215   0.320  0.0531 -0.7845 -0.8699
   31SOL    HW2  229   0.685   0.219   0.459 -3.7074  1.3058  0.8409
   32SOL     OW  230   2.102   3.838   1.763  0.2654  0.0904  0.4153
   32SOL    HW1  231   2.146   3.804   1.685 -3.7725  0.3855 -2.3084
   32SOL    HW2  232   2.066   3.760   1.806 -1.6276  0.1499 -0.9219
   33SOL     OW  233   0.567   1.813   3.720  0.0875  0.3366 -0.1729
   33SOL    HW1  234   0.655   1.846   3.740 -0.4342  0.9862  1.1426
   33SOL    HW2  235   0.513   1.843   3.793 -1.1278 -0.5070 -0.7005
   34SOL     OW  236   0.441   3.853   3.183  0.2805 -0.8270  0.2218
   34SOL    HW1  237   0.381   3.788   3.220  1.5336 -1.5986  0.9460
   34SOL    HW2  238   0.527   3.813   3.191  0.9625  0.5071 -0.2850
   35SOL     OW  239   0.053   1.098   3.675  0.3875  0.1144 -0.1529
   35SOL    HW1  240   0.010   1.180   3.654  0.6316  0.3364  0.2094
   35SOL    HW2  241   0.036   1.085   3.768  2.6657  1.1687  0.4819
   36SOL     OW  242   2.644   3.456   1.049 -0.5785 -0.0051 -0.3846
   36SOL    HW1  243   2.559   3.483   1.084 -0.7882  1.0085 -1.6175
   36SOL    HW2  244   2.657   3.511   0.973  1.5607  0.3873  0.2079
   37SOL     OW  245   3.549   2.901   1.304 -0.5409  0.5141 -0.1335
   37SOL    HW1  246   3.458   2.873   1.301 -0.2284 -0.4706 -1.1304
   37SOL    HW2  247   3.599   2.820   1.293  0.5626  0.4274  3.8368
   38SOL     OW  248   0.977   2.947   1.069 -0.4131 -0.2103  0.4878
   38SOL    HW1  249   0.942   2.929   0.982 -0.9757  1.0220  0.4224
   38SOL    HW2  250   1.026   3.029   1.058 -0.5858  0.0169  1.3452
   39SOL     OW  251   2.849   3.260   3.344 -0.6649 -0.1958  0.0295
   39SOL    HW1  252   2.773   3.209   3.371 -1.5574  0.8216 -0.4979
   39SOL    HW2  253   2.824   3.300   3.261  1.1082 -1.2256 -1.0815
   40SOL     OW  254   2.144   1.397   1.232  0.1574  0.1199  0.3259
   40SOL    HW1  255   2.144   1.372   1.325 -0.6567  1.4023  0.6965
   40SOL    HW2  256   2.082   1.337   1.192 -1.2483  1.0317  1.0695
   41SOL     OW  257   2.005   3.820   0.713 -0.2173 -0.4714  0.0215
   41SOL    HW1  258   2.051   3.765   0.649 -0.3585  3.1076 -3.5725
   41SOL    HW2  259   1.919   3.833   0.675 -1.0368  0.2861  2.0139
   42SOL     OW  260   1.579   0.919   3.184  0.2806 -0.2851 -0.3210
   42SOL    HW1  261   1.625   0.996   3.151 -0.0889 -0.4328 -1.2255
   42SOL    HW2  262   1.488   0.932   3.155 -0.3526  0.1833  1.7282
   43SOL     OW  263   3.439   0.176   3.805 -0.2734 -0.6457  0.2218
   43SOL    HW1  264   3.525   0.144   3.831  0.1090 -0.6476 -0.9664
   43SOL    HW2  265   3.392   0.099   3.775  0.5210 -0.2565 -2.2928
   44SOL     OW  266   3.929   2.074   1.168 -0.2532  0.2515  0.3178
   44SOL    HW1  267   3.977   2.119   1.099 -0.2792  0.2367  0.2894
   44SOL    HW2  268   3.989   2.006   1.199 -1.1471 -1.5224 -1.5226
   45SOL     OW  269   1.455   2.749   2.222  0.0213 -0.1878 -0.1948
   45SOL    HW1  270   1.499   2.670   2.191 -1.8653 -0.8199 -1.3918
   45SOL    HW2  271   1.365   2.740   2.193 -0.8320  1.2945  1.7474
   46SOL     OW  272   0.069   1.282   2.232 -0.2829  0.5357 -0.2150
   46SOL    HW1  273   0.046   1.269   2.140 -1.1612  1.7114 -0.1819
   46SOL    HW2  274  -0.010   1.259   2.280  0.2721 -0.3967  0.3005
   47SOL     OW  275   0.487   3.284   2.632  0.0464 -0.1308 -0.0173
   47SOL    HW1  276   0.558   3.229   2.599  1.1632  0.1297  1.8199
   47SOL    HW2  277   0.519   3.374   2.620 -0.2269  0.0029  0.2439
   48SOL     OW  278   1.424   2.953   3.390 -0.1321 -0.9000 -0.0077
   48SOL    HW1  279   1.391   2.982   3.475  0.6138  2.2425 -0.6398
   48SOL    HW2  280   1.488   2.885   3.411  0.6480  0.3658  2.0686
   49SOL     OW  281   1.893   3.582   3.915  0.4477  0.1306  0.4630
   49SOL    HW1  282   1.958   3.585   3.985  1.4820  0.9105 -0.5067
   49SOL    HW2  283   1.916   3.654   3.857 -2.7827  2.0672  1.3307
   50SOL     OW  284   2.044   2.697   2.683 -0.3447 -0.5415 -0.7234
   50SOL    HW1  285   2.027   2.670   2.593  0.1979 -2.1151 -0.3946
   50SOL    HW2  286   2.087   2.621   2.723 -0.5092  0.1474  0.8446
   51SOL     OW  287   1.195   1.662   0.247  0.1416  0.0087  0.4338
   51SOL    HW1  288   1.236   1.748   0.255 -0.1326  0.1828  0.0248
   51SOL    HW2  289   1.121   1.665   0.308  1.2535 -0.6436  1.8902
   52SOL     OW  290   1.831   0.319   2.034 -0.1629 -0.5480  0.3177
   52SOL    HW1  291   1.736   0.317   2.043 -0.3781 -0.7538 -1.5982
   52SOL    HW2  292   1.853   0.412   2.036 -0.6765 -0.3676 -1.3719
   53SOL     OW  293   0.254   3.926   1.020  0.0457 -0.0679 -0.2132
   53SOL    HW1  294   0.287   3.939   1.109  0.3235 -0.6488 -0.2292
   53SOL    HW2  295   0.226   3.835   1.017 -2.1994  0.5591 -0.0129
   54SOL     OW  296   2.589   3.672   3.450  0.1685  0.3050  0.0232
   54SOL    HW1  297   2.595   3.637   3.539 -1.8070  0.5651  0.3045
   54SOL    HW2  298   2.550   3.602   3.399  1.3138  0.1508 -0.6791
   55SOL     OW  299   1.260   0.467   1.546  0.3581 -0.3474 -0.4010
   55SOL    HW1  300   1.192   0.451   1.611  0.2487  0.7908 -0.2058
   55SOL    HW2  301   1.284   0.380   1.513  0.2087 -0.9169  0.9448
   56SOL     OW  302   2.121   0.551   1.963  0.3240  0.2518  0.5926
   56SOL    HW1  303   2.160   0.605   1.893  0.6560 -0.0358  0.5513
   56SOL    HW2  304   2.196   0.520   2.013  0.1750 -0.6790  0.2433
   57SOL     OW  305   1.190   3.020   2.062  0.2643 -0.2569 -0.0862
   57SOL    HW1  306   1.202   2.928   2.038 -1.9261 -0.5154 -0.4103
   57SOL    HW2  307   1.115   3.049   2.010 -1.6422  0.5258  2.8327
   58SOL     OW  308   0.797   3.629   0.691 -0.5284  0.4924 -0.0162
   58SOL    HW1  309   0.733   3.565   0.660 -0.6325  0.1618  0.8567
   58SOL    HW2  310   0.744   3.699   0.730 -0.3861  0.7335 -0.2489
   59SOL     OW  311   2.823   0.928   2.613  0.4632 -0.2824 -0.1087
   59SOL    HW1  312   2.874   0.992   2.564 -0.2459 -0.5162 -1.2015
   59SOL    HW2  313   2.880   0.852   2.621  0.9183  0.0885  0.2578
   60SOL     OW  314   2.563   0.517   1.543  0.2409 -0.6991  0.4428
   60SOL    HW1  315   2.547   0.423   1.543  0.4023 -0.7270  0.4813
   60SOL    HW2  316   2.548   0.543   1.452 -1.2254 -0.5097  0.7132
   61SOL     OW  317   3.682   0.104   2.783 -0.7190 -0.5089  0.5830
   61SOL    HW1  318   3.740   0.124   2.856 -0.1793 -2.5319  0.7628
   61SOL    HW2  319   3.611   0.052   2.821 -2.8658  2.0817  0.4083
   62SOL     OW  320   1.108   3.610   3.635  0.7213 -0.7540  0.0712
   62SOL    HW1  321   1.201   3.621   3.615  0.3506  0.2237 -1.3265
   62SOL    HW2  322   1.074   3.700   3.639 -0.3846 -1.1195 -0.7140
   63SOL     OW  323   0.986   3.576   2.809  0.0122  0.3001  0.1891
   63SOL    HW1  324   0.905   3.534   2.838  0.9853  1.4882  5.8035
   63SOL    HW2  325   1.048   3.504   2.800  0.0488 -0.2096  3.3596
   64SOL     OW  326   0.475   2.281   0.323  0.1132  0.5036 -0.1330
   64SOL    HW1  327   0.554   2.324   0.291  0.7092 -0.7227 -0.4011
   64SOL    HW2  328   0.472   2.198   0.275 -2.5055  1.3915 -1.7325
   65SOL     OW  329   0.777   3.597   2.049 -0.0437  0.4419  0.3277
   65SOL    HW1  330   0.737   3.559   2.127  1.1627 -0.5039  0.5086
   65SOL    HW2  331   0.849   3.538   2.028  0.8625  1.7549 -0.3631
   66SOL     OW  332   1.630   0.942   2.041  0.0759 -0.4823  0.7066
   66SOL    HW1  333   1.557   0.972   2.094  0.4400  1.5647  0.1366
   66SOL    HW2  334   1.648   0.853   2.072 -1.2194 -0.2094  2.3482
   67SOL     OW  335   2.480   0.155   2.568  0.5109 -0.3257  0.3381
   67SOL    HW1  336   2.510   0.177   2.656 -0.0230 -0.2044  0.4943
   67SOL    HW2  337   2.520   0.220   2.511  1.6851 -1.0173  0.3536
   68SOL     OW  338   2.256   3.064   2.228 -0.0270  0.2714  0.1763
   68SOL    HW1  339   2.167   3.068   2.265 -1.5239 -1.4258 -2.8467
   68SOL    HW2  340   2.259   2.980   2.183  3.6943 -0.3413  1.2726
   69SOL     OW  341   1.372   1.856   1.972 -0.4323  0.4488  0.1276
   69SOL    HW1  342   1.456   1.827   2.006 -0.7365 -1.0976 -0.3480
   69SOL    HW2  343   1.373   1.831   1.880 -1.1354  1.0504 -0.0553
   70SOL     OW  344   0.483   2.378   1.806 -0.5862  0.0703 -0.0132
   70SOL    HW1  345   0.571   2.342   1.806 -0.6478 -0.2490 -2.3049
   70SOL    HW2  346   0.454   2.370   1.715 -2.7375  0.7588  0.5501
   71SOL     OW  347   2.232   0.726   2.242  0.0190 -0.2049 -0.2707
   71SOL    HW1  348   2.325   0.747   2.233  0.1857 -0.7191  0.1769
   71SOL    HW2  349   2.192   0.755   2.160  0.7513 -0.9016 -0.8858
   72SOL     OW  350   2.111   0.827   2.022  0.3029 -0.7554 -0.1130
   72SOL    HW1  351   2.175   0.827   1.952 -0.4164  2.7571 -0.9437
   72SOL    HW2  352   2.026   0.836   1.977 -0.1812  1.4197  1.0725
   73SOL     OW  353   1.163   1.144   3.003 -0.5612 -0.5141 -0.7411
   73SOL    HW1  354   1.109   1.105   3.071 -1.3701  0.3520 -0.8723
   73SOL    HW2  355   1.234   1.080   2.989 -1.0768 -1.2722  0.0177
   74SOL     OW  356   0.429   1.205   0.793  0.0932  0.2681 -0.3097
   74SOL    HW1  357   0.347   1.238   0.829  0.6741  1.6297 -0.1597
   74SOL    HW2  358   0.495   1.229   0.858  0.4565 -2.1416  0.3150
   75SOL     OW  359   0.926   3.353   0.804  0.2878 -0.2144  0.7884
   75SOL    HW1  360   0.881   3.317   0.727  1.0248 -0.2478  0.3681
   75SOL    HW2  361   0.946   3.443   0.780 -0.2129  0.0320  1.2651
   76SOL     OW  362   0.743   1.065   3.454 -0.2655 -0.1462 -0.4766
   76SOL    HW1  363   0.675   1.132   3.445 -2.2776 -2.0437 -0.2098
   76SOL    HW2  364   0.716   0.996   3.394  0.7713 -1.4637  0.5239
   77SOL     OW  365   1.083   1.285   3.316 -0.5986  0.2527  0.0938
   77SOL    HW1  366   1.089   1.248   3.228 -0.5125  1.6152 -0.5021
   77SOL    HW2  367   1.125   1.220   3.372 -0.9151 -0.7754 -0.8164
   78SOL     OW  368   1.821   1.734   3.810 -0.2285 -0.2168 -0.5002
   78SOL    HW1  369   1.752   1.669   3.821 -0.8243  0.4461 -0.2587
   78SOL    HW2  370   1.824   1.781   3.893  0.0517  0.1988 -0.7393
   79SOL     OW  371   3.332   2.273   2.615 -0.1849  0.5645 -0.0495
   79SOL    HW1  372   3.425   2.297   2.610 -0.2352  0.6940 -0.3509
   79SOL    HW2  373   3.318   2.253   2.708  0.1748  0.4267 -0.0215
   80SOL     OW  374   1.564   1.578   0.480  0.9109  0.6533 -0.4694
   80SOL    HW1  375   1.579   1.511   0.413 -1.6626 -0.3377 -0.1466
   80SOL    HW2  376   1.551   1.528   0.561 -1.1160  1.4888 -0.2263
   81SOL     OW  377   2.882   2.113   1.033 -0.4120 -0.7368  0.3293
   81SOL    HW1  378   2.951   2.102   1.097  1.3984 -0.8950 -1.5319
   81SOL    HW2  379   2.874   2.028   0.991  0.2476 -0.0517 -1.3061
   82SOL     OW  380   0.188   0.707   3.017 -0.3696  0.4262  0.0626
   82SOL    HW1  381   0.258   0.650   2.983  1.0731  1.0589  1.7833
   82SOL    HW2  382   0.208   0.793   2.981  1.2147  1.1169  2.3980
   83SOL     OW  383   1.517   0.707   3.771 -0.3233 -0.2491 -0.5542
   83SOL    HW1  384   1.521   0.792   3.815 -0.7857 -0.1915 -0.6136
   83SOL    HW2  385   1.514   0.728   3.678 -1.2855 -0.2845 -0.5465
   84SOL     OW  386   0.959   1.793   1.160  0.1019 -0.2193 -0.1436
   84SOL    HW1  387   1.042   1.750   1.183  0.8376  0.8071 -0.8038
   84SOL    HW2  388   0.985   1.877   1.123 -1.2465  0.0980 -0.4172
   85SOL     OW  389   3.206   2.415   1.090  0.4665  0.2552 -0.3677
   85SOL    HW1  390   3.212   2.494   1.037 -2.0895  2.5319  2.3672
   85SOL    HW2  391   3.212   2.447   1.180 -0.3930 -2.7208  0.8569
   86SOL     OW  392   2.778   3.880   2.132  0.2257 -0.2668  0.9910
   86SOL    HW1  393   2.825   3.806   2.094  2.5149  0.8998  1.3180
   86SOL    HW2  394   2.692   3.878   2.091  1.1744 -1.4808 -1.1275
   87SOL     OW  395   1.916   2.290   1.537 -0.5317  0.5835  0.4574
   87SOL    HW1  396   1.902   2.363   1.476  0.0848  1.7153  1.6228
   87SOL    HW2  397   1.995   2.248   1.506 -0.2402  1.1340  0.4400
   88SOL     OW  398   0.542   2.046   1.773  0.2683 -0.0938 -0.5889
   88SOL    HW1  399   0.616   1.998   1.735  0.2788  0.2749 -1.0410
   88SOL    HW2  400   0.518   2.110   1.707 -0.8107 -0.5658 -0.6759
   89SOL     OW  401   0.782   3.612   1.255 -0.0055 -0.7236  0.1488
   89SOL    HW1  402   0.846   3.649   1.315 -1.4545  2.8323 -0.2572
   89SOL    HW2  403   0.702   3.662   1.271 -1.4622 -2.0539 -2.2955
   90SOL     OW  404   2.961   2.977   1.725 -0.2167  0.2096 -0.5229
   90SOL    HW1  405   2.867   2.985   1.710 -0.5669  1.8766  1.9339
   90SOL    HW2  406   2.989   3.067   1.743  1.3817 -0.5715  1.1014
   91SOL     OW  407   2.226   0.560   3.421  0.1091 -0.0212  0.6030
   91SOL    HW1  408   2.276   0.620   3.365  0.5782 -1.1583 -0.2395
   91SOL    HW2  409   2.194   0.492   3.362 -0.7470 -0.4097  1.4674
   92SOL     OW  410   2.652   3.546   1.923 -0.2117 -0.0629  0.2294
   92SOL    HW1  411   2.559   3.522   1.919 -0.7689  1.8643  0.3863
   92SOL    HW2  412   2.658   3.607   1.996  0.7154  1.5454 -1.0961
   93SOL     OW  413   3.020   1.577   3.161  0.2094 -0.5701  0.5070
   93SOL    HW1  414   3.099   1.629   3.174 -0.3380  0.4386 -0.0869
   93SOL    HW2  415   3.022   1.552   3.069 -1.4562  1.7537 -0.2636
   94SOL     OW  416   3.108   1.984   0.810 -0.0972 -0.0576 -0.0605
   94SOL    HW1  417   3.142   2.048   0.873  2.7753 -0.5424 -0.9275
   94SOL    HW2  418   3.117   2.028   0.725  2.2588 -1.6145 -0.7033
   95SOL     OW  419   2.705   1.184   1.702  0.0766 -0.3823  0.2537
   95SOL    HW1  420   2.753   1.229   1.633  1.5696 -1.1274  0.7646
   95SOL    HW2  421   2.700   1.247   1.774  0.9702 -0.5571  0.4728
   96SOL     OW  422   3.639   2.930   3.933 -1.0854 -0.2562 -0.1701
   96SOL    HW1  423   3.568   2.994   3.941  0.5959  1.5662  1.0279
   96SOL    HW2  424   3.675   2.924   4.022 -1.3218 -3.1282 -0.1772
   97SOL     OW  425   1.994   2.679   0.723  0.3748 -0.0685  0.5163
   97SOL    HW1  426   1.914   2.679   0.671 -0.2607  2.4924  1.3861
   97SOL    HW2  427   2.062   2.654   0.661 -0.8207 -0.4909 -0.6826
   98SOL     OW  428   2.769   1.849   2.210  0.0055  0.4824  0.5277
   98SOL    HW1  429   2.726   1.764   2.201 -0.8120  0.8149  1.1223
   98SOL    HW2  430   2.709   1.910   2.166  1.6460  0.4838 -1.8872
   99SOL     OW  431   0.344   1.237   0.550  0.7464  0.0199  0.3029
   99SOL    HW1  432   0.418   1.290   0.522 -0.1744  0.6165 -1.1537
   99SOL    HW2  433   0.365   1.210   0.639  1.9328  1.5670  0.5164
  100SOL     OW  434   0.923   3.054   0.535  0.4705 -0.4238  0.0851
  100SOL    HW1  435   0.992   3.101   0.488  1.2326  3.0037  4.0150
  100SOL    HW2  436   0.844   3.105   0.521  0.0714 -0.9931  0.2164
  101SOL     OW  437   0.607   0.197   3.004 -0.4534  0.2716 -0.6646
  101SOL    HW1  438   0.642   0.243   2.928 -1.1540 -0.5630 -1.5139
  101SOL    HW2  439   0.518   0.232   3.014 -0.7212 -0.3432 -0.8517
  102SOL     OW  440   3.818   2.440   0.792  0.0335 -0.3465  0.8726
  102SOL    HW1  441   3.835   2.391   0.712  1.8797  2.5666 -0.7032
  102SOL    HW2  442   3.724   2.433   0.805 -0.2721 -1.1998 -1.3809
  103SOL     OW  443   3.344   0.250   1.542 -0.3671  0.1009  0.2055
  103SOL    HW1  444   3.274   0.268   1.605  0.4831  0.7233  1.0121
  103SOL    HW2  445   3.314   0.174   1.493 -1.5491  0.2847  0.6132
  104SOL     OW  446   1.715   0.625   3.949 -0.0703  0.2053  0.0487
  104SOL    HW1  447   1.779   0.695   3.938  0.4398 -0.4507 -1.5212
  104SOL    HW2  448   1.666   0.625   3.867 -0.9522 -0.4055  0.5640
  105SOL     OW  449   1.807   3.374   2.823 -0.5452 -0.3799 -0.4583
  105SOL    HW1  450   1.761   3.441   2.772  1.3487  0.6862 -0.8603
  105SOL    HW2  451   1.851   3.423   2.892  0.5000 -1.2561 -0.4729
  106SOL     OW  452   1.351   1.358   3.140  0.4885  0.3723 -0.4801
  106SOL    HW1  453   1.393   1.338   3.224 -0.8114  0.8638  0.3062
  106SOL    HW2  454   1.308   1.276   3.115  1.3233  0.0617 -0.9685
  107SOL     OW  455   1.125   1.021   2.635  0.4122  0.5661  0.5061
  107SOL    HW1  456   1.100   1.073   2.558  0.7741  0.9739  0.6599
  107SOL    HW2  457   1.160   0.940   2.599  0.3683  0.6618  0.2463
  108SOL     OW  458   2.244   2.003   2.992  0.4629  0.0321 -0.2730
  108SOL    HW1  459   2.190   1.945   3.047  0.1243  1.2799  0.7608
  108SOL    HW2  460   2.331   1.965   2.995 -0.0275 -1.1896 -0.7543
  109SOL     OW  461   2.082   1.167   1.111  0.4268 -0.5681 -0.8674
  109SOL    HW1  462   1.994   1.170   1.149 -0.1751 -0.3735 -2.2300
  109SOL    HW2  463   2.071   1.119   1.029  1.4916 -0.0700 -1.3147
  110SOL     OW  464   2.017   0.279   0.087 -0.3211 -0.0384  0.6444
  110SOL    HW1  465   2.040   0.317   0.002 -1.2628 -0.1333  0.3284
  110SOL    HW2  466   1.949   0.337   0.121 -1.3876 -1.0970  0.4030
  111SOL     OW  467   1.234   3.427   1.089 -0.5042  0.1417  0.0227
  111SOL    HW1  468   1.182   3.380   1.022  2.0947 -0.1733 -1.9270
  111SOL    HW2  469   1.252   3.361   1.155  0.5485 -0.8509 -1.1939
  112SOL     OW  470   3.333   3.624   3.745  0.2099  0.2592 -0.8249
  112SOL    HW1  471   3.307   3.566   3.673  0.7318 -1.1898  0.1118
  112SOL    HW2  472   3.278   3.596   3.819  2.0480 -0.6442  0.2770
  113SOL     OW  473   3.032   1.245   1.326  0.3024 -0.5394  0.1520
  113SOL    HW1  474   3.119   1.225   1.292  0.7063 -3.5295  2.5191
  113SOL    HW2  475   2.992   1.299   1.258  3.1909 -0.9044 -2.0438
  114SOL     OW  476   2.098   1.670   0.886 -0.5294  0.1450  0.2777
  114SOL    HW1  477   2.020   1.724   0.898 -1.5642 -1.0029 -0.9339
  114SOL    HW2  478   2.077   1.587   0.930  0.1293 -0.0548  0.2189
  115SOL     OW  479   0.249   3.605   1.350 -0.0727 -0.3015 -0.1620
  115SOL    HW1  480   0.274   3.571   1.264 -0.2721 -1.8691  0.3838
  115SOL    HW2  481   0.249   3.529   1.407 -0.0048  0.7090  1.2329
  116SOL     OW  482   2.583   0.322   2.372 -0.4000  0.5607 -0.1614
  116SOL    HW1  483   2.664   0.303   2.420 -0.4817 -0.8039 -0.5000
  116SOL    HW2  484   2.600   0.403   2.325  0.7252  0.3518 -0.1273
  117SOL     OW  485   2.221   1.139   2.517  0.4542  1.0534 -0.2269
  117SOL    HW1  486   2.188   1.201   2.583 -1.0730  1.3732 -1.2453
  117SOL    HW2  487   2.143   1.106   2.473  1.3120 -0.6984 -0.5484
  118SOL     OW  488   1.050   0.472   1.713  0.1242 -0.4612  0.4343
  118SOL    HW1  489   0.956   0.489   1.719  0.0403  0.1406 -1.7811
  118SOL    HW2  490   1.061   0.386   1.755 -1.5776 -1.0180 -0.1396
  119SOL     OW  491   0.677   0.868   1.720 -0.5430 -0.1373  0.0405
  119SOL    HW1  492   0.610   0.830   1.662 -0.7907 -0.8815  0.8049
  119SOL    HW2  493   0.673   0.815   1.800  0.4817  0.2540  0.3663
  120SOL     OW  494   2.368   0.295   1.465  0.0251  0.3435 -0.6126
  120SOL    HW1  495   2.420   0.215   1.457  0.4485  0.6959 -1.6519
  120SOL    HW2  496   2.339   0.296   1.556  0.8148 -0.4965 -0.3298
  121SOL     OW  497   3.029   1.240   2.349 -0.0183  0.3955  0.1260
  121SOL    HW1  498   2.984   1.227   2.432  0.4797  1.2333  0.5422
  121SOL    HW2  499   3.120   1.258   2.373  0.8737 -2.4102 -0.7419
  122SOL     OW  500   0.110   1.910   0.492  0.2395  0.0555 -0.2016
  122SOL    HW1  501   0.137   1.973   0.425 -3.2526  0.1589 -1.7337
  122SOL    HW2  502   0.022   1.883   0.465 -0.2763 -1.9213  2.9847
  123SOL     OW  503   0.731   3.241   2.239 -0.2131  0.2693 -0.2286
  123SOL    HW1  504   0.742   3.290   2.321  0.4294 -1.3362  0.7006
  123SOL    HW2  505   0.813   3.193   2.228 -1.3667 -1.8564 -0.1848
  124SOL     OW  506   0.009   2.081   2.078 -0.0520  0.0142  0.3654
  124SOL    HW1  507  -0.058   2.030   2.032  0.9075 -0.5635 -0.4478
  124SOL    HW2  508   0.017   2.162   2.028 -2.3934  1.5661  2.3114
  125SOL     OW  509   0.528   2.186   1.074 -0.2369  0.0999 -0.0624
  125SOL    HW1  510   0.513   2.278   1.052 -2.4853  0.2079  1.5925
  125SOL    HW2  511   0.600   2.188   1.137 -0.2402  0.7307 -0.0744
  126SOL     OW  512   0.461   2.458   1.526 -0.4641  0.6490 -0.0569
  126SOL    HW1  513   0.438   2.405   1.449 -0.5752 -0.3628  0.6449
  126SOL    HW2  514   0.540   2.504   1.500  0.0399 -0.4036 -0.4803
  127SOL     OW  515   0.169   1.336   1.124 -0.4432  0.2054 -0.1236
  127SOL    HW1  516   0.170   1.356   1.030 -1.5160 -0.1457 -0.2310
  127SOL    HW2  517   0.109   1.261   1.131  1.6175 -1.4706  0.5430
  128SOL     OW  518   1.018   3.356   3.710  0.6585 -0.1795 -0.0135
  128SOL    HW1  519   1.010   3.450   3.695 -1.7386  0.6694  4.5345
  128SOL    HW2  520   0.933   3.331   3.747  1.9740 -3.6450  1.0696
  129SOL     OW  521   2.517   0.656   1.303 -0.3511  0.5053  0.2413
  129SOL    HW1  522   2.450   0.697   1.247  0.4706 -1.7578 -2.6749
  129SOL    HW2  523   2.570   0.730   1.332 -1.9329  2.0018 -0.4008
  130SOL     OW  524   3.369   1.021   1.858  0.1244  0.5055  0.2702
  130SOL    HW1  525   3.414   0.940   1.835  2.3001  1.8604 -0.5428
  130SOL    HW2  526   3.358   1.016   1.953 -1.3859 -1.4623  0.0520
  131SOL     OW  527   1.147   3.170   1.693 -0.6630 -0.4666 -0.1680
  131SOL    HW1  528   1.053   3.170   1.707 -0.8408 -0.2362 -1.2955
  131SOL    HW2  529   1.177   3.254   1.728 -1.1086  0.1347 -1.1878
  132SOL     OW  530   3.692   1.596   1.975 -0.1821 -0.0460  0.1357
  132SOL    HW1  531   3.641   1.661   2.023  0.9811  0.7701  0.3058
  132SOL    HW2  532   3.724   1.536   2.042  1.1429  0.8868  0.3641
  133SOL     OW  533   0.094   1.370   0.205 -0.1755  0.6679  0.3996
  133SOL    HW1  534   0.148   1.294   0.186  1.0296  1.4075  0.7647
  133SOL    HW2  535   0.156   1.438   0.231 -1.3929  0.9916  2.7253
  134SOL     OW  536   2.841   0.129   1.261 -0.2594  0.6769 -0.4869
  134SOL    HW1  537   2.783   0.071   1.311  0.4964 -0.3170 -0.7134
  134SOL    HW2  538   2.834   0.097   1.171 -0.9893  1.9356 -0.9132
  135SOL     OW  539   3.784   3.954   3.874 -0.1351  0.0775 -0.7986
  135SOL    HW1  540   3.725   3.987   3.942  0.8877 -1.4346  0.9363
  135SOL    HW2  541   3.871   3.982   3.901  0.4605 -1.7664 -0.6393
  136SOL     OW  542   1.437   1.812   0.374 -0.6659  0.6435  0.1252
  136SOL    HW1  543   1.480   1.835   0.291 -0.8491 -0.6987 -0.3686
  136SOL    HW2  544   1.490   1.741   0.409 -1.0106  0.7251  0.8194
  137SOL     OW  545   1.503   2.926   0.239  0.3383 -0.0470  0.8604
  137SOL    HW1  546   1.511   3.008   0.190 -0.0423  0.5377  1.7325
  137SOL    HW2  547   1.410   2.921   0.262  0.6743  0.2549  2.3967
  138SOL     OW  548   3.153   1.800   1.561 -0.2363  0.1925 -0.2683
  138SOL    HW1  549   3.065   1.814   1.595 -0.2243 -0.2146 -0.0546
  138SOL    HW2  550   3.139   1.773   1.470 -0.2595  1.4905 -0.6699
  139SOL     OW  551   1.237   0.203   3.308  0.0379  0.5326 -0.0507
  139SOL    HW1  552   1.186   0.261   3.366 -0.2583  2.5392 -2.1582
  139SOL    HW2  553   1.174   0.176   3.241  0.3450 -1.8202  0.5376
  140SOL     OW  554   0.730   3.282   3.714  0.0847  0.3364  0.3652
  140SOL    HW1  555   0.716   3.355   3.653  1.0541 -0.4357 -0.8332
  140SOL    HW2  556   0.646   3.271   3.758  0.0315  2.4599  0.9246
  141SOL     OW  557   1.515   2.141   3.532 -0.2481  0.4692  0.1497
  141SOL    HW1  558   1.533   2.223   3.578  0.1909  0.3968  0.1110
  141SOL    HW2  559   1.507   2.076   3.602  1.5918  0.1293  0.1137
  142SOL     OW  560   3.527   3.485   2.706  0.1259 -0.2996  0.1935
  142SOL    HW1  561   3.596   3.490   2.640 -0.9057 -0.5436 -0.9356
  142SOL    HW2  562   3.460   3.429   2.667 -0.5315 -0.4265  1.4423
  143SOL     OW  563   2.185   0.880   2.680 -0.0006  0.3842 -0.2621
  143SOL    HW1  564   2.164   0.945   2.612  1.0843  0.3970 -0.5986
  143SOL    HW2  565   2.225   0.807   2.632  0.8229  0.4158  0.3601
  144SOL     OW  566   0.001   1.045   0.656  0.0301 -0.0778 -0.1041
  144SOL    HW1  567  -0.092   1.027   0.641 -0.0258 -0.0386  0.1799
  144SOL    HW2  568   0.037   1.062   0.569 -0.1170 -0.6097 -0.2665
  145SOL     OW  569   0.553   0.772   1.445  0.0609  0.4381  0.2290
  145SOL    HW1  570   0.457   0.775   1.444  0.0376 -0.1605 -1.4236
  145SOL    HW2  571   0.580   0.846   1.390  0.5206  0.1124  0.0139
  146SOL     OW  572   0.943   2.315   0.263  0.2954  0.2348 -0.2981
  146SOL    HW1  573   0.996   2.245   0.225  2.1721  1.7588 -0.6565
  146SOL    HW2  574   0.943   2.297   0.357 -1.1575 -1.4291 -0.5617
  147SOL     OW  575   2.342   0.591   3.920  0.4327  0.3637  0.1744
  147SOL    HW1  576   2.286   0.617   3.846  1.7963  0.6663 -0.7902
  147SOL    HW2  577   2.340   0.495   3.919  0.9499  0.3539 -0.6664
  148SOL     OW  578   1.748   2.275   3.011 -0.4334  0.4926 -0.2534
  148SOL    HW1  579   1.805   2.326   2.952 -0.2023  0.7203  0.1617
  148SOL    HW2  580   1.677   2.245   2.955 -0.7726  1.5829 -0.4361
  149SOL     OW  581   0.556   2.632   2.904 -0.0096  0.1351  0.4216
  149SOL    HW1  582   0.590   2.670   2.822  1.6716  0.2408  1.1189
  149SOL    HW2  583   0.600   2.547   2.911 -1.9592 -0.9574  0.0641
  150SOL     OW  584   0.378   0.069   1.536 -0.0827  0.8416 -0.4128
  150SOL    HW1  585   0.314  -0.002   1.535  1.5387 -0.7589  0.6682
  150SOL    HW2  586   0.348   0.127   1.606  0.2242 -0.5351  0.9365
  151SOL     OW  587   1.492   2.855   1.428 -0.1581 -0.1124  0.5159
  151SOL    HW1  588   1.485   2.760   1.433  0.1272 -0.2881 -1.5785
  151SOL    HW2  589   1.442   2.887   1.503 -1.3375 -1.8785  0.5422
  152SOL     OW  590   3.569   3.141   1.401  0.2582  0.0109  0.1323
  152SOL    HW1  591   3.552   3.052   1.371  0.5488 -0.2162  0.6332
  152SOL    HW2  592   3.552   3.196   1.324 -0.0869 -0.4563 -0.1310
  153SOL     OW  593   0.385   3.048   2.763  0.3032 -0.6054 -0.0892
  153SOL    HW1  594   0.463   3.057   2.818  1.8931 -2.7571 -1.8123
  153SOL    HW2  595   0.379   3.132   2.717 -0.2700  0.7229  2.2468
  154SOL     OW  596   1.872   2.246   0.135  0.1871 -0.4109  0.1559
  154SOL    HW1  597   1.950   2.241   0.191 -0.7458 -0.7204  1.4622
  154SOL    HW2  598   1.799   2.257   0.195 -0.8441 -0.5052 -1.0237
  155SOL     OW  599   0.148   1.899   2.721 -0.0415 -0.6449 -0.6380
  155SOL    HW1  600   0.220   1.945   2.764 -0.3742 -2.4566  2.0694
  155SOL    HW2  601   0.190   1.853   2.648  0.9554  0.7384 -0.9803
  156SOL     OW  602   3.860   3.064   3.168  0.0132  0.2731 -0.1307
  156SOL    HW1  603   3.939   3.010   3.163 -0.1304  0.1718 -2.4787
  156SOL    HW2  604   3.834   3.076   3.077 -2.4124  0.7293  0.5586
  157SOL     OW  605   2.058   2.384   3.818 -0.3843  0.5610 -0.5901
  157SOL    HW1  606   2.044   2.378   3.723  0.1829  0.0791 -0.6491
  157SOL    HW2  607   2.013   2.307   3.853 -2.9807  2.1332 -0.1577
  158SOL     OW  608   2.601   3.333   1.734 -0.0617  0.0503 -1.0786
  158SOL    HW1  609   2.510   3.351   1.758  0.7605 -0.3354  2.9992
  158SOL    HW2  610   2.650   3.408   1.768  1.3736 -0.7888 -1.2287
  159SOL     OW  611   2.813   2.281   3.520  0.0812 -0.5280  0.1246
  159SOL    HW1  612   2.893   2.235   3.494  0.0259 -0.6290  0.1321
  159SOL    HW2  613   2.836   2.324   3.603  0.1498 -0.4932  0.0887
  160SOL     OW  614   2.113   2.533   2.109  0.7949  0.3808 -0.2747
  160SOL    HW1  615   2.078   2.601   2.051  0.0324 -0.0619 -0.3616
  160SOL    HW2  616   2.196   2.507   2.068  1.2274  1.4432 -0.0843
  161SOL     OW  617   1.312   2.732   1.065 -0.0820 -0.4924  0.2745
  161SOL    HW1  618   1.232   2.769   1.030  0.6629  0.7139 -0.2197
  161SOL    HW2  619   1.352   2.685   0.992 -0.2645 -0.9765  0.4817
  162SOL     OW  620   1.961   1.506   2.829 -0.2426  0.0727  0.5619
  162SOL    HW1  621   1.898   1.565   2.869 -1.9324 -0.5139 -1.0647
  162SOL    HW2  622   1.990   1.551   2.749 -2.9731 -1.8733 -1.7235
  163SOL     OW  623   3.847   0.953   2.913  0.0120  0.5533  0.3305
  163SOL    HW1  624   3.767   0.907   2.890 -0.2131  1.1303 -0.0815
  163SOL    HW2  625   3.832   1.043   2.883  1.7840  0.1277 -2.1411
  164SOL     OW  626   2.397   3.774   1.764 -0.4513 -0.0555 -0.2940
  164SOL    HW1  627   2.466   3.767   1.830 -0.2944  0.0683 -0.4446
  164SOL    HW2  628   2.359   3.861   1.777 -0.9942 -0.3546  0.1934
  165SOL     OW  629   0.268   2.466   2.577 -0.8861  0.0542 -0.4831
  165SOL    HW1  630   0.248   2.532   2.643 -1.0622  1.4935 -1.9089
  165SOL    HW2  631   0.236   2.503   2.495  0.6067 -1.0291 -1.6229
  166SOL     OW  632   2.002   2.655   3.149  0.0241 -0.1288  0.4419
  166SOL    HW1  633   1.989   2.699   3.233  0.0889 -1.1600  1.0067
  166SOL    HW2  634   2.095   2.635   3.146 -0.2181 -1.3773  0.7850
  167SOL     OW  635   1.540   2.877   0.744 -0.3368  0.0163  0.8056
  167SOL    HW1  636   1.451   2.910   0.737 -0.0902  0.3659 -3.1582
  167SOL    HW2  637   1.593   2.954   0.765 -0.6423  0.5080 -0.1890
  168SOL     OW  638   0.343   2.057   0.928 -0.0546  0.4047  0.5086
  168SOL    HW1  639   0.404   2.094   0.993 -0.1099  4.2084 -1.3755
  168SOL    HW2  640   0.270   2.025   0.981  2.1947 -1.7842  2.6286
  169SOL     OW  641   0.528   2.324   2.615  0.4666  0.3424 -0.2828
  169SOL    HW1  642   0.502   2.314   2.707  0.5059  0.7419 -0.2276
  169SOL    HW2  643   0.451   2.363   2.573  0.0409 -0.8333 -0.6504
  170SOL     OW  644   1.348   1.032   1.267 -0.4372  0.1193  0.1554
  170SOL    HW1  645   1.282   1.101   1.268 -2.7481 -1.9349  0.5019
  170SOL    HW2  646   1.309   0.962   1.214  2.7638 -0.1150 -2.1646
  171SOL     OW  647   3.215   3.765   3.329 -0.1809  0.0095 -0.0985
  171SOL    HW1  648   3.238   3.832   3.394 -3.3136  0.0944  1.1035
  171SOL    HW2  649   3.216   3.683   3.379  0.4630 -0.3970 -0.7650
  172SOL     OW  650   1.271   0.919   0.992 -0.5093  0.2821  0.0417
  172SOL    HW1  651   1.257   0.837   0.945  0.5025  0.1354 -0.0141
  172SOL    HW2  652   1.362   0.917   1.019 -0.4481  1.4150 -0.0080
  173SOL     OW  653   3.927   2.679   1.656  0.1538  0.7562  0.0549
  173SOL    HW1  654   4.012   2.660   1.615  1.5810 -0.3624  3.1978
  173SOL    HW2  655   3.877   2.598   1.647 -0.1865  1.0545 -0.8407
  174SOL     OW  656   1.930   1.059   1.510  0.6586 -0.0063 -0.6217
  174SOL    HW1  657   1.963   1.065   1.600  0.1005 -0.1159 -0.4077
  174SOL    HW2  658   1.841   1.025   1.519 -0.5093  2.7036 -1.0039
  175SOL     OW  659   2.388   1.502   2.403 -0.2799  0.4382  0.1413
  175SOL    HW1  660   2.420   1.445   2.473 -1.7919  1.5507  1.8014
  175SOL    HW2  661   2.449   1.486   2.331 -0.0251 -2.4813  0.8594
  176SOL     OW  662   1.647   2.313   1.500  0.6447 -0.8287  0.3588
  176SOL    HW1  663   1.682   2.370   1.431  0.7526  1.1913  1.9849
  176SOL    HW2  664   1.722   2.259   1.526  1.3155  0.2299  0.6664
  177SOL     OW  665   0.492   3.700   3.580  0.4528 -0.5779 -0.0922
  177SOL    HW1  666   0.416   3.716   3.637  0.0900 -2.2537 -0.0716
  177SOL    HW2  667   0.561   3.755   3.617 -0.2522 -0.3452  0.9443
  178SOL     OW  668   0.845   2.602   3.740  0.7468  0.0005  0.4269
  178SOL    HW1  669   0.827   2.610   3.834  0.6666 -0.4318  0.4500
  178SOL    HW2  670   0.820   2.687   3.704 -0.1224 -0.1464  0.6590
  179SOL     OW  671   1.589   3.601   2.182 -0.1240 -0.5770  0.1602
  179SOL    HW1  672   1.638   3.575   2.260  0.1870 -0.6836 -0.0640
  179SOL    HW2  673   1.536   3.525   2.160 -0.7239 -0.3063  0.6562
  180SOL     OW  674   3.859   3.028   3.639 -0.5449  0.0006  0.6198
  180SOL    HW1  675   3.908   3.060   3.563  1.1229 -0.6481  1.3932
  180SOL    HW2  676   3.781   2.987   3.601 -0.3331  0.7100 -0.6597
  181SOL     OW  677   1.823   1.583   2.086  0.0940 -0.3767  1.0620
  181SOL    HW1  678   1.847   1.640   2.013  1.4115 -0.8175  1.1419
  181SOL    HW2  679   1.775   1.640   2.146 -2.2322 -0.2879 -0.7113
  182SOL     OW  680   0.992   1.326   1.124 -0.4631  0.2685 -0.8915
  182SOL    HW1  681   1.021   1.362   1.207 -0.8979  1.4289 -1.2220
  182SOL    HW2  682   0.897   1.315   1.134 -0.6194  1.0461 -1.4542
  183SOL     OW  683   2.437   3.262   2.796 -0.1718 -0.0822  0.0824
  183SOL    HW1  684   2.456   3.253   2.703 -0.9470  1.9246 -0.3268
  183SOL    HW2  685   2.522   3.261   2.839  0.2165 -0.6316 -0.6893
  184SOL     OW  686   2.083   0.572   0.627  0.6255 -0.0410 -0.3229
  184SOL    HW1  687   2.099   0.538   0.715  0.2958 -0.7441 -0.5333
  184SOL    HW2  688   2.153   0.636   0.613  0.8566 -0.1445  0.3320
  185SOL     OW  689   3.634   0.636   2.352  0.0692  0.4573 -0.6577
  185SOL    HW1  690   3.565   0.574   2.329  1.8212 -1.3185 -1.4546
  185SOL    HW2  691   3.605   0.675   2.435 -2.7461  1.2534 -1.8947
  186SOL     OW  692   3.628   1.158   0.922  0.1712 -0.6174  0.0030
  186SOL    HW1  693   3.619   1.120   0.835  0.5006 -1.5012  0.3438
  186SOL    HW2  694   3.546   1.204   0.937  0.4758  0.3534 -1.1538
  187SOL     OW  695   0.556   3.122   2.100  0.0562 -0.0151  0.4239
  187SOL    HW1  696   0.620   3.173   2.151 -0.4110  2.0952 -0.9870
  187SOL    HW2  697   0.548   3.040   2.148  0.1179  1.5719  3.4054
  188SOL     OW  698   2.465   1.438   3.191 -0.5465 -0.4296 -0.0425
  188SOL    HW1  699   2.541   1.495   3.177 -1.3331  0.5464 -0.4935
  188SOL    HW2  700   2.457   1.389   3.109 -0.0955 -0.9158  0.2021
  189SOL     OW  701   1.701   1.642   1.491 -0.1156 -0.5181 -0.4706
  189SOL    HW1  702   1.729   1.726   1.454 -0.2031  0.9563  2.5763
  189SOL    HW2  703   1.782   1.590   1.496  0.1950 -0.1093 -1.0583
  190SOL     OW  704   2.283   2.963   2.566  0.3939  0.3638 -0.1607
  190SOL    HW1  705   2.334   2.920   2.497 -0.4643 -0.2112 -0.4586
  190SOL    HW2  706   2.323   2.933   2.648  0.4304 -0.2190 -0.3872
  191SOL     OW  707   0.117   1.897   3.556 -0.1161  0.1839 -0.5573
  191SOL    HW1  708   0.098   1.815   3.510  1.0150 -0.9037  0.8007
  191SOL    HW2  709   0.032   1.925   3.590 -0.8824  0.7465 -2.8023
  192SOL     OW  710   1.939   1.655   2.581 -0.2086  0.6462 -0.4269
  192SOL    HW1  711   1.906   1.674   2.493 -1.7999 -0.1569 -0.0292
  192SOL    HW2  712   1.906   1.727   2.635  0.2467  0.8151 -0.3745
  193SOL     OW  713   0.696   1.082   0.492 -0.1947  0.4148 -0.0916
  193SOL    HW1  714   0.633   1.089   0.421  0.2101 -1.9622 -0.7668
  193SOL    HW2  715   0.761   1.150   0.474 -0.8738  0.7982 -1.1587
  194SOL     OW  716   0.223   2.668   3.938 -0.0061  0.0853 -0.2815
  194SOL    HW1  717   0.138   2.714   3.935 -1.1322 -1.8361  0.2758
  194SOL    HW2  718   0.223   2.624   4.023  1.7915  0.4261 -0.0833
  195SOL     OW  719   1.861   2.017   2.992 -0.2610  0.7204 -0.0239
  195SOL    HW1  720   1.838   2.109   2.999 -1.5328  0.4209 -0.1234
  195SOL    HW2  721   1.780   1.970   3.010  0.9116 -0.4651  2.7264
  196SOL     OW  722   2.956   1.786   3.361  0.3558 -0.2359  0.6432
  196SOL    HW1  723   2.917   1.718   3.307 -0.9953  1.3537 -0.4854
  196SOL    HW2  724   2.882   1.840   3.388  1.5059  1.4984  0.4564
  197SOL     OW  725   2.115   0.123   1.433 -0.1371  0.4838  0.3954
  197SOL    HW1  726   2.200   0.164   1.446 -0.5761  1.4876  0.2450
  197SOL    HW2  727   2.131   0.053   1.370  0.9894 -0.8870  2.1538
  198SOL     OW  728   0.393   0.456   1.119  0.0138 -0.1612 -0.4071
  198SOL    HW1  729   0.474   0.436   1.073  0.7292  1.8084 -0.1212
  198SOL    HW2  730   0.324   0.437   1.056  0.5977 -2.5676 -0.4146
  199SOL     OW  731   2.239   2.102   3.867  0.1538 -0.0888 -0.4836
  199SOL    HW1  732   2.254   2.067   3.955  2.0411 -1.6314 -1.3544
  199SOL    HW2  733   2.184   2.179   3.881 -2.5585 -2.2255  1.7194
  200SOL     OW  734   2.582   2.954   2.790  0.0403 -0.0194 -0.6778
  200SOL    HW1  735   2.488   2.956   2.773 -0.2317 -0.1811  0.6898
  200SOL    HW2  736   2.589   2.952   2.885  1.3287 -3.9144 -0.6920
  201SOL     OW  737   1.481   1.350   0.316  0.4331 -0.2371 -0.1807
  201SOL    HW1  738   1.536   1.283   0.357 -1.3074 -0.2601  2.2861
  201SOL    HW2  739   1.393   1.314   0.318 -0.2814  1.3974 -0.4555
  202SOL     OW  740   1.949   1.931   3.344 -0.1711  0.1023  0.3051
  202SOL    HW1  741   1.918   1.938   3.434  0.5193 -2.7088  0.8511
  202SOL    HW2  742   1.869   1.929   3.291 -0.8217 -2.3263  1.2752
  203SOL     OW  743   2.984   3.746   3.147 -0.3314  0.0434 -0.2174
  203SOL    HW1  744   3.006   3.663   3.103 -0.9046  0.5326 -1.4717
  203SOL    HW2  745   3.042   3.748   3.224  2.4024  0.2016 -2.1354
  204SOL     OW  746   2.707   0.778   3.060  0.3401  0.3629  0.2560
  204SOL    HW1  747   2.647   0.704   3.071 -0.3408  0.5754 -1.6842
  204SOL    HW2  748   2.661   0.838   3.000  1.8760  1.2286 -0.1108
  205SOL     OW  749   2.867   1.355   1.508 -0.2297 -0.6618  0.7546
  205SOL    HW1  750   2.922   1.387   1.579  0.8491  1.4749 -0.8878
  205SOL    HW2  751   2.927   1.308   1.450 -0.7028 -0.7772  0.3478
  206SOL     OW  752   2.921   0.203   0.375  0.5236  0.1939 -0.1733
  206SOL    HW1  753   2.827   0.215   0.385  0.6062  1.6371 -0.9318
  206SOL    HW2  754   2.958   0.228   0.460  0.1874 -1.3711  0.4786
  207SOL     OW  755   1.147   1.523   2.610  1.0130  0.3165 -0.2107
  207SOL    HW1  756   1.059   1.553   2.587  1.3813 -0.0214 -2.2895
  207SOL    HW2  757   1.134   1.462   2.682 -0.6192 -0.7046 -1.3089
  208SOL     OW  758   0.224   2.614   1.555 -0.2109 -0.0877  0.4420
  208SOL    HW1  759   0.292   2.548   1.542  1.1546  1.0771  1.2961
  208SOL    HW2  760   0.273   2.696   1.564 -1.4680  0.4316  4.1455
  209SOL     OW  761   1.304   3.793   0.590 -0.0068  0.1753 -0.1989
  209SOL    HW1  762   1.251   3.801   0.669  0.1754  0.1832 -0.0779
  209SOL    HW2  763   1.352   3.875   0.585 -2.5050  1.6765 -2.1372
  210SOL     OW  764   1.049   0.642   3.268  0.4425 -0.1542 -0.0903
  210SOL    HW1  765   0.956   0.620   3.281  0.3239  0.3549 -0.0432
  210SOL    HW2  766   1.061   0.642   3.173  1.1224 -3.1195 -0.1037
  211SOL     OW  767   3.089   2.971   1.041 -0.4736  0.0506  0.5776
  211SOL    HW1  768   3.023   2.947   0.976  0.7741 -0.3588 -0.5567
  211SOL    HW2  769   3.170   2.980   0.992  0.0340  2.1715  1.6723
  212SOL     OW  770   0.483   1.836   0.781  0.0197 -0.3626  0.0325
  212SOL    HW1  771   0.393   1.808   0.763 -0.5976  1.0290  0.7993
  212SOL    HW2  772   0.474   1.911   0.840  1.7290 -0.9790  1.1654
  213SOL     OW  773   2.753   3.211   2.047  0.0840  0.0246 -0.2249
  213SOL    HW1  774   2.661   3.196   2.070 -0.0222 -0.8874 -1.1775
  213SOL    HW2  775   2.794   3.126   2.058  1.3475  0.8492  2.3217
  214SOL     OW  776   1.415   3.533   0.907  0.0279  0.1297 -0.2267
  214SOL    HW1  777   1.352   3.512   0.975  0.1702 -1.1832 -0.4722
  214SOL    HW2  778   1.470   3.601   0.946 -0.4492  0.0405  0.6320
  215SOL     OW  779   1.614   0.368   0.099 -0.5647  0.4109  0.1012
  215SOL    HW1  780   1.696   0.377   0.148  0.3702 -0.8205 -1.1618
  215SOL    HW2  781   1.610   0.448   0.046 -0.4351  0.6923  0.5048
  216SOL     OW  782   2.989   0.787   2.972 -0.4351  0.0077 -0.5488
  216SOL    HW1  783   2.895   0.800   2.985 -0.5693  0.9369 -2.2398
  216SOL    HW2  784   3.022   0.874   2.951  1.1561  0.0552  1.7736
  217SOL     OW  785   1.328   1.190   1.683 -0.1500  0.3002 -0.5116
  217SOL    HW1  786   1.341   1.101   1.649 -0.8229  0.1243 -0.3382
  217SOL    HW2  787   1.401   1.204   1.743  0.7776  0.4276 -1.6573
  218SOL     OW  788   1.017   1.669   0.039  0.7723 -0.3893  0.1925
  218SOL    HW1  789   1.085   1.656  -0.027  0.3635 -1.9119  0.0398
  218SOL    HW2  790   1.065   1.683   0.120  1.2743  1.0005 -0.3130
  219SOL     OW  791   1.847   1.354   2.560  0.0045  0.2577 -0.2664
  219SOL    HW1  792   1.885   1.437   2.587 -0.3971  0.6479 -0.8844
  219SOL    HW2  793   1.900   1.326   2.486 -2.1291  1.8757 -2.5638
  220SOL     OW  794   1.452   3.012   2.227 -0.4402 -0.6557  0.3307
  220SOL    HW1  795   1.366   3.028   2.188  0.7418  1.2628 -1.7284
  220SOL    HW2  796   1.449   2.920   2.253 -3.0200 -0.7161  0.1528
  221SOL     OW  797   2.850   1.098   2.971 -0.0901 -0.2586  0.3532
  221SOL    HW1  798   2.873   1.061   3.056  1.0451  1.0359  0.6415
  221SOL    HW2  799   2.819   1.186   2.990  2.2735  0.8742 -0.7087
  222SOL     OW  800   2.396   1.894   2.254  0.3436  0.4191  0.5367
  222SOL    HW1  801   2.466   1.866   2.195  0.8647 -0.4976  1.5459
  222SOL    HW2  802   2.362   1.975   2.215  2.1385  1.0349  0.1516
  223SOL     OW  803   3.934   3.030   3.906  0.0939  0.5286  0.3315
  223SOL    HW1  804   3.842   3.051   3.922  0.5606  1.5868  1.8673
  223SOL    HW2  805   3.933   2.976   3.827 -1.9051 -0.1412  0.7616
  224SOL     OW  806   3.370   0.129   2.298  0.2089  0.4345  0.2461
  224SOL    HW1  807   3.327   0.162   2.377 -1.3571  0.4785 -0.5603
  224SOL    HW2  808   3.338   0.039   2.289 -0.5532  0.7854 -0.8992
  225SOL     OW  809   1.718   1.249   3.504  0.0493  0.3635  0.0137
  225SOL    HW1  810   1.781   1.200   3.557 -1.4947 -0.5328  1.1059
  225SOL    HW2  811   1.757   1.336   3.496  1.7174 -0.3421  0.0943
  226SOL     OW  812   2.101   3.455   0.984 -0.2790  0.0195 -0.4891
  226SOL    HW1  813   2.060   3.387   1.036 -2.7341  1.6956 -0.0824
  226SOL    HW2  814   2.163   3.497   1.045 -0.9286  0.0379  0.1764
  227SOL     OW  815   2.580   1.057   0.735 -0.5554 -0.8098  0.1852
  227SOL    HW1  816   2.609   1.147   0.748 -1.4712 -0.2893 -1.0784
  227SOL    HW2  817   2.509   1.045   0.798 -2.1419  0.2617 -1.2820
  228SOL     OW  818   1.866   0.231   2.302 -0.1301 -0.1227  0.0493
  228SOL    HW1  819   1.923   0.258   2.374  0.0841 -1.0814  0.2485
  228SOL    HW2  820   1.915   0.257   2.223  1.5288 -2.5778  0.1490
  229SOL     OW  821   0.157   2.944   1.857  0.4299  0.2350  0.1209
  229SOL    HW1  822   0.212   2.882   1.904 -1.4774 -2.5302 -1.0404
  229SOL    HW2  823   0.219   2.997   1.807  2.1634 -0.7617  1.1082
  230SOL     OW  824   2.045   2.862   3.952 -0.7079  0.3769  0.0444
  230SOL    HW1  825   2.070   2.916   4.027  0.7952 -1.6128  1.0719
  230SOL    HW2  826   1.961   2.824   3.976 -0.5072  0.2004  0.4799
  231SOL     OW  827   3.630   3.585   3.660 -0.7533 -0.1027 -0.3020
  231SOL    HW1  828   3.713   3.538   3.656 -0.5492  0.1696  0.5325
  231SOL    HW2  829   3.580   3.540   3.728 -0.5480  0.8734  0.5143
  232SOL     OW  830   0.024   2.709   3.591 -0.2868 -0.3043  0.5318
  232SOL    HW1  831  -0.046   2.689   3.652  0.3833 -1.1247  1.0531
  232SOL    HW2  832   0.004   2.657   3.513 -0.2481 -0.5495  0.6857
  233SOL     OW  833   3.275   1.924   1.288  0.1410 -0.2914  0.0499
  233SOL    HW1  834   3.261   1.832   1.263 -0.4792  0.0129 -0.7630
  233SOL    HW2  835   3.209   1.972   1.239  2.3811  0.9371 -1.9454
  234SOL     OW  836   1.454   1.125   0.103 -0.1140  0.4888  0.1998
  234SOL    HW1  837   1.526   1.081   0.148 -0.0465 -0.1208 -0.5010
  234SOL    HW2  838   1.394   1.055   0.079 -0.6657  0.9299  0.2553
  235SOL     OW  839   0.258   0.125   3.537  0.0189  0.0302 -0.4667
  235SOL    HW1  840   0.353   0.130   3.526 -0.0417  0.2597 -0.8801
  235SOL    HW2  841   0.228   0.215   3.528 -0.2909 -0.1059 -0.8115
  236SOL     OW  842   3.182   1.707   2.795 -0.3738 -0.3230  0.7341
  236SOL    HW1  843   3.203   1.778   2.856  2.6495 -0.3049 -0.1583
  236SOL    HW2  844   3.214   1.738   2.711  2.2823 -3.1384  0.5297
  237SOL     OW  845   2.304   2.839   2.063 -0.2456  0.0617 -0.9464
  237SOL    HW1  846   2.271   2.856   1.975 -3.0477 -2.0285 -0.4220
  237SOL    HW2  847   2.333   2.748   2.061 -1.2358 -0.3203  0.4890
  238SOL     OW  848   3.613   1.988   2.370 -0.9309 -0.1778  0.1606
  238SOL    HW1  849   3.672   1.940   2.428  1.7656  3.8826  1.2280
  238SOL    HW2  850   3.533   2.000   2.421 -0.0781 -0.0177  1.4983
  239SOL     OW  851   1.509   1.448   0.703  1.1295  0.4559 -0.0814
  239SOL    HW1  852   1.483   1.489   0.785 -0.5946 -1.8311  0.6569
  239SOL    HW2  853   1.596   1.412   0.720 -0.2772 -2.4286  1.8871
  240SOL     OW  854   0.320   2.910   0.889 -0.4068  0.8207 -0.5713
  240SOL    HW1  855   0.333   2.959   0.808  3.1772  1.9260  0.5186
  240SOL    HW2  856   0.342   2.972   0.959  0.4931 -1.2007  1.0387
  241SOL     OW  857   0.361   3.149   1.375 -0.5039  0.3247 -0.3899
  241SOL    HW1  858   0.435   3.179   1.428  0.6524  1.0610 -2.3055
  241SOL    HW2  859   0.303   3.225   1.371 -1.0872 -0.0536  0.6032
  242SOL     OW  860   2.374   2.702   3.185 -0.6126  0.5735 -0.1531
  242SOL    HW1  861   2.345   2.668   3.100 -0.8921 -0.2192  0.2486
  242SOL    HW2  862   2.359   2.630   3.246 -1.1246  1.3873  0.7132
  243SOL     OW  863   2.677   0.528   1.792  0.6028  0.3907 -0.6705
  243SOL    HW1  864   2.680   0.441   1.833 -0.3592  1.3641  1.5994
  243SOL    HW2  865   2.654   0.510   1.701  1.9208 -1.8212 -0.6595
  244SOL     OW  866   3.820   1.080   0.229  0.3863 -0.0128  0.4493
  244SOL    HW1  867   3.778   1.049   0.309  1.8733 -0.3024  1.1630
  244SOL    HW2  868   3.800   1.174   0.227  2.0357  0.4507  2.3362
  245SOL     OW  869   1.581   1.678   1.767 -0.4705  0.4398  0.0740
  245SOL    HW1  870   1.493   1.700   1.737 -0.3404  0.6651 -0.1495
  245SOL    HW2  871   1.634   1.681   1.687 -0.4756 -0.8239  0.0018
  246SOL     OW  872   2.256   3.783   3.854  0.1052  0.3038 -0.6012
  246SOL    HW1  873   2.249   3.726   3.930  2.9148 -0.0345 -0.4972
  246SOL    HW2  874   2.329   3.748   3.804  0.3088  2.3445 -1.8487
  247SOL     OW  875   0.243   2.434   3.580 -0.2648 -0.1877  0.0544
  247SOL    HW1  876   0.184   2.362   3.602 -0.0928  0.1668  1.8077
  247SOL    HW2  877   0.203   2.474   3.502  0.1090 -2.6502 -1.5436
  248SOL     OW  878   1.049   0.065   2.525  0.4561 -0.0764 -0.5447
  248SOL    HW1  879   0.955   0.048   2.524  0.3843  0.0202  1.0924
  248SOL    HW2  880   1.058   0.157   2.501 -0.1306  0.6746  1.8096
  249SOL     OW  881   2.181   3.254   0.537  0.1039 -0.1393  0.0552
  249SOL    HW1  882   2.125   3.330   0.551 -0.4319 -1.0085  3.7474
  249SOL    HW2  883   2.130   3.180   0.569  1.4766 -1.7642 -1.2912
  250SOL     OW  884   3.577   1.918   0.464  0.2742  0.2542  0.9080
  250SOL    HW1  885   3.553   2.007   0.435 -1.2601  0.3552  2.3376
  250SOL    HW2  886   3.496   1.882   0.500  1.9127  0.0840  4.8478
  251SOL     OW  887   3.575   2.285   3.032  0.0169  0.0784  0.6274
  251SOL    HW1  888   3.558   2.370   2.990 -0.7017 -0.6803 -0.6803
  251SOL    HW2  889   3.489   2.255   3.062  0.1411 -0.5458  0.3710
  252SOL     OW  890   1.793   2.129   1.898  0.4599  0.5008 -0.2383
  252SOL    HW1  891   1.767   2.165   1.982 -0.5999  0.5124 -0.5564
  252SOL    HW2  892   1.849   2.054   1.920 -1.3362 -0.6898  0.5503
  253SOL     OW  893   0.306   2.932   0.376  0.5850  0.6171  0.2322
  253SOL    HW1  894   0.391   2.916   0.337 -0.0966 -1.2181 -0.5914
  253SOL    HW2  895   0.246   2.939   0.301 -0.2807  0.0254  0.8521
  254SOL     OW  896   1.900   0.650   2.287  0.0052  0.0416  0.1544
  254SOL    HW1  897   1.850   0.669   2.208 -1.2893 -0.7668  0.7573
  254SOL    HW2  898   1.969   0.590   2.258 -0.4369 -0.2191 -0.3646
  255SOL     OW  899   0.804   0.490   2.467  0.2308 -0.6414  0.2822
  255SOL    HW1  900   0.808   0.432   2.544  0.9913  0.2167  0.9080
  255SOL    HW2  901   0.727   0.460   2.418  1.1496 -2.8141  0.0666
  256SOL     OW  902   0.383   1.562   3.403  0.3451  0.2522 -0.4480
  256SOL    HW1  903   0.370   1.655   3.425 -1.0639 -0.2893  1.2865
  256SOL    HW2  904   0.304   1.519   3.437  1.4744 -1.7398 -0.2069
  257SOL     OW  905   2.847   3.779   2.903  0.0969  0.1115 -0.4255
  257SOL    HW1  906   2.883   3.826   2.978  0.3562 -0.7722  0.0202
  257SOL    HW2  907   2.901   3.805   2.829  1.5160 -0.9679  0.1767
  258SOL     OW  908   0.983   2.271   2.755  0.1662  0.3234  0.6496
  258SOL    HW1  909   0.939   2.226   2.828  0.4321  0.2691  0.7782
  258SOL    HW2  910   0.981   2.363   2.780 -0.8992  0.4670  0.1148
  259SOL     OW  911   2.784   1.067   2.289 -0.1421  0.3374  0.2519
  259SOL    HW1  912   2.826   1.153   2.285 -0.3757  0.4996  1.1324
  259SOL    HW2  913   2.693   1.085   2.312  0.2744 -0.2309  2.6581
  260SOL     OW  914   1.803   0.722   0.997  0.8751 -0.1101 -0.0990
  260SOL    HW1  915   1.835   0.673   0.921 -0.3767 -0.1569 -0.6066
  260SOL    HW2  916   1.829   0.667   1.072  0.0444 -1.2721 -0.6247
  261SOL     OW  917   0.217   2.592   1.837  0.4807  0.4302 -0.5805
  261SOL    HW1  918   0.243   2.527   1.772 -1.3385 -0.5984 -0.3495
  261SOL    HW2  919   0.175   2.662   1.785 -0.4146 -0.1006 -0.5951
  262SOL     OW  920   2.139   0.069   2.312 -0.0957  0.1637 -0.4178
  262SOL    HW1  921   2.229   0.087   2.282  0.4729 -0.1961  0.9826
  262SOL    HW2  922   2.086   0.074   2.233  1.1433  0.5176 -1.2603
  263SOL     OW  923   3.302   3.346   2.542 -0.4443 -0.0011 -1.1247
  263SOL    HW1  924   3.210   3.355   2.565 -0.0759 -1.1698  1.0859
  263SOL    HW2  925   3.307   3.264   2.493 -0.2852 -1.4340  1.1372
  264SOL     OW  926   0.478   1.084   1.224  0.3822  0.2764  0.0881
  264SOL    HW1  927   0.444   1.172   1.239  0.9136  0.6461 -0.7940
  264SOL    HW2  928   0.408   1.026   1.254  0.1302  0.9840  0.9192
  265SOL     OW  929   2.078   1.876   2.279  0.1547  0.6033  0.3626
  265SOL    HW1  930   2.125   1.793   2.288 -0.7621  0.1575  1.2220
  265SOL    HW2  931   2.139   1.934   2.234  0.5265 -0.7614 -0.9367
  266SOL     OW  932   2.743   0.068   1.020  0.0076  0.2157  0.6986
  266SOL    HW1  933   2.779   0.087   0.933 -2.6709 -1.6302 -0.9395
  266SOL    HW2  934   2.665   0.123   1.026 -0.4338 -0.4777  1.4863
  267SOL     OW  935   2.548   2.225   1.847 -0.5448  0.4090  0.2142
  267SOL    HW1  936   2.471   2.246   1.794 -2.0477 -1.0238  1.6965
  267SOL    HW2  937   2.600   2.167   1.793 -1.4567 -0.0875 -0.1508
  268SOL     OW  938   0.846   0.614   1.441 -0.7606  0.3039 -0.3837
  268SOL    HW1  939   0.880   0.704   1.449 -0.6046  0.3632 -1.5445
  268SOL    HW2  940   0.868   0.573   1.525  0.9903  0.7367 -0.5966
  269SOL     OW  941   3.830   2.652   0.968  0.1792  0.6696  0.4038
  269SOL    HW1  942   3.820   2.716   0.898  1.4663  0.0687 -0.3699
  269SOL    HW2  943   3.793   2.571   0.932 -1.2965  0.9017  1.3114
  270SOL     OW  944   0.061   3.423   3.210  0.6424 -0.2106 -0.4047
  270SOL    HW1  945   0.074   3.362   3.137 -0.7302 -0.6331 -0.3292
  270SOL    HW2  946  -0.033   3.444   3.207  0.2893 -1.1771  1.9578
  271SOL     OW  947   2.167   2.135   3.391 -0.3532  0.2057  0.0545
  271SOL    HW1  948   2.223   2.058   3.380  1.4234  1.6942 -2.1847
  271SOL    HW2  949   2.124   2.121   3.475  0.7069 -2.6891  0.2446
  272SOL     OW  950   3.580   1.581   1.024 -0.1497  0.1706  0.0881
  272SOL    HW1  951   3.648   1.550   1.084 -0.1326 -0.4102 -0.2245
  272SOL    HW2  952   3.615   1.562   0.937  0.4189  2.1928 -0.1780
  273SOL     OW  953   3.385   2.479   3.886  0.2697 -0.2057 -0.1024
  273SOL    HW1  954   3.390   2.387   3.860  0.3271  0.0305 -0.9546
  273SOL    HW2  955   3.323   2.518   3.824  0.4278  0.3788  0.1016
  274SOL     OW  956   2.224   1.049   2.150 -0.4484  0.3600 -0.6212
  274SOL    HW1  957   2.150   1.069   2.207 -1.3470 -0.2284 -1.5307
  274SOL    HW2  958   2.217   0.955   2.134  0.8098  0.1957 -0.3204
  275SOL     OW  959   2.202   1.666   1.973 -0.2011  0.2510 -0.2070
  275SOL    HW1  960   2.275   1.609   1.946 -0.8233 -0.7567  0.1717
  275SOL    HW2  961   2.213   1.674   2.068 -1.0900 -0.6731 -0.0044
  276SOL     OW  962   2.409   0.567   1.855  0.3305 -0.3239 -0.0619
  276SOL    HW1  963   2.392   0.474   1.841  0.2247 -0.4001  0.5678
  276SOL    HW2  964   2.498   0.580   1.824 -0.5164 -0.0848 -2.6412
  277SOL     OW  965   3.759   2.112   1.378 -0.0165  0.3663 -0.4348
  277SOL    HW1  966   3.800   2.090   1.294 -0.8720 -1.0550 -0.5108
  277SOL    HW2  967   3.833   2.122   1.438  0.5609 -3.5239 -0.2351
  278SOL     OW  968   2.181   0.815   0.520 -0.1054  0.0933 -0.2101
  278SOL    HW1  969   2.093   0.851   0.523  0.2437  1.0804 -1.0291
  278SOL    HW2  970   2.216   0.844   0.436  1.3934  0.6999  0.5811
  279SOL     OW  971   1.547   3.180   1.575 -0.0026 -0.3098 -0.2775
  279SOL    HW1  972   1.456   3.151   1.570  0.4529 -1.6776 -0.8566
  279SOL    HW2  973   1.566   3.216   1.488 -0.3042  1.0348  0.1794
  280SOL     OW  974   3.128   1.860   3.134 -0.0915 -0.6992 -0.2786
  280SOL    HW1  975   3.059   1.826   3.191  0.6265  0.1132  1.1442
  280SOL    HW2  976   3.202   1.877   3.193  0.3936  1.0008 -1.2935
  281SOL     OW  977   3.709   1.423   2.222  0.0170 -0.0767  0.1868
  281SOL    HW1  978   3.696   1.348   2.165 -1.1211 -0.5134  0.9885
  281SOL    HW2  979   3.674   1.396   2.307 -0.9700  1.5401  0.3490
  282SOL     OW  980   2.795   3.182   2.390  0.0926 -0.4377  0.3855
  282SOL    HW1  981   2.747   3.099   2.389 -0.9971  0.1289  2.0354
  282SOL    HW2  982   2.734   3.245   2.352  0.8820 -0.3484 -0.7748
  283SOL     OW  983   0.364   2.347   1.282 -0.2602  0.2470  0.1395
  283SOL    HW1  984   0.273   2.376   1.274 -0.1157  0.5538 -0.4842
  283SOL    HW2  985   0.401   2.360   1.195 -0.4576 -2.7782 -0.5349
  284SOL     OW  986   0.783   0.457   3.582 -0.0236  0.5582  0.3550
  284SOL    HW1  987   0.793   0.369   3.618 -1.0991 -0.2775 -1.2616
  284SOL    HW2  988   0.871   0.493   3.581  0.5085 -0.6807  0.6210
  285SOL     OW  989   0.318   0.791   1.027 -0.1960 -0.2186 -0.9918
  285SOL    HW1  990   0.378   0.721   1.001 -0.2393 -0.1751 -1.2163
  285SOL    HW2  991   0.370   0.871   1.021 -0.2459 -0.1927 -1.0794
  286SOL     OW  992   1.584   3.214   0.171 -0.6264 -0.1229 -0.2546
  286SOL    HW1  993   1.533   3.231   0.250  0.3534 -1.2335  0.6760
  286SOL    HW2  994   1.670   3.188   0.204  0.3509  1.0474 -1.7464
  287SOL     OW  995   0.360   1.814   3.487  0.2295  0.3598  0.2035
  287SOL    HW1  996   0.420   1.837   3.558  1.5823 -0.2527 -0.7013
  287SOL    HW2  997   0.286   1.874   3.498  2.2376  3.1320 -0.2854
  288SOL     OW  998   1.000   0.278   2.866 -0.3195  0.2566  0.2215
  288SOL    HW1  999   1.065   0.339   2.902 -0.5327  0.2059  0.6992
  288SOL    HW2 1000   0.991   0.211   2.933 -1.0668  0.4068  0.2797
  289SOL     OW 1001   1.825   2.637   0.497  0.2640 -0.6089  0.2732
  289SOL    HW1 1002   1.851   2.722   0.460 -0.2760 -0.9700 -0.9988
  289SOL    HW2 1003   1.732   2.630   0.475 -0.0664 -0.8693  1.6917
  290SOL     OW 1004   1.902   3.800   3.016 -0.2511 -0.2477 -0.2526
  290SOL    HW1 1005   1.952   3.756   2.946 -0.8388 -0.7277 -0.3771
  290SOL    HW2 1006   1.815   3.811   2.979 -0.2731  0.4890  0.0081
  291SOL     OW 1007   2.612   2.217   2.619 -0.7358  0.8111  0.1273
  291SOL    HW1 1008   2.621   2.146   2.555 -0.3388  0.4597  0.5639
  291SOL    HW2 1009   2.656   2.292   2.578  0.0144  0.4283  0.2257
  292SOL     OW 1010   2.518   0.153   0.151  0.0203 -0.0239 -0.1164
  292SOL    HW1 1011   2.440   0.206   0.168 -1.4388 -2.1222  0.2625
  292SOL    HW2 1012   2.518   0.089   0.222  3.9880  1.7839  1.8086
  293SOL     OW 1013   3.376   0.044   0.534 -0.6431 -0.2411 -0.5526
  293SOL    HW1 1014   3.465   0.018   0.557 -0.9268 -0.7282  0.0109
  293SOL    HW2 1015   3.336  -0.036   0.500 -1.1569 -0.2556  0.0844
  294SOL     OW 1016   2.868   1.484   1.904  0.0583 -0.1214 -0.0228
  294SOL    HW1 1017   2.939   1.546   1.887  1.8551 -2.5272 -1.9226
  294SOL    HW2 1018   2.904   1.422   1.967  0.0112 -1.8410 -1.6031
  295SOL     OW 1019   0.201   1.534   0.886 -0.6466 -0.4624 -0.2901
  295SOL    HW1 1020   0.185   1.507   0.796  0.5944  0.3230 -0.7687
  295SOL    HW2 1021   0.142   1.609   0.899  0.2349  0.3807 -0.9740
  296SOL     OW 1022   0.848   1.249   3.829 -0.5788 -0.1336 -0.1358
  296SOL    HW1 1023   0.885   1.290   3.751 -3.0522  1.6495 -0.4951
  296SOL    HW2 1024   0.923   1.233   3.886  1.3536 -1.7583 -2.9074
  297SOL     OW 1025   2.120   1.130   1.720 -0.1505 -0.0966  0.5308
  297SOL    HW1 1026   2.154   1.054   1.673  1.5763  0.4000  0.9084
  297SOL    HW2 1027   2.089   1.094   1.804  0.5951 -0.4131  0.6780
  298SOL     OW 1028   1.655   0.614   0.440 -0.1408  0.1347 -0.2004
  298SOL    HW1 1029   1.740   0.652   0.417  0.8295 -0.5986  1.9641
  298SOL    HW2 1030   1.602   0.689   0.467  0.9036  0.3132  1.5025
  299SOL     OW 1031   3.056   1.466   1.658 -1.4178 -0.2251  0.7333
  299SOL    HW1 1032   3.051   1.549   1.611 -1.0088 -1.1553 -1.0147
  299SOL    HW2 1033   3.133   1.475   1.714 -0.7912  0.2337 -0.1693
  300SOL     OW 1034   3.716   0.919   1.288 -0.3464  0.2330 -0.1295
  300SOL    HW1 1035   3.706   0.919   1.193 -0.1695 -1.1668 -0.1671
  300SOL    HW2 1036   3.627   0.906   1.322 -0.4389  0.9429 -0.0924
  301SOL     OW 1037   2.181   1.633   0.147 -0.5111  0.0004 -0.0693
  301SOL    HW1 1038   2.148   1.665   0.231  0.1303 -0.7069  0.4726
  301SOL    HW2 1039   2.211   1.543   0.166 -1.3876 -0.5734 -1.3155
  302SOL     OW 1040   3.057   2.184   3.251  0.9400  0.4194  0.4519
  302SOL    HW1 1041   2.993   2.255   3.250  1.2438  0.6910 -0.0892
  302SOL    HW2 1042   3.009   2.107   3.220  0.2341  0.0391  2.3739
  303SOL     OW 1043   1.964   2.939   3.276  0.0573 -0.2985  0.1871
  303SOL    HW1 1044   1.888   2.996   3.269 -0.3879 -0.7356  1.2988
  303SOL    HW2 1045   2.002   2.939   3.188 -0.5098  0.8973 -0.0727
  304SOL     OW 1046   3.943   1.915   3.159  0.1300  0.0178 -0.5239
  304SOL    HW1 1047   4.012   1.922   3.225 -0.5102  0.1151  0.1462
  304SOL    HW2 1048   3.972   1.974   3.089  1.5374 -1.1835 -1.0099
  305SOL     OW 1049   2.445   1.267   3.400  0.0898 -0.3831 -0.3474
  305SOL    HW1 1050   2.428   1.333   3.332 -0.5003  0.5096  0.6409
  305SOL    HW2 1051   2.539   1.269   3.413  0.1496 -0.2149 -0.7985
  306SOL     OW 1052   1.287   3.026   3.699 -0.7369 -0.2327 -0.4937
  306SOL    HW1 1053   1.347   3.040   3.773 -0.2997 -1.5371 -0.5702
  306SOL    HW2 1054   1.202   3.012   3.740 -0.3011 -2.0601 -0.1263
  307SOL     OW 1055   2.174   0.164   3.705  0.2151  0.1040 -0.1373
  307SOL    HW1 1056   2.190   0.118   3.787  2.7301 -0.1407 -0.6889
  307SOL    HW2 1057   2.243   0.230   3.699  0.1717  0.0576 -2.0685
  308SOL     OW 1058   2.986   2.372   1.463  0.2626  0.5378  0.2754
  308SOL    HW1 1059   3.079   2.391   1.465  0.9443 -2.4143  0.8837
  308SOL    HW2 1060   2.966   2.361   1.370  1.1904 -1.3652  0.2463
  309SOL     OW 1061   0.484   0.338   3.767 -0.2151  0.4855 -0.3240
  309SOL    HW1 1062   0.512   0.423   3.802 -1.5165  1.0539 -0.6137
  309SOL    HW2 1063   0.452   0.357   3.679 -0.9990 -0.2184 -0.2037
  310SOL     OW 1064   3.456   0.434   1.014 -0.1229  0.0576  0.1282
  310SOL    HW1 1065   3.442   0.340   1.002 -1.3394  0.2502 -0.0640
  310SOL    HW2 1066   3.528   0.455   0.954  0.6788 -0.8739  0.7310
  311SOL     OW 1067   1.597   0.107   2.888  0.2028  0.0309 -0.1361
  311SOL    HW1 1068   1.629   0.078   2.802 -0.6424  0.1034 -0.4826
  311SOL    HW2 1069   1.502   0.107   2.879  0.1246  0.5241  0.6486
  312SOL     OW 1070   1.659   2.095   0.409 -1.0032  0.6646 -0.0388
  312SOL    HW1 1071   1.667   2.166   0.473 -0.6455  0.9846 -0.4377
  312SOL    HW2 1072   1.578   2.114   0.362  0.3648  2.2938 -1.9221
  313SOL     OW 1073   3.298   1.703   0.994  0.3148 -0.1237 -0.2392
  313SOL    HW1 1074   3.262   1.694   0.906 -0.4789 -1.9295  0.2349
  313SOL    HW2 1075   3.382   1.656   0.991 -0.1936 -1.0742  0.2257
  314SOL     OW 1076   2.720   1.818   2.951 -0.2486  0.5140 -0.6830
  314SOL    HW1 1077   2.725   1.749   2.884 -0.5722 -0.2691  0.0759
  314SOL    HW2 1078   2.724   1.899   2.901 -1.9398 -0.0257 -1.7910
  315SOL     OW 1079   3.681   1.131   2.371  0.3873 -0.1121 -0.0676
  315SOL    HW1 1080   3.733   1.058   2.404  0.8248  0.7759  1.2822
  315SOL    HW2 1081   3.590   1.106   2.389  0.6048  0.3588  1.9621
  316SOL     OW 1082   2.156   1.595   1.597  0.2584  0.1395  0.6438
  316SOL    HW1 1083   2.171   1.615   1.689 -0.3049 -0.5656  0.8969
  316SOL    HW2 1084   2.224   1.530   1.576 -0.7979 -1.1475  1.0998
  317SOL     OW 1085   1.890   1.875   0.092 -0.5526 -0.3834  0.0661
  317SOL    HW1 1086   1.913   1.800   0.147 -1.3125 -0.9992 -0.4230
  317SOL    HW2 1087   1.797   1.888   0.106 -0.7572 -0.5301 -1.0182
  318SOL     OW 1088   0.988   3.051   3.368 -0.6020 -0.0273 -0.1880
  318SOL    HW1 1089   0.972   2.960   3.341 -0.2118  0.0313 -0.6243
  318SOL    HW2 1090   0.915   3.071   3.427 -2.9582  0.6294 -3.0628
  319SOL     OW 1091   2.269   1.626   1.291 -0.3285 -0.0874 -0.5146
  319SOL    HW1 1092   2.214   1.548   1.293 -3.2713  1.8188 -1.0567
  319SOL    HW2 1093   2.287   1.645   1.383 -0.9157 -0.5490 -0.2982
  320SOL     OW 1094   0.567   0.400   3.237 -0.6702 -0.7318 -0.3002
  320SOL    HW1 1095   0.476   0.409   3.264 -0.7061 -3.2580  0.7414
  320SOL    HW2 1096   0.571   0.439   3.150 -2.2847  1.0311  0.3504
  321SOL     OW 1097   1.782   2.288   0.861  0.3937  0.2072  0.1454
  321SOL    HW1 1098   1.707   2.230   0.873  0.7077 -0.6465 -1.6559
  321SOL    HW2 1099   1.749   2.359   0.807  0.6792  0.2907  0.0811
  322SOL     OW 1100   3.160   3.499   1.957 -0.0785 -0.4514  0.4456
  322SOL    HW1 1101   3.079   3.520   1.912  0.6196  1.2464 -0.0728
  322SOL    HW2 1102   3.218   3.466   1.889 -0.5104 -2.3637  0.9302
  323SOL     OW 1103   1.433   1.028   3.679  0.1579  0.1928 -0.1629
  323SOL    HW1 1104   1.489   1.004   3.605 -0.1888  0.3813 -0.4913
  323SOL    HW2 1105   1.490   1.078   3.737  0.6108 -0.5232  0.0219
  324SOL     OW 1106   1.007   1.163   2.445  0.9676  0.3802  0.7437
  324SOL    HW1 1107   0.918   1.182   2.416  1.3916  2.5346  0.7141
  324SOL    HW2 1108   1.062   1.224   2.395  2.4817 -0.9446  0.7214
  325SOL     OW 1109   2.334   3.699   2.788  0.2192  0.4680 -0.0436
  325SOL    HW1 1110   2.266   3.732   2.729 -0.1317  1.0448  0.6659
  325SOL    HW2 1111   2.391   3.774   2.803  2.2355 -0.5083 -2.2375
  326SOL     OW 1112   2.697   1.577   0.756  0.4860  0.2914  0.1126
  326SOL    HW1 1113   2.737   1.659   0.787  0.9848  0.0181  0.2130
  326SOL    HW2 1114   2.661   1.599   0.671  0.5203  0.6480  0.1886
  327SOL     OW 1115   1.418   0.726   2.318  0.3166 -0.0861  0.2356
  327SOL    HW1 1116   1.353   0.746   2.250  0.0034 -0.6176  0.3664
  327SOL    HW2 1117   1.388   0.774   2.395  2.1729  2.7767 -0.6932
  328SOL     OW 1118   1.476   3.555   0.574 -0.3488 -0.0205 -0.4728
  328SOL    HW1 1119   1.427   3.631   0.605 -0.7677 -0.5964  0.2864
  328SOL    HW2 1120   1.433   3.480   0.613  1.6093 -0.5122  0.8918
  329SOL     OW 1121   1.766   2.188   2.157 -0.4949 -0.0484 -0.2497
  329SOL    HW1 1122   1.723   2.240   2.225 -1.6617 -1.2513 -0.0326
  329SOL    HW2 1123   1.860   2.204   2.171 -0.6439 -0.8775  2.1904
  330SOL     OW 1124   0.680   1.456   0.814  0.2018 -0.6131  0.0310
  330SOL    HW1 1125   0.633   1.512   0.752  0.0969  1.3855  1.7907
  330SOL    HW2 1126   0.643   1.479   0.900  3.5659  0.2539  1.4028
  331SOL     OW 1127   1.001   1.890   2.660 -0.3518 -1.0499  0.0152
  331SOL    HW1 1128   0.985   1.807   2.705  0.7512  0.6507  4.0188
  331SOL    HW2 1129   1.096   1.891   2.646 -0.3616 -0.4525 -0.0147
  332SOL     OW 1130   1.927   3.674   1.136 -0.2387 -0.1698 -0.3279
  332SOL    HW1 1131   1.946   3.720   1.218  0.3371 -3.4936  1.5686
  332SOL    HW2 1132   2.013   3.653   1.100 -0.3999 -2.0994  0.3213
  333SOL     OW 1133   0.116   1.236   0.822  0.1013  0.3982 -0.7992
  333SOL    HW1 1134   0.075   1.155   0.794  1.4496 -0.5493 -0.1185
  333SOL    HW2 1135   0.043   1.297   0.834 -1.1721 -1.2923  0.6658
  334SOL     OW 1136   0.558   1.332   1.844  0.2839  0.0676  0.5842
  334SOL    HW1 1137   0.609   1.260   1.809  0.7488 -0.2984  1.9394
  334SOL    HW2 1138   0.608   1.411   1.822  0.8666 -0.2010  0.9420
  335SOL     OW 1139   0.399   1.726   2.846  0.1089 -0.0095 -0.0460
  335SOL    HW1 1140   0.417   1.790   2.915 -1.0890 -0.1598  0.4370
  335SOL    HW2 1141   0.412   1.774   2.764  2.2128 -0.0134  0.2448
  336SOL     OW 1142   3.412   2.779   2.550 -0.3509 -0.4802 -0.0306
  336SOL    HW1 1143   3.489   2.748   2.503  0.8266  1.3745  0.5519
  336SOL    HW2 1144   3.342   2.780   2.485  1.1495  1.7527 -1.7702
  337SOL     OW 1145   3.423   1.068   1.574  0.3249  0.4147  0.2683
  337SOL    HW1 1146   3.439   1.036   1.663 -1.5978 -2.4192 -0.2476
  337SOL    HW2 1147   3.381   1.153   1.586  2.1870  1.1677  1.9463
  338SOL     OW 1148   1.935   3.199   3.933  0.2796  0.4383 -0.5551
  338SOL    HW1 1149   1.874   3.260   3.893 -0.4229 -0.0185 -0.1978
  338SOL    HW2 1150   2.016   3.248   3.942 -0.2963  1.3467 -0.1976
  339SOL     OW 1151   0.313   2.025   2.920  0.8662 -0.6253  0.3336
  339SOL    HW1 1152   0.395   2.052   2.879 -0.6868  2.5251 -1.1073
  339SOL    HW2 1153   0.325   2.045   3.013  1.1453  1.8131 -0.1373
  340SOL     OW 1154   2.517   2.827   3.705  0.3882  0.2918 -0.3902
  340SOL    HW1 1155   2.447   2.765   3.725  0.6993  0.2765  0.7008
  340SOL    HW2 1156   2.512   2.839   3.610 -0.5399 -0.3603 -0.4342
  341SOL     OW 1157   0.278   1.060   2.273  0.1489  0.6815 -0.6449
  341SOL    HW1 1158   0.334   1.098   2.340  1.5557  0.0835 -1.4229
  341SOL    HW2 1159   0.217   1.130   2.250  0.6729  1.4116  0.1224
  342SOL     OW 1160   1.190   0.725   1.518 -0.7062  0.0041  0.4579
  342SOL    HW1 1161   1.197   0.630   1.508 -2.3447 -0.0468 -0.5888
  342SOL    HW2 1162   1.175   0.757   1.429 -2.7281  0.9696  1.0878
  343SOL     OW 1163   0.866   1.690   1.574 -0.0826 -0.7582 -0.4584
  343SOL    HW1 1164   0.878   1.784   1.590 -1.1182 -0.7156  0.1425
  343SOL    HW2 1165   0.838   1.684   1.483  0.7635 -0.5633 -0.7435
  344SOL     OW 1166   0.432   3.359   2.308 -0.0932  0.2096 -0.3509
  344SOL    HW1 1167   0.460   3.293   2.371 -0.8965  0.8422  0.7102
  344SOL    HW2 1168   0.356   3.320   2.264  0.4355 -0.2107 -0.9014
  345SOL     OW 1169   0.734   1.745   0.074 -0.4241  0.4068 -0.1367
  345SOL    HW1 1170   0.669   1.675   0.082 -0.4212  0.5490  1.3240
  345SOL    HW2 1171   0.818   1.703   0.091 -0.4185  0.7381  0.7124
  346SOL     OW 1172   0.753   1.987   1.582  0.2285  0.1518  0.3203
  346SOL    HW1 1173   0.746   1.921   1.513  2.0977  1.5537 -1.3375
  346SOL    HW2 1174   0.728   2.069   1.538 -2.5283  0.5776  2.4411
  347SOL     OW 1175   1.930   0.816   3.819 -0.3760 -0.0646 -0.3087
  347SOL    HW1 1176   1.985   0.886   3.782  0.7110 -2.1880 -3.1090
  347SOL    HW2 1177   1.967   0.735   3.783 -0.7895 -2.3187  3.6792
  348SOL     OW 1178   3.928   1.583   2.285 -0.9320 -0.5782  0.1534
  348SOL    HW1 1179   3.859   1.528   2.248 -0.3286 -1.3095  0.1034
  348SOL    HW2 1180   3.927   1.662   2.230 -0.1033 -1.6106 -1.4045
  349SOL     OW 1181   3.544   1.657   2.861 -0.4795 -0.2234 -0.1246
  349SOL    HW1 1182   3.613   1.688   2.919 -0.3653  1.0984 -0.9327
  349SOL    HW2 1183   3.582   1.664   2.773  0.2197 -4.3021 -0.3514
  350SOL     OW 1184   0.104   1.173   0.416  0.2188 -0.1518 -0.2794
  350SOL    HW1 1185   0.195   1.193   0.437  0.3819  0.6615 -1.6166
  350SOL    HW2 1186   0.069   1.256   0.384 -1.1421 -0.3317  0.6444
  351SOL     OW 1187   2.628   3.504   0.262 -0.1042  0.5369  0.1710
  351SOL    HW1 1188   2.613   3.410   0.271 -1.9824  0.7185 -0.5835
  351SOL    HW2 1189   2.687   3.525   0.334  4.1651 -1.9214 -2.2061
  352SOL     OW 1190   2.855   2.052   0.597 -0.0001  0.6009  0.9394
  352SOL    HW1 1191   2.840   2.074   0.505  1.9388  0.7823  0.6343
  352SOL    HW2 1192   2.872   2.135   0.640 -0.5355  0.4768  1.4102
  353SOL     OW 1193   3.763   0.043   1.554  0.6836 -0.4705  0.7647
  353SOL    HW1 1194   3.773   0.063   1.461  0.9682  0.0418  0.9027
  353SOL    HW2 1195   3.670   0.024   1.565  0.7901 -1.3679  0.2178
  354SOL     OW 1196   0.162   1.986   1.728 -0.0934 -0.3145  0.3548
  354SOL    HW1 1197   0.257   1.974   1.725 -0.0019  0.3988  0.4364
  354SOL    HW2 1198   0.132   1.918   1.789  0.1308 -1.8810 -1.1895
  355SOL     OW 1199   3.409   1.435   0.660  0.3242  0.4658  0.1540
  355SOL    HW1 1200   3.319   1.467   0.660 -0.5833 -1.9322 -0.4633
  355SOL    HW2 1201   3.440   1.452   0.571  0.5260  1.3527  0.3847
  356SOL     OW 1202   0.299   0.922   1.749 -0.0401  0.0707  0.5009
  356SOL    HW1 1203   0.311   1.016   1.737 -0.6622  0.5802  3.2080
  356SOL    HW2 1204   0.225   0.900   1.693  0.8634  0.8952 -1.0956
  357SOL     OW 1205   1.216   2.381   3.218 -0.5893  0.4433 -0.2382
  357SOL    HW1 1206   1.307   2.397   3.192 -0.6229 -1.6301 -1.8728
  357SOL    HW2 1207   1.223   2.337   3.303 -0.0542  0.1167 -0.4458
  358SOL     OW 1208   2.881   3.774   1.903 -0.3057 -0.7052  0.3141
  358SOL    HW1 1209   2.868   3.866   1.878  1.0776 -0.0145  1.9223
  358SOL    HW2 1210   2.818   3.726   1.850  0.8454  0.8368 -2.6951
  359SOL     OW 1211   1.615   3.082   2.002  0.2077 -0.2553  0.2501
  359SOL    HW1 1212   1.569   3.056   2.082 -0.5756 -0.5870 -0.2878
  359SOL    HW2 1213   1.562   3.154   1.967  0.6746  0.0415  0.1521
  360SOL     OW 1214   0.295   0.955   3.650  0.0795 -0.3023 -0.3092
  360SOL    HW1 1215   0.222   1.015   3.663 -1.7915 -2.6572  0.7780
  360SOL    HW2 1216   0.343   0.958   3.733 -1.2906 -1.8489  0.5883
  361SOL     OW 1217   1.236   0.024   1.263 -0.0140  0.0032 -0.6247
  361SOL    HW1 1218   1.198  -0.062   1.249 -1.3468  0.3416  0.6706
  361SOL    HW2 1219   1.162   0.084   1.257  0.2632  0.7025  1.8243
  362SOL     OW 1220   2.875   2.973   2.033  0.8127 -0.3110 -0.1433
  362SOL    HW1 1221   2.946   3.028   1.999 -0.1933  0.6119 -0.8235
  362SOL    HW2 1222   2.913   2.928   2.108  2.8909 -1.7371 -1.8918
  363SOL     OW 1223   2.249   2.401   1.262 -0.1065 -0.2286  0.0692
  363SOL    HW1 1224   2.223   2.337   1.195  0.2879 -0.2618 -0.0561
  363SOL    HW2 1225   2.207   2.483   1.235 -0.3276 -0.3519  0.0381
  364SOL     OW 1226   1.970   2.431   3.000  0.4112  0.4752 -0.4259
  364SOL    HW1 1227   1.951   2.377   3.076  0.5557  0.9680 -0.0339
  364SOL    HW2 1228   1.958   2.521   3.030 -0.0085  0.6577 -1.1213
  365SOL     OW 1229   0.720   3.908   0.879  0.2924 -0.4908 -0.4300
  365SOL    HW1 1230   0.754   3.996   0.865  2.0078 -0.5950  2.4039
  365SOL    HW2 1231   0.790   3.850   0.849  0.8137 -0.7744  1.2234
  366SOL     OW 1232   0.149   0.496   1.884  0.2909 -0.5722  0.3427
  366SOL    HW1 1233   0.056   0.498   1.908  0.4728  1.4480  1.1320
  366SOL    HW2 1234   0.151   0.453   1.799 -1.0186 -3.1655  1.4974
  367SOL     OW 1235   3.490   1.253   2.992  0.0074 -0.5161  0.2454
  367SOL    HW1 1236   3.573   1.285   3.027 -0.2587  2.9589 -1.8296
  367SOL    HW2 1237   3.504   1.159   2.980  3.0393 -0.3313  1.4949
  368SOL     OW 1238   0.581   0.291   0.177  0.0368 -0.1633 -0.0709
  368SOL    HW1 1239   0.492   0.313   0.147  0.5881  1.1888 -0.7793
  368SOL    HW2 1240   0.638   0.346   0.125  1.2976 -0.8533  0.5477
  369SOL     OW 1241   0.428   1.101   2.521 -0.8514  0.7444  0.1237
  369SOL    HW1 1242   0.503   1.078   2.467 -2.7090 -1.2993 -1.8153
  369SOL    HW2 1243   0.463   1.159   2.588  1.9136  2.1891 -2.3391
  370SOL     OW 1244   3.043   2.137   3.515  0.4504  0.1566 -0.4260
  370SOL    HW1 1245   3.071   2.127   3.424  1.6337  0.8289 -0.1591
  370SOL    HW2 1246   3.061   2.052   3.555  2.9206  0.7804 -0.0778
  371SOL     OW 1247   1.531   3.326   1.304 -0.1582 -0.1724 -0.1891
  371SOL    HW1 1248   1.440   3.298   1.310 -0.7147  1.5595 -0.0631
  371SOL    HW2 1249   1.529   3.403   1.246  1.4357 -0.9647 -1.3515
  372SOL     OW 1250   3.656   0.983   2.688 -0.3887 -0.4269 -0.3537
  372SOL    HW1 1251   3.736   0.949   2.647 -0.2625 -0.8831  0.2507
  372SOL    HW2 1252   3.675   1.076   2.701  1.0405 -0.9368  1.9224
  373SOL     OW 1253   0.918   3.201   2.581  0.2508 -0.1777 -0.7221
  373SOL    HW1 1254   0.877   3.224   2.664  1.3205 -0.2922 -0.1513
  373SOL    HW2 1255   0.909   3.280   2.527 -0.5521 -0.1474 -0.5564
  374SOL     OW 1256   0.426   2.452   3.771 -1.1076  0.2711 -0.5365
  374SOL    HW1 1257   0.370   2.454   3.693 -1.3924  0.7482 -0.3271
  374SOL    HW2 1258   0.376   2.501   3.837 -1.1192 -0.5998  0.1116
  375SOL     OW 1259   1.280   3.666   1.592  0.0794  0.2238 -0.1867
  375SOL    HW1 1260   1.284   3.704   1.504 -1.0925  0.7464 -0.0362
  375SOL    HW2 1261   1.371   3.660   1.620  0.4009  1.1526 -0.9731
  376SOL     OW 1262   3.275   3.105   2.815  0.2675 -0.1022  0.3401
  376SOL    HW1 1263   3.225   3.175   2.858  0.1068 -0.6245  1.0176
  376SOL    HW2 1264   3.332   3.070   2.883  0.7841 -0.2383 -0.1529
  377SOL     OW 1265   0.392   3.352   3.151 -0.0494 -0.0868  0.8771
  377SOL    HW1 1266   0.376   3.264   3.186  0.7507 -0.1648  1.0740
  377SOL    HW2 1267   0.308   3.397   3.159 -0.2129 -0.5176  1.6873
  378SOL     OW 1268   3.861   3.772   3.313 -0.1125 -0.1675 -0.5959
  378SOL    HW1 1269   3.828   3.761   3.402 -0.3564  0.6114 -0.5791
  378SOL    HW2 1270   3.922   3.846   3.319 -0.8214  0.4910 -1.2350
  379SOL     OW 1271   1.655   0.080   2.623 -0.0438 -0.0878  0.0894
  379SOL    HW1 1272   1.667   0.157   2.568  1.8872 -1.3529 -1.3799
  379SOL    HW2 1273   1.570   0.044   2.597 -0.7170  1.1998  0.4142
  380SOL     OW 1274   2.275   0.797   1.825 -0.4737 -0.3991  0.3614
  380SOL    HW1 1275   2.302   0.824   1.737  0.5569  1.2980  1.1381
  380SOL    HW2 1276   2.338   0.729   1.849 -0.0365 -0.0585  0.2073
  381SOL     OW 1277   2.911   1.911   2.612 -0.1884 -0.2957 -0.0507
  381SOL    HW1 1278   2.835   1.934   2.558 -1.4159 -1.5987  1.0527
  381SOL    HW2 1279   2.883   1.835   2.662  1.7549 -0.6144  0.6396
  382SOL     OW 1280   0.606   2.612   1.339  0.5299 -0.5489  0.5060
  382SOL    HW1 1281   0.616   2.635   1.246  0.3895 -1.2024  0.3282
  382SOL    HW2 1282   0.691   2.574   1.363  1.2413  1.3083  1.1553
  383SOL     OW 1283   2.637   2.317   0.622  0.9185  0.1058 -0.5231
  383SOL    HW1 1284   2.558   2.305   0.569 -0.4970 -1.3982  1.7426
  383SOL    HW2 1285   2.681   2.393   0.583 -1.7294  1.1281 -1.7754
  384SOL     OW 1286   2.178   3.380   0.044  0.1499 -0.5636  0.0479
  384SOL    HW1 1287   2.177   3.465   0.089 -1.1082 -0.2435 -0.5247
  384SOL    HW2 1288   2.269   3.353   0.045  0.3057 -0.1050  1.9273
  385SOL     OW 1289   0.438   2.689   0.776  0.4802  0.2623 -0.0081
  385SOL    HW1 1290   0.399   2.605   0.800  3.9872 -1.2417  1.1281
  385SOL    HW2 1291   0.387   2.754   0.823 -0.4103 -1.5411  1.6479
  386SOL     OW 1292   0.668   0.957   1.039 -0.2954  0.2879 -0.1890
  386SOL    HW1 1293   0.606   1.016   1.083 -0.2368 -0.0656  0.3795
  386SOL    HW2 1294   0.660   0.874   1.087  1.2272  0.4760  0.4575
  387SOL     OW 1295   0.395   2.823   1.974  0.0116 -0.2845  0.2820
  387SOL    HW1 1296   0.380   2.732   2.001 -1.4021  0.3537  1.8509
  387SOL    HW2 1297   0.483   2.823   1.938  1.1920 -1.7411  2.8707
  388SOL     OW 1298   2.364   2.721   2.772  0.3947  0.1186 -0.2709
  388SOL    HW1 1299   2.339   2.651   2.712  0.8441  0.4873 -0.8962
  388SOL    HW2 1300   2.460   2.721   2.771  0.4025  0.5188 -0.0212
  389SOL     OW 1301   3.362   3.348   0.139 -0.1427  0.0038  0.0612
  389SOL    HW1 1302   3.427   3.377   0.075  0.7729 -0.9242  0.5468
  389SOL    HW2 1303   3.357   3.420   0.202 -0.5152  0.6094 -0.6469
  390SOL     OW 1304   1.062   2.282   3.839  0.4631 -0.1824 -0.2162
  390SOL    HW1 1305   1.021   2.353   3.889  0.9639  0.8418 -1.2118
  390SOL    HW2 1306   1.117   2.326   3.775  0.1026 -1.4554 -1.4637
  391SOL     OW 1307   0.375   2.961   3.924 -0.7822  0.0146 -0.1335
  391SOL    HW1 1308   0.313   2.937   3.993  0.6307 -3.5345  0.1029
  391SOL    HW2 1309   0.339   2.921   3.845  0.6710 -1.3341 -0.1540
  392SOL     OW 1310   3.947   2.891   2.806 -0.5481 -0.0206  0.0575
  392SOL    HW1 1311   3.938   2.826   2.736 -0.8981  0.6984 -0.5806
  392SOL    HW2 1312   3.869   2.946   2.798  0.3109  1.2139 -0.1986
  393SOL     OW 1313   1.707   0.535   1.227 -0.3528 -0.0080  0.2423
  393SOL    HW1 1314   1.749   0.474   1.166 -0.1410  2.6409 -2.4823
  393SOL    HW2 1315   1.669   0.478   1.294  0.9446 -3.0261 -1.3555
  394SOL     OW 1316   0.416   0.935   2.080  0.3750 -1.0361  0.4150
  394SOL    HW1 1317   0.366   0.975   2.152  3.0803 -0.0289  1.8954
  394SOL    HW2 1318   0.350   0.902   2.020 -2.1075  2.5496  0.8674
  395SOL     OW 1319   1.958   1.118   0.639 -0.1227  0.7661  0.4487
  395SOL    HW1 1320   1.939   1.110   0.546  0.9152 -2.5192  0.4138
  395SOL    HW2 1321   2.037   1.173   0.643 -0.5104  1.4112 -0.5388
  396SOL     OW 1322   1.954   3.590   1.480 -0.0754  0.2635  0.7441
  396SOL    HW1 1323   1.894   3.644   1.429 -0.2548  1.5711  2.2849
  396SOL    HW2 1324   2.038   3.636   1.475 -0.0794  0.3683  1.5725
  397SOL     OW 1325   2.872   3.420   1.261  0.1140  0.3068 -0.3613
  397SOL    HW1 1326   2.892   3.342   1.209  0.2088  0.6042 -0.7805
  397SOL    HW2 1327   2.811   3.469   1.207 -1.4835 -0.3934  0.7325
  398SOL     OW 1328   0.246   3.557   0.570  0.1317 -0.1572 -0.4195
  398SOL    HW1 1329   0.279   3.526   0.486  1.1427  0.4469 -0.2532
  398SOL    HW2 1330   0.177   3.494   0.593  1.3599 -1.6304 -0.6270
  399SOL     OW 1331   0.430   3.066   1.108 -0.2190  0.2000 -0.5897
  399SOL    HW1 1332   0.462   3.063   1.198  0.2218 -2.5666 -0.7544
  399SOL    HW2 1333   0.481   3.136   1.067  1.0630  0.1119  0.7925
  400SOL     OW 1334   2.804   1.847   1.944 -0.1324  0.1237  0.0281
  400SOL    HW1 1335   2.752   1.927   1.936  0.0323  0.1682 -0.6622
  400SOL    HW2 1336   2.803   1.827   2.037 -1.1050  0.3144  0.0672
  401SOL     OW 1337   3.712   0.166   2.326  0.6643 -0.0293 -0.4578
  401SOL    HW1 1338   3.717   0.206   2.413  0.2311  0.2906 -0.5763
  401SOL    HW2 1339   3.619   0.154   2.310  0.8040 -2.3081  0.1108
  402SOL     OW 1340   3.667   3.656   2.394  0.2963 -0.2638  0.0729
  402SOL    HW1 1341   3.598   3.676   2.458  1.1622  1.5327  0.5162
  402SOL    HW2 1342   3.627   3.678   2.309  0.2822  0.7361  0.3225
  403SOL     OW 1343   0.044   1.060   3.104  0.0743  0.1162 -0.2329
  403SOL    HW1 1344  -0.013   1.022   3.037  2.2010 -2.5822 -0.6736
  403SOL    HW2 1345   0.128   1.071   3.061  0.5018  2.0345  0.9716
  404SOL     OW 1346   1.414   0.650   1.954 -0.0261  0.1811  0.5838
  404SOL    HW1 1347   1.371   0.729   1.921 -0.1601 -1.1027 -2.6777
  404SOL    HW2 1348   1.350   0.610   2.013 -2.1660 -0.1094 -1.7763
  405SOL     OW 1349   0.323   0.945   0.654  0.9622  0.1641  0.0645
  405SOL    HW1 1350   0.254   1.010   0.638 -0.5343 -1.3097  0.3263
  405SOL    HW2 1351   0.351   0.918   0.567 -0.6345 -1.0833 -0.1011
  406SOL     OW 1352   3.849   1.331   3.779 -0.5833  0.1094 -0.1052
  406SOL    HW1 1353   3.837   1.278   3.857  2.0825 -1.5099 -0.6551
  406SOL    HW2 1354   3.762   1.339   3.741 -1.7186 -0.2479  2.2388
  407SOL     OW 1355   2.461   2.435   3.784  1.0374  0.2785 -0.3906
  407SOL    HW1 1356   2.474   2.392   3.699 -0.4336  0.8839 -0.9566
  407SOL    HW2 1357   2.418   2.518   3.762 -0.4815 -0.1016  1.0248
  408SOL     OW 1358   2.377   0.338   3.683 -0.0043 -0.4429 -0.9245
  408SOL    HW1 1359   2.472   0.344   3.674 -0.0863  1.1822 -0.9167
  408SOL    HW2 1360   2.347   0.429   3.690 -1.4687 -0.9536  0.0136
  409SOL     OW 1361   2.708   0.558   1.052 -0.1120  0.3679 -0.4498
  409SOL    HW1 1362   2.780   0.617   1.074  1.3312 -0.3808 -2.8246
  409SOL    HW2 1363   2.749   0.473   1.036 -1.3144  0.1274 -2.8110
  410SOL     OW 1364   3.456   3.117   3.957  0.0701  0.3740 -0.5168
  410SOL    HW1 1365   3.389   3.127   4.024 -2.7166 -1.9900 -2.7024
  410SOL    HW2 1366   3.460   3.202   3.913  0.6563  1.3883  1.3888
  411SOL     OW 1367   3.195   1.255   0.568  0.5311 -0.1606  0.0753
  411SOL    HW1 1368   3.167   1.168   0.540  0.5732 -0.3485  0.6125
  411SOL    HW2 1369   3.287   1.244   0.593  0.5816  0.0718 -0.0071
  412SOL     OW 1370   0.138   2.520   0.217 -0.5323 -0.0429  0.0726
  412SOL    HW1 1371   0.180   2.490   0.298 -1.3187  1.8626  1.2304
  412SOL    HW2 1372   0.065   2.573   0.245 -1.2768  0.0809 -1.9219
  413SOL     OW 1373   0.130   2.925   0.155  0.0307  0.1463  0.5767
  413SOL    HW1 1374   0.075   2.850   0.172 -3.1787  2.0086 -0.7384
  413SOL    HW2 1375   0.095   2.964   0.075  2.2643  2.4083  0.5468
  414SOL     OW 1376   2.779   3.257   0.946  0.5145  0.0385 -0.3065
  414SOL    HW1 1377   2.717   3.325   0.972  1.1865  0.0307  1.4108
  414SOL    HW2 1378   2.746   3.226   0.861 -1.1652  0.8266  0.0168
  415SOL     OW 1379   2.343   2.400   3.339  0.0574  0.2897 -0.9059
  415SOL    HW1 1380   2.314   2.355   3.261 -1.0716  0.5489 -0.6531
  415SOL    HW2 1381   2.391   2.334   3.389 -0.6426 -0.3208 -1.0381
  416SOL     OW 1382   2.204   0.630   2.492 -0.3390  0.2811  0.3374
  416SOL    HW1 1383   2.117   0.592   2.508 -0.7406  1.5221  1.3540
  416SOL    HW2 1384   2.206   0.647   2.398 -0.8414 -0.5653  0.1610
  417SOL     OW 1385   2.638   2.738   2.079 -0.4668 -0.1884  0.1321
  417SOL    HW1 1386   2.654   2.702   1.992  0.4102  0.5190 -0.0116
  417SOL    HW2 1387   2.601   2.825   2.064 -1.5666 -0.5794  0.4779
  418SOL     OW 1388   1.711   2.333   3.650  0.0332  0.4882  0.5449
  418SOL    HW1 1389   1.734   2.277   3.724 -1.4675  0.2793  0.8943
  418SOL    HW2 1390   1.791   2.381   3.630  0.9515 -0.7187  1.1678
  419SOL     OW 1391   2.075   1.817   1.477 -0.4976  0.4345 -0.2857
  419SOL    HW1 1392   2.093   1.736   1.526 -0.7002  0.8892  0.5744
  419SOL    HW2 1393   2.090   1.794   1.386 -0.8886 -0.6672 -0.0897
  420SOL     OW 1394   3.700   2.689   3.274 -0.0669 -0.0582 -0.4306
  420SOL    HW1 1395   3.702   2.665   3.366 -2.0281  1.1433 -0.0175
  420SOL    HW2 1396   3.741   2.615   3.229  3.6161  0.5110  1.5490
  421SOL     OW 1397   1.686   1.170   3.125 -0.6010 -0.1733  0.7227
  421SOL    HW1 1398   1.762   1.189   3.180 -2.6141  1.5411  3.1504
  421SOL    HW2 1399   1.722   1.127   3.048  2.9310  1.5054  1.2464
  422SOL     OW 1400   1.473   3.871   3.721 -0.8037 -0.0547  0.0122
  422SOL    HW1 1401   1.451   3.804   3.658 -1.9631 -0.8241  1.1890
  422SOL    HW2 1402   1.433   3.951   3.687 -2.0003 -0.6046  0.1081
  423SOL     OW 1403   0.081   1.588   1.678  0.1169 -0.5030  0.0550
  423SOL    HW1 1404   0.140   1.661   1.696  1.1269 -0.3931 -3.0389
  423SOL    HW2 1405   0.113   1.517   1.734 -0.0038  0.9233  2.0613
  424SOL     OW 1406   1.599   0.678   2.895 -0.5466  0.0669 -0.3976
  424SOL    HW1 1407   1.543   0.701   2.821 -2.1380  3.6719  1.6791
  424SOL    HW2 1408   1.538   0.648   2.963  0.2963  1.2053  0.9261
  425SOL     OW 1409   1.320   2.988   1.278 -0.2363  0.9181 -0.5047
  425SOL    HW1 1410   1.369   2.939   1.343 -2.7348 -0.1895  0.6974
  425SOL    HW2 1411   1.285   2.922   1.219 -1.9728  1.3744 -0.0670
  426SOL     OW 1412   2.657   2.210   2.280 -0.5625 -0.4512  1.2084
  426SOL    HW1 1413   2.708   2.289   2.262 -1.6928 -0.2462 -1.5242
  426SOL    HW2 1414   2.566   2.240   2.284 -0.9746 -1.5659  0.4726
  427SOL     OW 1415   2.642   0.376   2.777 -0.2147  0.1563  0.1323
  427SOL    HW1 1416   2.728   0.391   2.738  0.1643  2.3260  1.5898
  427SOL    HW2 1417   2.585   0.440   2.733 -1.4162 -1.9782 -1.5872
  428SOL     OW 1418   3.255   0.233   0.692 -0.8867  0.1800  0.1804
  428SOL    HW1 1419   3.279   0.215   0.784 -1.7765 -0.0371  0.3781
  428SOL    HW2 1420   3.310   0.173   0.642  0.9140  1.5100  0.4307
  429SOL     OW 1421   0.244   3.675   3.253 -0.4317 -0.4509 -0.7875
  429SOL    HW1 1422   0.152   3.652   3.240 -0.8567  0.3677  0.5904
  429SOL    HW2 1423   0.271   3.621   3.328  0.6883 -1.8425 -2.1152
  430SOL     OW 1424   3.300   1.492   1.759 -0.6473 -0.6642 -0.0828
  430SOL    HW1 1425   3.371   1.556   1.748 -0.3911 -1.2973 -2.7520
  430SOL    HW2 1426   3.345   1.411   1.785 -0.7684 -0.3268  1.2753
  431SOL     OW 1427   3.456   3.899   2.732  0.1643  0.2519 -0.0279
  431SOL    HW1 1428   3.494   3.819   2.767 -1.5347 -1.5950 -2.0307
  431SOL    HW2 1429   3.399   3.931   2.802 -0.9108 -1.6579  0.0502
  432SOL     OW 1430   2.719   1.986   3.724 -0.4538  0.5058 -0.1901
  432SOL    HW1 1431   2.647   1.954   3.777  0.8145 -0.7488  0.8603
  432SOL    HW2 1432   2.746   2.068   3.765 -0.7427  0.5551 -0.0978
  433SOL     OW 1433   2.883   2.385   2.648 -0.5393 -0.3118 -0.5561
  433SOL    HW1 1434   2.969   2.426   2.647 -0.2185 -0.9510 -1.9499
  433SOL    HW2 1435   2.858   2.383   2.740  1.0431 -0.3285 -0.1044
  434SOL     OW 1436   3.125   2.424   3.394 -0.1588  0.6585  0.5061
  434SOL    HW1 1437   3.112   2.365   3.320  1.4192  1.2687 -0.3119
  434SOL    HW2 1438   3.037   2.443   3.425 -0.7349 -2.5992  1.2490
  435SOL     OW 1439   2.707   3.021   0.498 -0.1884  0.2581  0.9188
  435SOL    HW1 1440   2.796   3.054   0.507  0.1018 -0.7803  2.0416
  435SOL    HW2 1441   2.715   2.926   0.508 -1.1899 -0.0518 -0.8120
  436SOL     OW 1442   1.607   1.974   0.635 -0.1782 -0.1641 -0.3041
  436SOL    HW1 1443   1.579   1.980   0.544  0.8294  0.3014 -0.6043
  436SOL    HW2 1444   1.602   1.880   0.655 -1.4899 -0.1423 -0.4623
  437SOL     OW 1445   0.764   2.328   1.802  0.3538  0.0730  0.1474
  437SOL    HW1 1446   0.809   2.263   1.857  0.6032 -0.0339 -0.1782
  437SOL    HW2 1447   0.784   2.411   1.844 -1.4863 -0.1647  1.6414
  438SOL     OW 1448   1.802   2.170   1.252 -0.0298  0.7752  0.0988
  438SOL    HW1 1449   1.842   2.103   1.308  0.5066  0.7780 -0.2741
  438SOL    HW2 1450   1.818   2.252   1.298 -0.6511  0.6564  0.5372
  439SOL     OW 1451   1.898   0.762   3.208  0.7777  0.4457 -0.0305
  439SOL    HW1 1452   1.972   0.783   3.150 -0.1215  2.6310 -0.5096
  439SOL    HW2 1453   1.822   0.798   3.163  0.0173  2.1380  2.3914
  440SOL     OW 1454   0.906   1.305   0.439  0.0245 -0.0807 -0.1450
  440SOL    HW1 1455   0.895   1.374   0.505 -3.3864  0.8882 -1.5525
  440SOL    HW2 1456   0.938   1.351   0.361 -0.7677 -0.3538 -0.6337
  441SOL     OW 1457   0.074   0.038   1.997  0.5368  0.0401 -0.0234
  441SOL    HW1 1458   0.046   0.098   1.927 -0.6555  1.5792  1.6746
  441SOL    HW2 1459   0.082   0.094   2.074  1.1243 -1.7293  1.2489
  442SOL     OW 1460   1.394   0.011   2.547 -0.3951 -0.6870  0.0835
  442SOL    HW1 1461   1.338  -0.051   2.594 -2.3034 -1.6316 -3.1729
  442SOL    HW2 1462   1.440  -0.043   2.482 -0.6503  0.9923 -1.5609
  443SOL     OW 1463   2.146   2.897   2.861  0.1876  0.0723  0.0356
  443SOL    HW1 1464   2.221   2.846   2.890 -0.2331  0.3993  1.8798
  443SOL    HW2 1465   2.086   2.832   2.824  0.7309 -0.4103 -0.0108
  444SOL     OW 1466   1.721   2.734   2.478  0.6167 -0.1409  0.4111
  444SOL    HW1 1467   1.673   2.679   2.540 -0.7422 -0.5859 -0.9643
  444SOL    HW2 1468   1.775   2.791   2.532 -1.9516  0.8356  2.1144
  445SOL     OW 1469   1.451   2.171   3.273  0.1209  0.1782  0.1573
  445SOL    HW1 1470   1.462   2.152   3.366 -0.0827 -2.7683 -0.3269
  445SOL    HW2 1471   1.366   2.133   3.250  0.0203  1.1346 -1.1677
  446SOL     OW 1472   1.076   2.338   1.339 -0.3168 -0.1385  0.1770
  446SOL    HW1 1473   1.005   2.288   1.379 -0.5526 -0.3603 -0.5004
  446SOL    HW2 1474   1.149   2.276   1.333  0.3211  0.3968  1.8883
  447SOL     OW 1475   0.622   3.281   1.380  0.3591 -0.3565  0.3272
  447SOL    HW1 1476   0.636   3.252   1.290  0.9397  0.0784  0.2694
  447SOL    HW2 1477   0.661   3.369   1.383  0.5512 -0.4635  1.0604
  448SOL     OW 1478   0.798   3.066   3.571 -0.2117  0.3787 -0.0776
  448SOL    HW1 1479   0.875   3.033   3.616 -0.6400  0.0959  0.4640
  448SOL    HW2 1480   0.772   3.144   3.621  0.6812  1.4461 -1.2318
  449SOL     OW 1481   0.012   0.191   0.571  0.0018 -0.6176  0.0052
  449SOL    HW1 1482   0.098   0.232   0.560  0.0618 -0.9564 -0.9283
  449SOL    HW2 1483  -0.046   0.241   0.513 -1.2923  1.8783  3.1480
  450SOL     OW 1484   0.775   1.872   0.853  0.0052  0.0040  0.2060
  450SOL    HW1 1485   0.686   1.859   0.822  0.9192 -0.3723 -2.5334
  450SOL    HW2 1486   0.808   1.783   0.869  1.2843 -0.3340 -3.4025
  451SOL     OW 1487   1.753   0.116   0.483  0.4199  0.7133 -0.1174
  451SOL    HW1 1488   1.806   0.038   0.467 -0.0525  0.5427 -0.9342
  451SOL    HW2 1489   1.695   0.122   0.407 -3.0920 -1.0021  2.1273
  452SOL     OW 1490   0.739   1.115   0.188  0.2123  0.4207 -0.1674
  452SOL    HW1 1491   0.648   1.141   0.205 -0.0587 -0.5325 -0.0730
  452SOL    HW2 1492   0.791   1.193   0.208 -0.6167  1.0791 -0.5512
  453SOL     OW 1493   3.193   3.571   2.225 -0.5283 -0.1531  0.2934
  453SOL    HW1 1494   3.158   3.488   2.256 -1.5571  0.0154 -0.3645
  453SOL    HW2 1495   3.176   3.570   2.130  0.6526  0.2331  0.0713
  454SOL     OW 1496   1.225   2.150   2.779  0.2531  0.0048 -0.1467
  454SOL    HW1 1497   1.149   2.190   2.738  1.8279  2.3871 -0.8942
  454SOL    HW2 1498   1.276   2.115   2.706  1.6856  1.7844 -0.0593
  455SOL     OW 1499   1.318   2.655   3.793  0.2110 -0.1454  0.1677
  455SOL    HW1 1500   1.382   2.676   3.725 -0.5674 -0.7434 -0.7848
  455SOL    HW2 1501   1.239   2.632   3.744 -0.2030 -1.1256  1.2639
  456SOL     OW 1502   0.646   2.855   0.112 -0.1952  0.1803  0.1517
  456SOL    HW1 1503   0.637   2.914   0.187  1.4457  2.0613 -1.0414
  456SOL    HW2 1504   0.557   2.846   0.078 -0.9714 -0.6756  2.2314
  457SOL     OW 1505   3.309   2.955   3.150 -0.2139  0.1174 -0.1867
  457SOL    HW1 1506   3.266   3.036   3.123 -0.7039 -0.2986 -0.6933
  457SOL    HW2 1507   3.393   2.956   3.106  0.4736  1.1039  1.0825
  458SOL     OW 1508   3.025   2.370   0.343 -0.6613 -0.0778 -0.0821
  458SOL    HW1 1509   3.114   2.367   0.376  0.1728  0.2258 -2.1431
  458SOL    HW2 1510   2.998   2.278   0.337 -0.6763 -0.1544  0.9406
  459SOL     OW 1511   1.134   1.974   2.978 -0.2487  1.0038 -0.3642
  459SOL    HW1 1512   1.164   2.041   2.916  2.2383 -0.5222 -0.9708
  459SOL    HW2 1513   1.211   1.918   2.991 -2.0093 -1.3452  0.6092
  460SOL     OW 1514   0.937   1.682   2.812  0.2356 -0.0473  0.4823
  460SOL    HW1 1515   0.934   1.736   2.891 -3.7861 -0.2504  0.6865
  460SOL    HW2 1516   0.937   1.592   2.844  4.6845 -0.3570  0.1217
  461SOL     OW 1517   1.016   2.548   0.754 -0.3773 -0.0825  0.2324
  461SOL    HW1 1518   1.087   2.609   0.734 -0.3673  0.1605  0.9920
  461SOL    HW2 1519   0.960   2.596   0.816  0.2026 -1.2262  1.6763
  462SOL     OW 1520   0.187   2.132   0.325  0.1552  0.3677  0.2770
  462SOL    HW1 1521   0.196   2.215   0.372 -0.2804  1.3427 -1.2990
  462SOL    HW2 1522   0.093   2.119   0.317  0.2219 -0.1599  0.2787
  463SOL     OW 1523   0.964   2.921   1.347 -0.1545 -0.3963  0.3225
  463SOL    HW1 1524   0.961   2.914   1.252  0.6399 -0.2458  0.2853
  463SOL    HW2 1525   0.995   2.835   1.376  1.6201  0.2189  0.3204
  464SOL     OW 1526   0.770   1.867   1.347  0.2265  0.0728 -0.6085
  464SOL    HW1 1527   0.827   1.817   1.289  3.8353  1.7968  1.1149
  464SOL    HW2 1528   0.770   1.956   1.311  0.5016  0.6071  0.6559
  465SOL     OW 1529   2.445   3.575   2.584  0.8573  0.0175  0.0091
  465SOL    HW1 1530   2.409   3.596   2.671  0.8506 -1.6202  0.4433
  465SOL    HW2 1531   2.454   3.660   2.541 -1.6575  0.6766  0.6094
  466SOL     OW 1532   2.130   2.527   0.536  0.3486  0.6090 -0.0584
  466SOL    HW1 1533   2.077   2.453   0.566  2.3536 -0.7638  0.3077
  466SOL    HW2 1534   2.121   2.527   0.441  0.3430 -0.1244 -0.0619
  467SOL     OW 1535   1.687   1.988   3.285  0.0639  0.5466 -0.3975
  467SOL    HW1 1536   1.645   1.983   3.199 -2.2222  0.8197  0.6377
  467SOL    HW2 1537   1.655   2.070   3.323  0.9956  0.4019  0.7638
  468SOL     OW 1538   1.297   2.805   2.872  0.3013  0.2184 -0.3388
  468SOL    HW1 1539   1.253   2.889   2.884 -0.4032 -0.3881  1.8028
  468SOL    HW2 1540   1.347   2.792   2.953 -1.4792 -2.4295  0.4808
  469SOL     OW 1541   2.393   3.369   1.264 -0.6395  0.2212 -0.1293
  469SOL    HW1 1542   2.377   3.280   1.234 -1.6698 -0.0249  1.0722
  469SOL    HW2 1543   2.461   3.359   1.332  2.3982  0.8719 -2.8174
  470SOL     OW 1544   2.395   1.424   1.074 -0.3393 -0.1988 -0.4061
  470SOL    HW1 1545   2.402   1.519   1.086  1.2024 -0.1627 -1.3278
  470SOL    HW2 1546   2.312   1.401   1.115 -0.4950  1.4685  0.3059
  471SOL     OW 1547   3.082   3.356   3.763 -0.2293 -0.5603  0.0141
  471SOL    HW1 1548   3.076   3.261   3.762 -1.5947 -0.4890 -1.6165
  471SOL    HW2 1549   3.158   3.377   3.708 -1.4108 -0.6778 -1.7464
  472SOL     OW 1550   2.100   3.660   0.186 -0.0600  0.3580 -0.8100
  472SOL    HW1 1551   2.158   3.643   0.259 -1.3693 -0.9552 -0.0227
  472SOL    HW2 1552   2.059   3.744   0.207  0.8264  0.8294 -0.9130
  473SOL     OW 1553   3.148   3.568   0.005  0.0614  0.8685 -0.1669
  473SOL    HW1 1554   3.161   3.481   0.043  1.7748  0.6576 -1.1295
  473SOL    HW2 1555   3.054   3.584   0.014 -0.2973 -1.0796  0.0159
  474SOL     OW 1556   1.823   0.185   0.780  0.2824  0.1169  0.5430
  474SOL    HW1 1557   1.885   0.116   0.803  0.2292 -0.1620 -0.1178
  474SOL    HW2 1558   1.782   0.154   0.699 -0.9237  0.1608  1.1183
  475SOL     OW 1559   1.556   1.756   1.092 -0.0964 -0.2171  0.7427
  475SOL    HW1 1560   1.646   1.785   1.111  0.1894 -0.5651 -0.0343
  475SOL    HW2 1561   1.563   1.710   1.009 -0.7270 -1.6531  1.4571
  476SOL     OW 1562   2.892   2.389   1.169  0.6549 -0.1872  0.3847
  476SOL    HW1 1563   2.815   2.354   1.124 -1.0725 -0.3284  3.2038
  476SOL    HW2 1564   2.955   2.317   1.166 -0.0945 -0.8454 -0.1740
  477SOL     OW 1565   2.127   0.929   3.030 -0.2846 -0.5883  0.0291
  477SOL    HW1 1566   2.121   0.924   2.934 -0.5167 -2.1397  0.0950
  477SOL    HW2 1567   2.219   0.912   3.049 -0.7180 -3.1746  0.1656
  478SOL     OW 1568   0.780   2.018   3.210  0.4598 -0.6824 -0.1090
  478SOL    HW1 1569   0.800   1.996   3.301  2.1107 -0.2919 -0.3468
  478SOL    HW2 1570   0.695   2.061   3.214 -0.4395 -2.4361  0.9847
  479SOL     OW 1571   0.520   3.794   1.067  0.3407 -0.2357  0.4710
  479SOL    HW1 1572   0.574   3.851   1.012 -1.2106 -0.4910 -1.4467
  479SOL    HW2 1573   0.451   3.763   1.008 -1.7159 -0.1649  2.7084
  480SOL     OW 1574   1.023   0.121   2.235  0.0008  0.8667 -0.2705
  480SOL    HW1 1575   1.022   0.214   2.212  2.9452  1.0394 -0.0359
  480SOL    HW2 1576   1.038   0.076   2.152 -0.6618  0.6376 -0.2722
  481SOL     OW 1577   0.822   1.437   3.440  0.3075  0.2850 -0.1828
  481SOL    HW1 1578   0.756   1.462   3.375  1.9674  3.7528 -0.7610
  481SOL    HW2 1579   0.887   1.387   3.391 -1.3276 -2.4550  0.2298
  482SOL     OW 1580   3.033   3.002   2.396 -0.0189 -0.0625  0.2458
  482SOL    HW1 1581   3.043   2.968   2.485  1.3962  1.4021  0.7024
  482SOL    HW2 1582   2.982   3.083   2.406  3.0315  2.0517  0.3378
  483SOL     OW 1583   3.845   2.937   1.738  0.3423 -0.3211  0.1657
  483SOL    HW1 1584   3.870   2.858   1.689 -2.8389 -0.4414 -1.5271
  483SOL    HW2 1585   3.919   2.953   1.797  2.5091 -2.6728 -1.6867
  484SOL     OW 1586   3.512   1.862   1.402  0.6545  0.4239 -0.3537
  484SOL    HW1 1587   3.552   1.942   1.435 -0.7123  1.0753 -0.2035
  484SOL    HW2 1588   3.440   1.892   1.346  0.7297 -0.6940 -1.0886
  485SOL     OW 1589   3.691   3.288   0.518 -0.4139  0.3473  0.0480
  485SOL    HW1 1590   3.630   3.229   0.474  0.3666  0.3185 -1.0077
  485SOL    HW2 1591   3.666   3.375   0.489 -0.9964  0.4848  0.9152
  486SOL     OW 1592   0.343   1.373   2.805  0.2359 -0.1586  0.0545
  486SOL    HW1 1593   0.334   1.425   2.725 -0.8227 -2.3108 -1.3319
  486SOL    HW2 1594   0.417   1.316   2.788 -1.4196 -2.2783 -0.4579
  487SOL     OW 1595   3.543   2.197   0.418  0.3830 -0.2797 -0.4036
  487SOL    HW1 1596   3.611   2.244   0.370  0.6004 -0.4489 -0.2624
  487SOL    HW2 1597   3.476   2.178   0.352  1.2649 -1.6706 -0.9536
  488SOL     OW 1598   0.569   1.255   3.320  0.0940 -0.2142  0.4174
  488SOL    HW1 1599   0.526   1.311   3.385  0.2073  0.1217  0.2052
  488SOL    HW2 1600   0.498   1.210   3.276  0.0095 -0.3437  0.6849
  489SOL     OW 1601   2.562   3.857   0.594  0.0828 -0.0094 -0.1747
  489SOL    HW1 1602   2.556   3.764   0.573 -1.4230 -0.1481  0.7270
  489SOL    HW2 1603   2.485   3.896   0.552  0.7994  0.8814 -0.7039
  490SOL     OW 1604   3.106   2.969   2.643 -0.5288  0.5129 -0.2006
  490SOL    HW1 1605   3.179   3.028   2.663 -0.9060  0.6810  0.7595
  490SOL    HW2 1606   3.068   2.949   2.728 -0.6027 -0.8839 -0.5430
  491SOL     OW 1607   0.689   2.060   0.466 -0.0467  0.4220  0.2433
  491SOL    HW1 1608   0.683   2.088   0.375 -1.1804 -0.2324  0.0923
  491SOL    HW2 1609   0.644   1.975   0.468  2.0474 -0.7550  0.9414
  492SOL     OW 1610   3.016   0.324   1.896 -0.6953  0.2333 -0.2809
  492SOL    HW1 1611   3.036   0.375   1.817  2.1498 -1.4908 -0.7986
  492SOL    HW2 1612   3.084   0.350   1.958  0.8500 -2.7724 -0.5648
  493SOL     OW 1613   0.711   0.346   0.562  0.1609  0.6381  0.0833
  493SOL    HW1 1614   0.716   0.416   0.497 -1.3878  0.8590  0.1556
  493SOL    HW2 1615   0.788   0.359   0.617  1.4683  0.5059 -1.6187
  494SOL     OW 1616   3.272   1.189   1.221 -0.6596  0.2858 -0.2533
  494SOL    HW1 1617   3.324   1.127   1.272 -0.2855  2.0415  1.6406
  494SOL    HW2 1618   3.332   1.260   1.201 -1.5731  0.9815 -0.6118
  495SOL     OW 1619   3.465   2.565   1.469  0.0322  0.3495 -0.1004
  495SOL    HW1 1620   3.523   2.489   1.466 -1.6079 -1.0504  1.4287
  495SOL    HW2 1621   3.482   2.605   1.554 -0.4450  0.5953 -0.1195
  496SOL     OW 1622   3.564   2.650   0.588 -0.3730  0.0184  0.4096
  496SOL    HW1 1623   3.586   2.743   0.585 -1.3243  0.2664  0.5349
  496SOL    HW2 1624   3.579   2.618   0.499 -1.2781  0.6109  0.0301
  497SOL     OW 1625   3.542   2.372   2.215  0.1080  1.1083 -0.6356
  497SOL    HW1 1626   3.573   2.288   2.250 -2.0356 -0.0046 -1.2273
  497SOL    HW2 1627   3.533   2.357   2.121 -0.8193  1.8244 -0.6732
  498SOL     OW 1628   1.834   3.314   3.393  0.1109 -0.0077 -0.0036
  498SOL    HW1 1629   1.922   3.307   3.354  0.1381  0.9525 -0.1325
  498SOL    HW2 1630   1.788   3.236   3.360  1.2162 -1.0993  0.9027
  499SOL     OW 1631   1.914   3.715   2.039  0.0005  0.1982 -0.2896
  499SOL    HW1 1632   1.868   3.680   2.115  2.8160 -1.4394  0.8146
  499SOL    HW2 1633   1.962   3.640   2.004  1.6865  1.7400 -1.4530
  500SOL     OW 1634   1.146   0.983   0.180  0.4398  0.4915 -0.5048
  500SOL    HW1 1635   1.144   1.057   0.119  1.3150  1.5418  0.6998
  500SOL    HW2 1636   1.064   0.936   0.162 -0.0552  1.6453 -1.4157
  501SOL     OW 1637   3.200   3.457   0.948 -0.4552  0.3041 -0.1599
  501SOL    HW1 1638   3.281   3.470   0.898 -0.4371  1.1044  0.0634
  501SOL    HW2 1639   3.227   3.401   1.021 -0.2958 -0.1441 -0.5516
  502SOL     OW 1640   3.370   3.502   1.706 -0.1662 -0.2684 -0.3109
  502SOL    HW1 1641   3.402   3.583   1.746 -0.1800  0.1083 -1.0603
  502SOL    HW2 1642   3.442   3.473   1.650  0.4048 -1.5324  0.9824
  503SOL     OW 1643   2.932   2.265   0.763 -0.6539  0.1833  0.1657
  503SOL    HW1 1644   2.935   2.361   0.760  0.1245  0.1368 -1.2130
  503SOL    HW2 1645   2.877   2.245   0.839 -2.1898  1.7335 -0.4659
  504SOL     OW 1646   0.594   0.640   3.692  0.2442  0.2225 -0.6191
  504SOL    HW1 1647   0.663   0.583   3.658 -0.1051  0.3710 -1.5990
  504SOL    HW2 1648   0.640   0.701   3.750  0.7330 -0.5303 -0.1928
  505SOL     OW 1649   1.388   3.606   3.616  0.1082  0.4017  0.0831
  505SOL    HW1 1650   1.372   3.521   3.657  0.6405  0.5300  0.5722
  505SOL    HW2 1651   1.479   3.602   3.587 -0.0979  0.5158 -0.6088
  506SOL     OW 1652   0.117   1.839   0.736  0.1608  0.5022 -0.0836
  506SOL    HW1 1653   0.064   1.760   0.744  2.6564 -1.2690 -0.1205
  506SOL    HW2 1654   0.114   1.861   0.643 -1.2398  1.0128  0.0588
  507SOL     OW 1655   0.564   1.559   3.025  0.6244 -0.6713 -0.1415
  507SOL    HW1 1656   0.530   1.625   2.965  0.1679  2.0588  2.8015
  507SOL    HW2 1657   0.509   1.483   3.011 -2.0736  1.2043 -0.5186
  508SOL     OW 1658   1.187   1.303   0.919 -0.1009 -0.1941  0.1606
  508SOL    HW1 1659   1.179   1.219   0.874  3.5511 -1.8857  2.1776
  508SOL    HW2 1660   1.112   1.307   0.978 -0.3656 -2.0346 -0.0174
  509SOL     OW 1661   1.713   3.492   1.545 -0.1356  0.1127 -1.0512
  509SOL    HW1 1662   1.682   3.457   1.461  1.3900 -0.0800 -1.5791
  509SOL    HW2 1663   1.800   3.527   1.525  0.6223 -0.6850  0.6175
  510SOL     OW 1664   3.255   3.812   2.309 -0.1360  0.2602  0.1989
  510SOL    HW1 1665   3.190   3.868   2.267 -0.2284 -0.0390 -0.0517
  510SOL    HW2 1666   3.217   3.725   2.308  0.0464  0.1750  0.5174
  511SOL     OW 1667   1.203   1.283   0.341 -0.6736 -0.8119  0.4259
  511SOL    HW1 1668   1.138   1.246   0.282 -0.1528 -0.7387 -0.1976
  511SOL    HW2 1669   1.155   1.346   0.394 -0.7925  0.5247 -1.1891
  512SOL     OW 1670   0.243   2.700   2.753 -0.1349 -0.3364  0.0640
  512SOL    HW1 1671   0.298   2.707   2.831 -1.9134  0.5403  1.3117
  512SOL    HW2 1672   0.235   2.790   2.721 -1.2902 -0.3570  0.2521
  513SOL     OW 1673   0.003   1.852   3.892 -0.0698  0.2168 -0.2795
  513SOL    HW1 1674  -0.053   1.779   3.921  1.0825 -0.2950  0.7575
  513SOL    HW2 1675  -0.055   1.906   3.838 -1.2775 -0.8383 -0.1049
  514SOL     OW 1676   2.673   0.169   2.075 -0.9410 -0.1534 -0.8494
  514SOL    HW1 1677   2.731   0.096   2.097 -1.0360  0.0105 -0.0363
  514SOL    HW2 1678   2.715   0.246   2.113 -2.1137 -0.1591  0.5483
  515SOL     OW 1679   1.694   3.075   3.312 -0.2068 -0.1483 -0.3856
  515SOL    HW1 1680   1.601   3.092   3.324 -0.3323 -1.0828  0.0370
  515SOL    HW2 1681   1.724   3.043   3.397 -0.1248 -2.5048 -1.2333
  516SOL     OW 1682   1.932   3.066   1.412 -0.4176  0.5014  0.7511
  516SOL    HW1 1683   2.008   3.113   1.445  0.7568 -1.1980  0.6380
  516SOL    HW2 1684   1.880   3.046   1.490  0.3957 -0.2097  1.1277
  517SOL     OW 1685   0.180   0.291   1.660  0.5858  0.2511 -0.3993
  517SOL    HW1 1686   0.179   0.363   1.597  0.2475  1.7024  1.1956
  517SOL    HW2 1687   0.264   0.298   1.704  1.4496 -1.6547 -1.5986
  518SOL     OW 1688   2.146   0.215   2.540  0.5436 -0.1062 -0.0831
  518SOL    HW1 1689   2.134   0.175   2.454 -0.1958 -1.1354  0.4727
  518SOL    HW2 1690   2.233   0.188   2.568  0.7110  0.0787 -0.4190
  519SOL     OW 1691   1.594   1.978   3.033  0.1843  0.0263 -0.4489
  519SOL    HW1 1692   1.560   1.888   3.034 -0.9882  0.4513  0.2236
  519SOL    HW2 1693   1.533   2.026   2.978 -0.0705  0.7124  0.4046
  520SOL     OW 1694   2.378   1.451   1.575  0.2977  0.0602 -0.2613
  520SOL    HW1 1695   2.461   1.467   1.529 -0.0965  2.2855 -0.2893
  520SOL    HW2 1696   2.398   1.468   1.667 -0.2608  1.3423 -0.3527
  521SOL     OW 1697   3.498   2.478   3.286 -0.2795 -0.4185  0.0131
  521SOL    HW1 1698   3.446   2.534   3.343 -0.9448 -1.8199  0.8575
  521SOL    HW2 1699   3.583   2.521   3.281 -0.5022  0.2230  1.3219
  522SOL     OW 1700   2.871   0.070   1.834 -0.8139 -0.6776 -0.2565
  522SOL    HW1 1701   2.938   0.138   1.839 -1.6495  0.1176  0.7545
  522SOL    HW2 1702   2.802   0.109   1.780 -1.3013 -0.7128  0.3311
  523SOL     OW 1703   1.477   3.165   2.906  0.2281 -0.0100 -0.0622
  523SOL    HW1 1704   1.547   3.214   2.864  0.0071  2.0302  1.7643
  523SOL    HW2 1705   1.508   3.153   2.996 -0.9055 -0.8998  0.2273
  524SOL     OW 1706   0.339   2.877   2.559 -0.5154 -0.1838 -0.0243
  524SOL    HW1 1707   0.330   2.933   2.636  1.4491  1.6270 -0.9715
  524SOL    HW2 1708   0.430   2.847   2.562 -0.8719 -1.4062 -0.8014
  525SOL     OW 1709   1.043   0.408   2.270 -0.2853 -0.8162  0.1863
  525SOL    HW1 1710   1.001   0.453   2.344  1.5916  0.1137  0.7448
  525SOL    HW2 1711   1.014   0.458   2.193  0.7040  0.5703  0.6765
  526SOL     OW 1712   1.671   0.440   2.687 -1.0846  0.1840 -0.3510
  526SOL    HW1 1713   1.594   0.434   2.632 -2.0415  0.8279  0.8571
  526SOL    HW2 1714   1.636   0.452   2.776  0.3953  0.1510  0.2657
  527SOL     OW 1715   0.448   2.851   3.397  0.4206 -0.0150 -0.1069
  527SOL    HW1 1716   0.364   2.856   3.442  0.8186  0.0746  0.6436
  527SOL    HW2 1717   0.469   2.942   3.376 -0.8661 -0.2142 -2.6094
  528SOL     OW 1718   2.620   3.056   3.520 -0.3467 -0.3967 -0.0873
  528SOL    HW1 1719   2.561   3.117   3.564 -0.2177 -0.7175  0.5404
  528SOL    HW2 1720   2.563   2.998   3.470 -0.5411 -0.5138  0.2739
  529SOL     OW 1721   3.264   2.692   1.082 -0.1401  0.0719 -0.0229
  529SOL    HW1 1722   3.174   2.697   1.050  0.3261 -0.2676 -1.4451
  529SOL    HW2 1723   3.262   2.735   1.168 -1.8707 -0.8966  0.4588
  530SOL     OW 1724   0.955   1.011   3.170  0.3756  0.0769  0.4628
  530SOL    HW1 1725   0.908   1.094   3.180  3.6027  1.9397  1.6726
  530SOL    HW2 1726   0.945   0.967   3.255 -0.1259 -0.1050  0.3131
  531SOL     OW 1727   2.491   0.046   1.929  0.8137  0.7252 -0.2378
  531SOL    HW1 1728   2.413   0.101   1.932  0.5109  0.3560 -0.9754
  531SOL    HW2 1729   2.558   0.097   1.975  0.0417  0.8664  0.7613
  532SOL     OW 1730   0.651   3.933   3.640  0.3460  0.4568 -0.4785
  532SOL    HW1 1731   0.595   3.998   3.597  1.6038  2.0389  0.1624
  532SOL    HW2 1732   0.651   3.958   3.732  0.1916 -0.9998 -0.0551
  533SOL     OW 1733   3.081   2.562   0.133  0.4674 -0.3956 -0.2201
  533SOL    HW1 1734   3.104   2.492   0.195 -0.4123 -0.3675  0.1471
  533SOL    HW2 1735   3.000   2.532   0.092  0.7645 -0.1725 -0.9989
  534SOL     OW 1736   2.502   1.505   3.581  0.6190  0.1319  1.0407
  534SOL    HW1 1737   2.435   1.441   3.609  0.8792  0.1839  1.8152
  534SOL    HW2 1738   2.571   1.452   3.542 -0.7560  0.1998 -1.7800
  535SOL     OW 1739   3.534   3.005   2.968 -0.4891  0.1494 -0.0167
  535SOL    HW1 1740   3.586   3.066   2.915 -1.1807  0.7749  0.0158
  535SOL    HW2 1741   3.587   2.925   2.971 -0.4114  0.1220 -1.6026
  536SOL     OW 1742   1.862   0.152   1.816 -0.1806  0.0585 -0.6615
  536SOL    HW1 1743   1.814   0.186   1.741 -0.2360  0.4228 -0.4647
  536SOL    HW2 1744   1.844   0.215   1.886 -0.1112 -0.2677 -0.3513
  537SOL     OW 1745   1.750   0.883   1.737 -0.1981 -0.3716  0.0730
  537SOL    HW1 1746   1.701   0.942   1.794  0.7195  0.0539  0.4334
  537SOL    HW2 1747   1.706   0.891   1.652 -1.6619 -1.1134  0.7187
  538SOL     OW 1748   1.974   0.979   2.530  0.6238  0.4249  0.3447
  538SOL    HW1 1749   1.929   0.896   2.514 -2.0376  1.9258 -0.5183
  538SOL    HW2 1750   1.955   0.999   2.622  0.2700  0.6252  0.2298
  539SOL     OW 1751   1.460   2.409   3.357  0.0575  0.3146  0.4784
  539SOL    HW1 1752   1.468   2.326   3.309 -1.1185  0.0699  0.6647
  539SOL    HW2 1753   1.391   2.392   3.421 -0.4612  1.5521  0.2764
  540SOL     OW 1754   2.671   1.502   1.426  0.3734 -0.5378 -0.3866
  540SOL    HW1 1755   2.729   1.441   1.470  2.1108  1.4296  0.1694
  540SOL    HW2 1756   2.724   1.539   1.354 -1.1652 -0.8706 -1.7619
  541SOL     OW 1757   3.354   2.778   0.155 -0.4757 -0.3844  0.0726
  541SOL    HW1 1758   3.384   2.811   0.070  0.1341 -0.4082  0.2758
  541SOL    HW2 1759   3.287   2.714   0.133  0.4683 -1.2281 -0.4409
  542SOL     OW 1760   3.536   2.217   3.339  0.6849 -0.1094  0.8458
  542SOL    HW1 1761   3.534   2.297   3.286  0.0959 -1.5243 -1.3612
  542SOL    HW2 1762   3.617   2.174   3.316  0.4602 -0.7159  1.1696
  543SOL     OW 1763   1.643   1.909   0.185 -0.5458  0.0278  0.0395
  543SOL    HW1 1764   1.592   1.919   0.105  0.0499  0.0008 -0.3443
  543SOL    HW2 1765   1.619   1.985   0.239 -0.7124  0.2085 -0.2892
  544SOL     OW 1766   1.696   2.469   2.656  0.4621  0.9506 -0.1561
  544SOL    HW1 1767   1.673   2.550   2.703 -0.7815  1.4842 -1.6071
  544SOL    HW2 1768   1.622   2.411   2.673  0.3572  0.8813 -0.8512
  545SOL     OW 1769   1.840   2.955   0.859 -0.2993 -0.3212 -0.3323
  545SOL    HW1 1770   1.848   2.885   0.794 -0.1165 -1.2176  0.6359
  545SOL    HW2 1771   1.868   2.915   0.941  0.5264  1.1055  0.1186
  546SOL     OW 1772   3.744   2.327   0.253 -0.2060  0.0993 -0.2245
  546SOL    HW1 1773   3.741   2.318   0.158 -2.5794 -1.4089 -0.0667
  546SOL    HW2 1774   3.831   2.294   0.277 -0.5729 -2.1034 -1.6545
  547SOL     OW 1775   3.703   0.387   1.765  0.1370  0.4030  0.1948
  547SOL    HW1 1776   3.753   0.306   1.776 -0.8293 -0.3695 -0.9192
  547SOL    HW2 1777   3.687   0.392   1.670 -1.8240  0.6625  0.5138
  548SOL     OW 1778   1.341   3.923   0.218  0.2289 -0.6031  0.1639
  548SOL    HW1 1779   1.368   3.908   0.309  2.3425 -1.4933 -0.5616
  548SOL    HW2 1780   1.332   3.836   0.181 -0.6426 -0.2491 -0.4966
  549SOL     OW 1781   0.321   0.316   0.022  0.0891 -0.4160 -0.1490
  549SOL    HW1 1782   0.365   0.321  -0.062 -1.2904  1.0279 -0.8361
  549SOL    HW2 1783   0.270   0.397   0.028 -0.2549 -0.7085  1.8492
  550SOL     OW 1784   3.353   3.909   1.105  0.3242  0.0067 -0.3759
  550SOL    HW1 1785   3.289   3.840   1.089 -0.3217  0.4119  0.3808
  550SOL    HW2 1786   3.437   3.871   1.079  0.1577 -1.4952  1.0926
  551SOL     OW 1787   0.337   0.588   2.486  0.6910  0.1355 -0.2392
  551SOL    HW1 1788   0.265   0.592   2.423  1.2619  0.0394 -0.9159
  551SOL    HW2 1789   0.388   0.667   2.468  1.4563 -0.4396 -0.6481
  552SOL     OW 1790   3.887   2.088   0.310 -0.1142  0.8410 -0.4133
  552SOL    HW1 1791   3.839   2.016   0.350 -0.0887  1.7679  1.4059
  552SOL    HW2 1792   3.892   2.065   0.217  0.9809 -2.0762  0.2591
  553SOL     OW 1793   2.218   0.392   2.786  0.4593  0.6487 -0.7800
  553SOL    HW1 1794   2.137   0.416   2.832  0.8499 -0.5629  0.6454
  553SOL    HW2 1795   2.189   0.353   2.704 -0.2716  2.9039 -1.6662
  554SOL     OW 1796   1.409   0.797   2.735  0.3118 -0.3124  0.5379
  554SOL    HW1 1797   1.479   0.848   2.695  2.4207 -1.9036  2.0258
  554SOL    HW2 1798   1.346   0.784   2.664  2.7747 -1.0849 -1.6572
  555SOL     OW 1799   1.667   1.729   2.310 -0.3795 -0.4813 -0.7306
  555SOL    HW1 1800   1.641   1.814   2.347 -0.5558 -0.1476 -1.6013
  555SOL    HW2 1801   1.630   1.665   2.371  3.0515  0.0075  2.2048
  556SOL     OW 1802   0.176   3.681   1.032 -0.4661 -0.8976 -0.0851
  556SOL    HW1 1803   0.189   3.587   1.047 -0.8982 -0.7412  1.3521
  556SOL    HW2 1804   0.130   3.712   1.109 -0.2221  0.5362 -0.4859
  557SOL     OW 1805   2.705   2.373   0.928 -0.1360 -0.0324 -0.1431
  557SOL    HW1 1806   2.633   2.416   0.975  0.3292  0.0879  0.4812
  557SOL    HW2 1807   2.716   2.424   0.848  2.1468  2.7529  1.7518
  558SOL     OW 1808   3.284   3.113   2.375 -0.5185  0.2392 -0.1769
  558SOL    HW1 1809   3.198   3.071   2.370 -0.5374 -0.4241  3.2597
  558SOL    HW2 1810   3.335   3.073   2.305 -1.8842 -2.3230  0.1782
  559SOL     OW 1811   0.977   3.623   1.040  0.0517 -0.0663 -0.5483
  559SOL    HW1 1812   0.886   3.595   1.051  0.2663 -0.3378  0.6647
  559SOL    HW2 1813   1.006   3.649   1.127  2.0181 -2.7584 -0.2457
  560SOL     OW 1814   3.940   1.648   1.431 -0.2927  0.2428  0.6329
  560SOL    HW1 1815   3.925   1.743   1.430  2.2151  0.7462  1.8166
  560SOL    HW2 1816   3.936   1.624   1.523  1.4757 -0.3025  0.6127
  561SOL     OW 1817   1.043   2.028   1.011 -0.1771 -0.1251  0.6527
  561SOL    HW1 1818   1.049   2.034   0.915 -0.4042 -0.0992  0.6406
  561SOL    HW2 1819   1.033   2.119   1.039  0.9572 -0.0175  0.7745
  562SOL     OW 1820   0.581   0.543   3.011 -0.4710  0.4920 -0.2216
  562SOL    HW1 1821   0.655   0.601   2.997  0.5500  0.0717  2.6569
  562SOL    HW2 1822   0.546   0.526   2.924  3.8746 -0.6921 -2.0039
  563SOL     OW 1823   1.212   1.265   1.336  0.1198 -0.1009 -0.0376
  563SOL    HW1 1824   1.145   1.222   1.388 -0.0530  0.4079  0.1662
  563SOL    HW2 1825   1.239   1.341   1.388  2.2157 -1.3276  0.7710
  564SOL     OW 1826   0.322   0.840   0.405  0.4263  0.2709  0.5620
  564SOL    HW1 1827   0.367   0.764   0.369 -0.5310  0.0393 -0.1762
  564SOL    HW2 1828   0.251   0.858   0.343  0.4421  1.5727  0.8850
  565SOL     OW 1829   3.011   0.214   1.467  0.5176  0.3799 -0.2446
  565SOL    HW1 1830   3.070   0.145   1.434 -0.6431 -1.3057  1.0668
  565SOL    HW2 1831   2.933   0.206   1.412  0.6685  1.2026 -0.5922
  566SOL     OW 1832   3.143   0.194   3.363  0.0175 -0.0992  0.0358
  566SOL    HW1 1833   3.131   0.285   3.391 -1.0466 -0.7277  1.7807
  566SOL    HW2 1834   3.235   0.176   3.380  0.2537  0.6587 -0.3864
  567SOL     OW 1835   2.172   1.936   0.115  0.0158  0.7570  0.2014
  567SOL    HW1 1836   2.079   1.951   0.103 -0.1605 -0.1435  0.3284
  567SOL    HW2 1837   2.181   1.840   0.115  0.8567  0.8224  0.7482
  568SOL     OW 1838   2.612   2.041   2.055  0.4141 -0.4250 -0.2389
  568SOL    HW1 1839   2.553   2.076   1.988  1.6230 -1.2280 -1.8014
  568SOL    HW2 1840   2.643   2.118   2.103 -1.2020  0.0853  0.0826
  569SOL     OW 1841   3.733   3.287   3.715  0.8772  0.0028 -0.4102
  569SOL    HW1 1842   3.763   3.196   3.712 -0.7818 -0.5515 -1.5364
  569SOL    HW2 1843   3.743   3.319   3.626  1.5979  0.9992  0.0136
  570SOL     OW 1844   0.313   2.569   3.256 -0.1575  0.1259 -0.6543
  570SOL    HW1 1845   0.349   2.585   3.343  0.5211  0.1587 -0.9305
  570SOL    HW2 1846   0.344   2.644   3.204  1.7217 -1.2108 -1.5762
  571SOL     OW 1847   1.801   1.502   3.462 -0.2283 -0.2016  0.5043
  571SOL    HW1 1848   1.757   1.578   3.499  1.1513 -0.0805  2.0036
  571SOL    HW2 1849   1.856   1.538   3.392  0.2433  0.1636  1.0551
  572SOL     OW 1850   2.958   3.138   0.564  0.1570  1.2400  0.3173
  572SOL    HW1 1851   3.015   3.063   0.579  0.0441  1.0288 -0.2945
  572SOL    HW2 1852   2.961   3.187   0.647  1.8406  1.6640  0.0418
  573SOL     OW 1853   2.080   0.407   2.319 -0.3129 -0.5791  0.0633
  573SOL    HW1 1854   2.127   0.394   2.402  0.2878  2.1413  0.2430
  573SOL    HW2 1855   2.149   0.417   2.254 -0.6577  0.7118 -0.1341
  574SOL     OW 1856   3.109   1.668   2.214 -0.0375  0.1373  0.0188
  574SOL    HW1 1857   3.067   1.664   2.128  2.1602 -0.3629 -1.0903
  574SOL    HW2 1858   3.166   1.745   2.210 -0.4563  0.5354  1.3139
  575SOL     OW 1859   2.214   3.867   2.595  0.4163 -0.2492  0.2680
  575SOL    HW1 1860   2.148   3.911   2.541  0.8809 -1.6301 -1.5271
  575SOL    HW2 1861   2.228   3.926   2.669 -0.3610  1.6603 -1.0447
  576SOL     OW 1862   2.818   3.594   0.451  0.1722 -0.2017  0.0877
  576SOL    HW1 1863   2.844   3.684   0.431  0.8413 -0.0402  1.4912
  576SOL    HW2 1864   2.882   3.565   0.517  0.2534 -1.8727 -0.6757
  577SOL     OW 1865   1.567   2.453   0.374 -0.1419  0.3873 -0.6059
  577SOL    HW1 1866   1.585   2.523   0.312  0.6124 -0.3359 -1.2258
  577SOL    HW2 1867   1.489   2.409   0.339 -1.1653  1.4471  0.2691
  578SOL     OW 1868   0.545   2.358   3.376 -0.0877  0.3452  0.1484
  578SOL    HW1 1869   0.538   2.292   3.446  0.5377 -1.3290 -1.3098
  578SOL    HW2 1870   0.632   2.395   3.386  0.2007 -0.2707 -0.0563
  579SOL     OW 1871   2.895   2.377   2.303 -0.0780 -0.1945 -0.1992
  579SOL    HW1 1872   2.920   2.416   2.387 -0.6451 -0.9510  0.3404
  579SOL    HW2 1873   2.911   2.283   2.315 -0.4923 -0.3501 -0.8208
  580SOL     OW 1874   3.132   0.826   1.091 -0.3614 -0.4715 -0.5455
  580SOL    HW1 1875   3.176   0.793   1.168 -1.2628  1.5294  0.9365
  580SOL    HW2 1876   3.202   0.856   1.033  0.2876 -0.7964  0.0744
  581SOL     OW 1877   1.446   2.289   0.070 -0.3761 -0.1982  0.0006
  581SOL    HW1 1878   1.386   2.254   0.004  0.1806 -0.2599 -0.4777
  581SOL    HW2 1879   1.395   2.357   0.114 -0.6638  0.0414 -0.6864
  582SOL     OW 1880   0.549   3.521   1.867  0.5514 -0.3395  0.0258
  582SOL    HW1 1881   0.606   3.513   1.943 -0.1233 -1.5595  0.4345
  582SOL    HW2 1882   0.540   3.616   1.853  1.2441 -0.1148  1.0338
  583SOL     OW 1883   2.281   2.374   0.034  0.6175 -0.2920  0.0180
  583SOL    HW1 1884   2.205   2.389  -0.024  0.7290 -1.1408 -0.3716
  583SOL    HW2 1885   2.357   2.386  -0.023  0.7430 -0.6467  0.1098
  584SOL     OW 1886   0.690   3.510   3.565 -0.2432 -0.1459  0.8467
  584SOL    HW1 1887   0.756   3.578   3.577 -0.0692  0.0897 -1.0965
  584SOL    HW2 1888   0.606   3.556   3.572 -0.1792  0.9924 -3.0246
  585SOL     OW 1889   3.431   1.019   2.380 -0.9343 -0.4239 -0.0932
  585SOL    HW1 1890   3.426   0.948   2.444 -1.9188 -1.3124 -1.1044
  585SOL    HW2 1891   3.352   1.071   2.397 -0.9401 -0.3775 -0.2652
  586SOL     OW 1892   1.248   2.860   0.308  0.2986  0.5956  0.1167
  586SOL    HW1 1893   1.198   2.800   0.363  1.5075 -1.0550 -0.4920
  586SOL    HW2 1894   1.232   2.829   0.219  1.3655  0.8378 -0.1754
  587SOL     OW 1895   0.582   3.018   0.314  0.0905  0.4284 -0.1644
  587SOL    HW1 1896   0.560   3.111   0.319 -1.4239  0.0648  0.5326
  587SOL    HW2 1897   0.599   2.993   0.405 -2.2688 -0.5619  0.0753
  588SOL     OW 1898   3.756   1.930   1.938 -0.3364  0.2098  0.2727
  588SOL    HW1 1899   3.687   1.942   1.872 -0.1618 -0.8486 -0.1152
  588SOL    HW2 1900   3.733   1.848   1.982 -0.4746  0.9250  1.5832
  589SOL     OW 1901   2.620   2.091   1.087 -0.7027  0.3848 -0.0677
  589SOL    HW1 1902   2.577   2.149   1.025 -1.7172  1.1211  1.2835
  589SOL    HW2 1903   2.714   2.099   1.066 -1.0965 -1.1240 -2.9365
  590SOL     OW 1904   1.778   1.426   0.756 -0.1080 -0.2066 -0.3179
  590SOL    HW1 1905   1.835   1.459   0.687 -0.9597  1.3714 -0.3197
  590SOL    HW2 1906   1.837   1.385   0.819  0.7639 -0.9141 -1.5411
  591SOL     OW 1907   0.278   0.604   3.328  0.2586  0.0170  0.4033
  591SOL    HW1 1908   0.217   0.660   3.279 -0.6640 -1.3992 -0.1416
  591SOL    HW2 1909   0.221   0.544   3.377  1.1639 -1.5726 -0.3856
  592SOL     OW 1910   3.400   2.524   2.840  0.7087 -0.3179 -0.4401
  592SOL    HW1 1911   3.489   2.538   2.809  1.6647 -0.5632  1.9587
  592SOL    HW2 1912   3.374   2.608   2.878  0.5171 -0.6732  0.2343
  593SOL     OW 1913   2.639   1.599   2.158  0.2515 -0.0998  0.5395
  593SOL    HW1 1914   2.697   1.574   2.230  1.7655  2.3438  0.2959
  593SOL    HW2 1915   2.666   1.543   2.085  2.1102  0.7122  0.5432
  594SOL     OW 1916   2.892   1.815   1.630 -0.1270  0.1457 -0.4321
  594SOL    HW1 1917   2.869   1.898   1.671  0.8282 -0.1097  0.7025
  594SOL    HW2 1918   2.845   1.749   1.681  0.3117 -0.1123 -0.3555
  595SOL     OW 1919   3.094   0.397   1.643  0.2947  0.4632 -0.3092
  595SOL    HW1 1920   3.045   0.345   1.579 -0.2016  1.3908 -0.6929
  595SOL    HW2 1921   3.057   0.485   1.637  2.2067  1.2768 -0.8330
  596SOL     OW 1922   0.147   0.526   1.527 -0.3757  0.2374  0.1615
  596SOL    HW1 1923   0.090   0.601   1.545  1.1108  1.4450 -0.0013
  596SOL    HW2 1924   0.225   0.564   1.488  0.5631 -1.3822  0.3890
  597SOL     OW 1925   2.476   3.189   2.120 -0.3357 -0.6787  0.3252
  597SOL    HW1 1926   2.419   3.130   2.170 -0.0998 -1.8052 -0.6796
  597SOL    HW2 1927   2.458   3.168   2.028 -1.4257  1.9954 -0.1550
  598SOL     OW 1928   2.270   2.796   0.749  0.3244  0.0380  0.3471
  598SOL    HW1 1929   2.253   2.885   0.779 -1.0852  0.0885 -0.5061
  598SOL    HW2 1930   2.188   2.749   0.764  0.3773 -0.5641 -1.0653
  599SOL     OW 1931   2.455   0.486   0.341 -0.0300 -0.2745  0.4646
  599SOL    HW1 1932   2.370   0.463   0.305  0.5554 -0.8694 -0.5548
  599SOL    HW2 1933   2.454   0.452   0.431  0.4472 -3.5275 -0.6557
  600SOL     OW 1934   3.957   2.461   0.494  0.1068 -0.2020  0.3608
  600SOL    HW1 1935   4.044   2.422   0.497  0.0472 -0.3735 -0.1123
  600SOL    HW2 1936   3.900   2.398   0.538  0.1582 -0.2465  0.3636
  601SOL     OW 1937   0.351   2.325   2.050  0.0582 -0.3410 -0.5308
  601SOL    HW1 1938   0.359   2.230   2.044  0.3056 -0.3405 -0.2432
  601SOL    HW2 1939   0.393   2.358   1.970 -1.0141 -0.5083 -1.1852
  602SOL     OW 1940   0.542   3.326   0.348  0.1157 -0.3073  0.1970
  602SOL    HW1 1941   0.619   3.367   0.307  0.1064 -0.1024  0.3857
  602SOL    HW2 1942   0.472   3.390   0.338 -0.1626 -0.7014 -0.4258
  603SOL     OW 1943   2.357   3.095   1.179 -0.2977  0.0737 -0.1119
  603SOL    HW1 1944   2.289   3.034   1.206  0.5315 -0.9380 -0.2422
  603SOL    HW2 1945   2.438   3.061   1.217  0.9823 -1.4979 -3.7478
  604SOL     OW 1946   0.392   3.659   0.770 -0.4566 -0.1287  0.1780
  604SOL    HW1 1947   0.329   3.623   0.707 -2.5221  2.6483  0.4569
  604SOL    HW2 1948   0.342   3.727   0.817  2.7577  2.2211  0.4852
  605SOL     OW 1949   2.182   2.062   1.277 -0.3431  0.3293 -0.1724
  605SOL    HW1 1950   2.217   2.083   1.191  1.0112 -0.1831  0.2263
  605SOL    HW2 1951   2.134   1.980   1.264 -0.3642  0.3907 -0.4908
  606SOL     OW 1952   3.317   0.345   3.036 -0.3420  0.6926 -0.2808
  606SOL    HW1 1953   3.362   0.350   3.120  1.4544 -1.1162 -1.0628
  606SOL    HW2 1954   3.258   0.421   3.036  1.1797  1.9739  1.6853
  607SOL     OW 1955   1.296   1.520   1.043  0.1258 -0.8361  0.5478
  607SOL    HW1 1956   1.260   1.588   0.987  0.9729 -2.1584 -1.7860
  607SOL    HW2 1957   1.266   1.438   1.003  1.5853 -1.8606  1.4427
  608SOL     OW 1958   0.561   0.448   2.304 -0.2139 -0.0247 -0.3205
  608SOL    HW1 1959   0.528   0.377   2.250  0.2664 -0.8203  0.4028
  608SOL    HW2 1960   0.483   0.486   2.345 -0.4279 -0.4692 -0.3128
  609SOL     OW 1961   2.455   0.018   1.551 -0.0770 -0.3437  0.0176
  609SOL    HW1 1962   2.416  -0.065   1.579 -1.3511  0.3121  0.2341
  609SOL    HW2 1963   2.510  -0.006   1.476  1.6064 -1.7671  1.6223
  610SOL     OW 1964   3.219   0.032   1.405  0.0573  0.8147  0.6648
  610SOL    HW1 1965   3.279   0.013   1.332 -0.6865 -0.1296  0.2829
  610SOL    HW2 1966   3.175  -0.051   1.422 -0.9362  1.4282  1.1377
  611SOL     OW 1967   1.975   2.282   3.284  0.3346  0.3946 -0.4333
  611SOL    HW1 1968   1.898   2.228   3.266  0.2080 -0.0029  1.1146
  611SOL    HW2 1969   2.045   2.219   3.303  0.1846  0.7161  1.3905
  612SOL     OW 1970   3.736   2.181   2.699 -0.4452 -0.3688 -0.5833
  612SOL    HW1 1971   3.692   2.266   2.691  1.7285  1.0266  1.1758
  612SOL    HW2 1972   3.787   2.172   2.618  0.3283  0.6672 -0.2337
  613SOL     OW 1973   2.435   1.165   2.000  1.1343  0.1987  0.2693
  613SOL    HW1 1974   2.366   1.113   2.043 -1.5727  2.6483 -0.8018
  613SOL    HW2 1975   2.464   1.111   1.927 -0.3480 -0.5663  0.2084
  614SOL     OW 1976   1.663   3.609   1.251  0.6120  0.0613  0.3611
  614SOL    HW1 1977   1.701   3.624   1.164  0.0030 -1.1678 -0.1429
  614SOL    HW2 1978   1.676   3.692   1.297  1.6647  0.4744 -0.6251
  615SOL     OW 1979   3.896   1.514   1.136  0.5481  0.0750 -0.5215
  615SOL    HW1 1980   3.966   1.448   1.138  0.6136  0.1260  2.0408
  615SOL    HW2 1981   3.916   1.573   1.209 -0.3502  2.1015 -1.7908
  616SOL     OW 1982   2.222   1.973   2.589 -0.7155 -0.3360 -0.1062
  616SOL    HW1 1983   2.232   1.922   2.508 -1.1982 -0.7271  0.0738
  616SOL    HW2 1984   2.169   1.917   2.646 -1.6621  0.5534 -0.0748
  617SOL     OW 1985   2.070   0.473   3.165  0.2124 -0.7071  0.4090
  617SOL    HW1 1986   2.020   0.483   3.084  1.3348  0.2282 -0.1854
  617SOL    HW2 1987   2.154   0.436   3.137  0.6251 -0.3458  1.1400
  618SOL     OW 1988   1.995   0.379   3.746  0.3972 -0.3251 -0.3395
  618SOL    HW1 1989   2.031   0.297   3.713 -0.7062 -0.5729 -0.9720
  618SOL    HW2 1990   1.938   0.410   3.675 -0.0157  0.4473  0.3179
  619SOL     OW 1991   3.198   1.816   2.547  0.0444 -0.1139  0.2430
  619SOL    HW1 1992   3.106   1.827   2.572 -0.0357 -1.2904  0.4823
  619SOL    HW2 1993   3.216   1.891   2.489 -1.0896  0.0546  0.0894
  620SOL     OW 1994   3.390   3.875   3.935  0.5877  0.2803 -0.7768
  620SOL    HW1 1995   3.302   3.903   3.958  0.4035  0.3827 -1.6114
  620SOL    HW2 1996   3.378   3.798   3.879  1.0732 -0.9736  0.7548
  621SOL     OW 1997   3.272   0.638   1.405 -0.8064 -0.4778  0.7315
  621SOL    HW1 1998   3.188   0.625   1.361 -1.2818  0.0115  1.4844
  621SOL    HW2 1999   3.263   0.592   1.489 -0.2591 -0.5630  0.7467
  622SOL     OW 2000   1.321   3.371   3.760  0.3339  0.5926 -0.3097
  622SOL    HW1 2001   1.347   3.296   3.813  0.0305  1.0021  0.4201
  622SOL    HW2 2002   1.230   3.353   3.736  1.2497 -0.9685 -3.0812
  623SOL     OW 2003   3.033   0.958   1.625 -0.5037 -0.1365 -0.3053
  623SOL    HW1 2004   2.990   0.972   1.541 -0.8570  0.1203 -0.0857
  623SOL    HW2 2005   3.089   1.035   1.636  1.1772 -1.1530 -1.2768
  624SOL     OW 2006   0.307   2.851   1.619  0.4209  0.1712  0.2765
  624SOL    HW1 2007   0.378   2.904   1.656  2.5428 -1.6771 -0.8942
  624SOL    HW2 2008   0.233   2.911   1.613  1.5057  1.9098  2.6129
  625SOL     OW 2009   2.185   0.331   0.291  0.2493 -0.3677 -0.9020
  625SOL    HW1 2010   2.135   0.320   0.371  1.4444 -1.5883 -0.2960
  625SOL    HW2 2011   2.123   0.310   0.221 -0.2432 -1.2665 -0.2079
  626SOL     OW 2012   3.040   0.446   3.417 -0.4584 -0.0290  0.0892
  626SOL    HW1 2013   2.987   0.479   3.344 -0.5026  1.4820  0.7712
  626SOL    HW2 2014   3.003   0.489   3.494  0.6712 -0.2869  0.7904
  627SOL     OW 2015   0.416   0.323   1.784  0.2968 -0.0100  0.7841
  627SOL    HW1 2016   0.454   0.298   1.868 -1.6366 -2.0631  1.1722
  627SOL    HW2 2017   0.482   0.299   1.719  0.5429 -1.4938  1.5406
  628SOL     OW 2018   3.883   1.158   1.370  0.0068 -0.5389 -0.3152
  628SOL    HW1 2019   3.805   1.213   1.369 -0.0525 -0.6211 -1.1105
  628SOL    HW2 2020   3.850   1.069   1.360  0.1170 -0.7132  0.7643
  629SOL     OW 2021   1.462   3.799   1.095  0.1043  0.1775  0.5950
  629SOL    HW1 2022   1.547   3.769   1.065 -0.3691 -0.8176  0.1863
  629SOL    HW2 2023   1.480   3.880   1.142  1.2302  0.1462  0.2469
  630SOL     OW 2024   0.315   3.685   3.785 -0.7000  0.1643 -1.0263
  630SOL    HW1 2025   0.275   3.598   3.792 -0.6013  0.1249 -0.9474
  630SOL    HW2 2026   0.246   3.740   3.748 -0.2125 -0.3182 -2.7344
  631SOL     OW 2027   1.079   2.991   2.657  0.1852  0.0514  0.0160
  631SOL    HW1 2028   1.102   2.965   2.568 -1.0942  0.4446 -0.4553
  631SOL    HW2 2029   1.026   3.070   2.646 -0.2337 -0.0640  1.0903
  632SOL     OW 2030   2.614   3.355   1.451 -0.1909 -0.2053 -0.1437
  632SOL    HW1 2031   2.647   3.370   1.539 -0.1120  0.8772 -0.3345
  632SOL    HW2 2032   2.692   3.342   1.397 -0.0916  1.4005 -0.4297
  633SOL     OW 2033   0.314   0.107   3.092 -0.2144 -0.5965  0.2035
  633SOL    HW1 2034   0.332   0.032   3.149  0.6457 -1.1103 -0.7085
  633SOL    HW2 2035   0.374   0.096   3.018 -2.0319 -0.5269 -1.3527
  634SOL     OW 2036   3.519   0.408   3.691  0.4937  0.3365 -0.0737
  634SOL    HW1 2037   3.442   0.457   3.660  0.4667  1.2005  1.2619
  634SOL    HW2 2038   3.482   0.335   3.740  0.5196  0.7636  0.5859
  635SOL     OW 2039   1.585   1.974   3.747 -0.1422 -0.5914  0.7997
  635SOL    HW1 2040   1.552   1.921   3.820 -1.6245 -0.8315 -0.0100
  635SOL    HW2 2041   1.631   2.047   3.790  2.4627 -2.7209  1.9617
  636SOL     OW 2042   3.041   3.364   2.288 -0.1623  0.4640 -0.2138
  636SOL    HW1 2043   2.961   3.354   2.338 -0.4482  1.4202 -0.4601
  636SOL    HW2 2044   3.043   3.288   2.230  1.2002 -1.8174  2.5475
  637SOL     OW 2045   3.951   1.457   1.914  0.6803  0.1080 -0.8044
  637SOL    HW1 2046   3.913   1.538   1.880 -0.4252 -0.1660 -0.2872
  637SOL    HW2 2047   3.899   1.387   1.873  0.3510 -0.2652  0.2160
  638SOL     OW 2048   0.989   1.398   3.626 -0.5361  0.4579  0.5008
  638SOL    HW1 2049   0.935   1.442   3.560  0.8616  0.6233 -0.5808
  638SOL    HW2 2050   1.075   1.438   3.617 -0.2466  0.2983  2.2782
  639SOL     OW 2051   1.818   0.489   0.823 -0.0153  0.6060  0.0964
  639SOL    HW1 2052   1.900   0.462   0.863  0.5897 -0.0014 -1.4803
  639SOL    HW2 2053   1.769   0.408   0.812 -0.5443  0.8786  0.3745
  640SOL     OW 2054   0.089   1.501   3.846  0.1364 -0.1524 -1.0651
  640SOL    HW1 2055   0.144   1.445   3.901  0.5495  0.5382 -0.7711
  640SOL    HW2 2056   0.025   1.441   3.808  1.3526 -1.0625 -1.7532
  641SOL     OW 2057   1.833   0.743   0.608  0.4413 -0.4250  0.7524
  641SOL    HW1 2058   1.906   0.686   0.586  0.0085 -1.0347  0.8732
  641SOL    HW2 2059   1.766   0.685   0.645 -0.3478  0.0172  0.0730
  642SOL     OW 2060   1.164   3.704   0.096  0.4050  0.1966  0.5036
  642SOL    HW1 2061   1.247   3.677   0.057  0.4807  0.3079  0.5846
  642SOL    HW2 2062   1.134   3.776   0.040  1.8255  2.1787  2.1275
  643SOL     OW 2063   2.123   1.315   2.661 -0.2109  0.5032 -0.0860
  643SOL    HW1 2064   2.043   1.323   2.714  0.4911  2.0515  0.8118
  643SOL    HW2 2065   2.153   1.405   2.650  1.2816 -0.0351 -0.6301
  644SOL     OW 2066   3.559   3.404   1.532 -0.4679 -0.2744 -0.5839
  644SOL    HW1 2067   3.647   3.443   1.526 -0.4692 -0.3368 -1.0228
  644SOL    HW2 2068   3.567   3.321   1.486 -0.6066 -0.5539 -0.1108
  645SOL     OW 2069   3.833   3.313   1.937 -0.1586  0.2247  0.2818
  645SOL    HW1 2070   3.769   3.373   1.974 -0.2208  0.2036  0.2088
  645SOL    HW2 2071   3.803   3.226   1.965  0.6396  0.3139  1.4733
  646SOL     OW 2072   0.143   1.447   3.485  0.2384  0.5347 -0.3925
  646SOL    HW1 2073   0.084   1.371   3.481 -1.5023  1.7854  0.0617
  646SOL    HW2 2074   0.091   1.515   3.528  1.8876  1.8673 -0.4125
  647SOL     OW 2075   3.664   0.910   1.947 -1.0699  0.1198 -0.4890
  647SOL    HW1 2076   3.623   0.880   1.866  2.1489 -0.9755 -1.9205
  647SOL    HW2 2077   3.631   0.850   2.014 -2.3527 -0.1973 -1.3624
  648SOL     OW 2078   2.217   0.068   0.006  0.5116 -0.2813 -0.3430
  648SOL    HW1 2079   2.173   0.036   0.085  0.7831 -1.1244 -0.5154
  648SOL    HW2 2080   2.234  -0.012  -0.045 -0.0437  0.2814 -1.4530
  649SOL     OW 2081   1.521   0.915   0.912  0.5678  0.1508 -0.4699
  649SOL    HW1 2082   1.579   0.924   0.837  0.1214 -1.0296 -0.9891
  649SOL    HW2 2083   1.578   0.890   0.985  0.9874  1.2048 -0.4173
  650SOL     OW 2084   0.997   1.069   0.616  0.0902 -0.4078  0.1156
  650SOL    HW1 2085   1.004   1.145   0.559  0.8300 -0.8511 -0.4036
  650SOL    HW2 2086   1.086   1.033   0.620 -0.0877 -0.7896  0.9888
  651SOL     OW 2087   0.489   1.213   2.094 -0.3718  0.1025 -0.4617
  651SOL    HW1 2088   0.489   1.126   2.053  0.2730 -1.1665  2.0141
  651SOL    HW2 2089   0.535   1.269   2.031  2.4501 -2.1786 -0.6668
  652SOL     OW 2090   3.953   0.995   3.939  0.3035  0.6016  0.3594
  652SOL    HW1 2091   3.881   0.934   3.921  0.1483  0.7567  0.4521
  652SOL    HW2 2092   3.932   1.033   4.024 -0.3241  1.7890 -0.2936
  653SOL     OW 2093   3.775   1.766   2.986 -0.4512  0.2814 -0.2597
  653SOL    HW1 2094   3.805   1.838   2.931 -2.5526  1.0650 -0.4630
  653SOL    HW2 2095   3.810   1.786   3.073  0.2308  0.7223 -0.6217
  654SOL     OW 2096   3.492   0.433   1.937 -0.1199 -0.5413  0.4547
  654SOL    HW1 2097   3.575   0.431   1.888 -0.9104  0.5303 -1.0067
  654SOL    HW2 2098   3.430   0.474   1.877 -1.6283 -0.9624  1.6745
  655SOL     OW 2099   1.205   2.731   0.729  0.2395 -0.6691 -0.1773
  655SOL    HW1 2100   1.253   2.811   0.751  0.9929 -0.4742 -2.2652
  655SOL    HW2 2101   1.261   2.660   0.763  1.8170 -0.4150 -2.0308
  656SOL     OW 2102   3.499   3.437   1.113  0.3012 -0.3400 -0.2018
  656SOL    HW1 2103   3.462   3.504   1.169  0.3440 -0.2182 -0.3179
  656SOL    HW2 2104   3.587   3.469   1.091  0.7643 -0.9724  0.6733
  657SOL     OW 2105   1.963   0.360   0.540 -0.0184 -0.9140 -0.1317
  657SOL    HW1 2106   1.887   0.351   0.598 -0.5946 -3.7611 -1.1816
  657SOL    HW2 2107   1.999   0.446   0.562 -3.4623  0.5490  0.4846
  658SOL     OW 2108   1.217   2.228   3.442 -0.0068  0.2425  0.1713
  658SOL    HW1 2109   1.225   2.209   3.535 -1.1992 -1.4491 -0.0185
  658SOL    HW2 2110   1.127   2.261   3.432  0.6410  2.0123 -0.1716
  659SOL     OW 2111   2.373   2.338   2.235 -0.8952  0.1212  0.1046
  659SOL    HW1 2112   2.330   2.359   2.152 -1.5848  0.0736  0.4402
  659SOL    HW2 2113   2.356   2.414   2.291  0.7168  0.7455 -0.2148
  660SOL     OW 2114   3.202   2.769   0.381 -0.1993 -0.5160 -0.5467
  660SOL    HW1 2115   3.252   2.829   0.325  0.0713  0.1722  0.4117
  660SOL    HW2 2116   3.135   2.733   0.323 -1.4859  2.0241 -0.7901
  661SOL     OW 2117   2.834   1.440   2.308  0.2022 -0.0686 -0.1468
  661SOL    HW1 2118   2.910   1.473   2.358 -0.1124  0.9937 -0.3456
  661SOL    HW2 2119   2.873   1.390   2.237  0.7979  1.4944 -0.9782
  662SOL     OW 2120   3.048   3.455   3.408  0.5664 -0.1204 -0.0198
  662SOL    HW1 2121   2.993   3.534   3.408  1.1887  0.4335  2.8942
  662SOL    HW2 2122   2.988   3.385   3.384 -0.8350  0.8203  0.5819
  663SOL     OW 2123   0.665   2.387   2.210  0.1298  0.7005  0.3980
  663SOL    HW1 2124   0.605   2.321   2.242 -0.3142  1.8827  2.1406
  663SOL    HW2 2125   0.722   2.406   2.285  2.8374 -0.4619 -1.1914
  664SOL     OW 2126   0.655   2.758   2.665  0.6601  0.1776  0.0133
  664SOL    HW1 2127   0.740   2.733   2.701  1.2066  0.0765 -1.3076
  664SOL    HW2 2128   0.675   2.797   2.580 -0.6457 -0.2583 -0.5138
  665SOL     OW 2129   3.515   3.724   0.191  0.3641  0.4989  0.6034
  665SOL    HW1 2130   3.476   3.660   0.251 -3.0331  1.6093 -0.2185
  665SOL    HW2 2131   3.450   3.794   0.184  2.2910  2.2600 -1.4479
  666SOL     OW 2132   3.822   2.457   1.416  0.2643  0.0005  0.0532
  666SOL    HW1 2133   3.835   2.549   1.392 -2.8176  0.7524  0.7933
  666SOL    HW2 2134   3.770   2.420   1.345  2.4450 -1.5966 -0.8206
  667SOL     OW 2135   0.013   3.866   2.669  0.1983 -0.2933 -0.0540
  667SOL    HW1 2136  -0.012   3.958   2.659 -0.5390 -0.4452  0.3526
  667SOL    HW2 2137  -0.030   3.821   2.596 -0.2656 -0.4691  0.3249
  668SOL     OW 2138   0.213   3.828   1.527 -1.1084 -0.8454  0.1345
  668SOL    HW1 2139   0.188   3.755   1.470  0.1439 -0.6384 -0.7185
  668SOL    HW2 2140   0.219   3.789   1.614 -1.6347 -1.4926 -0.1117
  669SOL     OW 2141   2.923   3.792   0.834  0.3573  0.4578  0.8074
  669SOL    HW1 2142   2.986   3.760   0.770 -3.0958 -1.2209 -2.1491
  669SOL    HW2 2143   2.897   3.878   0.800 -0.1488  0.4017  1.0472
  670SOL     OW 2144   1.374   3.387   3.338 -0.4541  0.4447 -0.5706
  670SOL    HW1 2145   1.410   3.317   3.284 -1.3373 -3.0619  2.8790
  670SOL    HW2 2146   1.289   3.353   3.368  0.0564  1.8782  3.0533
  671SOL     OW 2147   0.939   3.905   3.655 -0.3872  0.4974  0.5541
  671SOL    HW1 2148   0.844   3.903   3.642 -0.4396 -1.3216  0.8841
  671SOL    HW2 2149   0.970   3.968   3.591 -1.8302  1.2724  0.5685
  672SOL     OW 2150   2.791   2.730   3.127  0.5656 -0.0764  0.0143
  672SOL    HW1 2151   2.753   2.652   3.167 -1.2393  0.7435  0.0340
  672SOL    HW2 2152   2.837   2.774   3.199 -0.4495  0.0609  0.6085
  673SOL     OW 2153   0.006   3.097   1.343  0.2021 -0.4353 -0.4148
  673SOL    HW1 2154  -0.084   3.091   1.375  0.9773 -2.4314  1.6967
  673SOL    HW2 2155   0.002   3.158   1.270 -3.1163 -1.5367 -1.3244
  674SOL     OW 2156   1.734   0.310   1.026  0.4523  0.5296 -0.5827
  674SOL    HW1 2157   1.670   0.240   1.032  0.3366  0.4964 -1.8520
  674SOL    HW2 2158   1.800   0.278   0.964  0.7408  1.2742 -0.6796
  675SOL     OW 2159   3.473   1.600   1.325  0.5601  0.0277 -0.3792
  675SOL    HW1 2160   3.488   1.692   1.346 -2.5996  0.6422 -0.2081
  675SOL    HW2 2161   3.484   1.595   1.230  1.7042  0.3324 -0.2771
  676SOL     OW 2162   0.570   3.520   0.642 -0.4784 -0.0098 -0.1846
  676SOL    HW1 2163   0.517   3.578   0.697  0.2564  0.7455 -0.2576
  676SOL    HW2 2164   0.556   3.551   0.553 -0.8069 -0.5423 -0.3256
  677SOL     OW 2165   3.481   2.784   0.819  0.4562  0.8786  0.3174
  677SOL    HW1 2166   3.509   2.720   0.753 -0.2163  0.9972 -0.0897
  677SOL    HW2 2167   3.558   2.795   0.875  0.8978  0.4497 -0.1886
  678SOL     OW 2168   3.611   1.236   3.617  0.2222  0.0496  0.0392
  678SOL    HW1 2169   3.569   1.271   3.696  0.4789 -1.0225  0.6874
  678SOL    HW2 2170   3.555   1.161   3.593  0.5410 -0.0542 -0.3760
  679SOL     OW 2171   3.786   0.949   1.030 -0.1014 -0.0112  0.8526
  679SOL    HW1 2172   3.729   1.009   0.982  0.2813  0.3564  0.8467
  679SOL    HW2 2173   3.831   0.899   0.961  1.2050  1.2174  0.7643
  680SOL     OW 2174   1.591   1.286   2.714 -0.3352  0.0386 -0.5083
  680SOL    HW1 2175   1.678   1.294   2.676  0.1331 -1.2363  0.2720
  680SOL    HW2 2176   1.589   1.351   2.785  0.0688 -0.1341 -0.3432
  681SOL     OW 2177   0.798   0.561   3.315  0.1250  0.9119  0.2680
  681SOL    HW1 2178   0.810   0.498   3.385 -0.6196  1.0052  0.4943
  681SOL    HW2 2179   0.719   0.532   3.270  0.4580  0.9937 -0.3826
  682SOL     OW 2180   2.963   3.571   1.466 -0.1533 -0.3280 -0.2619
  682SOL    HW1 2181   3.017   3.644   1.437 -2.0253  1.1837 -0.1328
  682SOL    HW2 2182   2.950   3.518   1.387 -0.6635  0.7587 -0.9403
  683SOL     OW 2183   0.653   2.448   0.857 -0.2960 -0.3257  0.3395
  683SOL    HW1 2184   0.649   2.424   0.764  2.0800  1.8330 -0.4490
  683SOL    HW2 2185   0.690   2.537   0.856  0.2571 -0.4452  3.3977
  684SOL     OW 2186   0.641   3.717   2.960  0.6376  0.1020 -0.2128
  684SOL    HW1 2187   0.648   3.622   2.959 -1.4442 -0.1713  1.8435
  684SOL    HW2 2188   0.547   3.734   2.974  0.9396  2.4487 -0.6636
  685SOL     OW 2189   2.470   1.808   2.511 -0.7519  0.5029  0.4929
  685SOL    HW1 2190   2.450   1.818   2.418  0.9948  2.7508  0.2669
  685SOL    HW2 2191   2.484   1.714   2.522  0.2529  0.2918 -1.8313
  686SOL     OW 2192   0.790   1.193   0.823 -0.4818  0.1749  0.0270
  686SOL    HW1 2193   0.756   1.283   0.819  2.3406  1.4015  1.2924
  686SOL    HW2 2194   0.841   1.184   0.742  0.3766  0.2329  0.5561
  687SOL     OW 2195   3.921   1.680   3.526 -0.3292  0.6867  0.3344
  687SOL    HW1 2196   3.837   1.727   3.521  0.1722  1.5457 -0.2495
  687SOL    HW2 2197   3.942   1.659   3.435  0.0171  0.3178  0.4928
  688SOL     OW 2198   3.819   3.553   1.057  0.3755  0.0391 -0.2773
  688SOL    HW1 2199   3.842   3.582   1.145  1.9366 -0.6741 -0.4241
  688SOL    HW2 2200   3.769   3.627   1.021 -0.6119  0.1890  1.3050
  689SOL     OW 2201   1.427   3.639   3.920 -0.6260 -0.3160 -0.4945
  689SOL    HW1 2202   1.497   3.573   3.919 -1.6617 -1.4854  0.9207
  689SOL    HW2 2203   1.381   3.626   3.837 -0.1830 -0.6446 -0.6965
  690SOL     OW 2204   0.041   2.523   3.359  0.5903  0.0990 -0.1891
  690SOL    HW1 2205   0.117   2.472   3.330  0.3240 -1.4281  1.5740
  690SOL    HW2 2206  -0.031   2.493   3.304  0.2919 -2.0730  1.2408
  691SOL     OW 2207   0.775   0.507   1.744  0.8876  0.2626  0.8079
  691SOL    HW1 2208   0.694   0.457   1.731  0.7945  0.6528 -0.2085
  691SOL    HW2 2209   0.755   0.567   1.815 -0.5427  1.9817 -0.9276
  692SOL     OW 2210   2.714   3.901   0.106  0.2266  0.3984  0.5506
  692SOL    HW1 2211   2.644   3.966   0.104  1.6475  2.1805  3.1668
  692SOL    HW2 2212   2.789   3.944   0.066  0.3469 -0.8513 -0.6242
  693SOL     OW 2213   1.443   1.704   1.460  0.8389  0.0422 -0.0066
  693SOL    HW1 2214   1.410   1.655   1.384  0.5469 -0.7735  0.6256
  693SOL    HW2 2215   1.536   1.683   1.464  1.0092  0.6825 -0.5748
  694SOL     OW 2216   3.539   2.046   1.129 -0.0197 -0.4155  0.2637
  694SOL    HW1 2217   3.516   2.110   1.062 -0.3603 -0.9382 -0.1331
  694SOL    HW2 2218   3.628   2.018   1.105  0.6349  0.8207  1.1738
  695SOL     OW 2219   2.109   2.505   1.713 -0.0739 -0.0347 -0.4808
  695SOL    HW1 2220   2.036   2.444   1.721  1.0040 -1.1892  1.1441
  695SOL    HW2 2221   2.076   2.586   1.753 -0.7947 -0.2342 -0.6581
  696SOL     OW 2222   1.887   2.059   2.395  0.0849  0.0133 -0.0972
  696SOL    HW1 2223   1.807   2.060   2.343  0.0020  2.6327 -0.0348
  696SOL    HW2 2224   1.951   2.013   2.340 -0.1056  2.3248 -2.4393
  697SOL     OW 2225   2.253   3.283   3.461  0.3203  0.0654 -0.3777
  697SOL    HW1 2226   2.294   3.248   3.539 -0.0611 -0.4177 -0.3882
  697SOL    HW2 2227   2.170   3.320   3.492 -0.1637 -0.7580 -0.6464
  698SOL     OW 2228   2.510   1.957   3.881 -0.1629 -0.6435  0.0557
  698SOL    HW1 2229   2.440   2.012   3.846 -1.4831 -1.1649  1.7301
  698SOL    HW2 2230   2.466   1.897   3.941  1.3867 -2.7780 -0.8151
  699SOL     OW 2231   0.455   3.903   2.841 -0.5548 -0.0359 -0.5259
  699SOL    HW1 2232   0.545   3.935   2.841 -0.4915 -0.1917 -1.4566
  699SOL    HW2 2233   0.442   3.868   2.753 -1.5792  0.1485 -0.4584
  700SOL     OW 2234   1.690   3.711   0.956  0.5500  0.2246  0.2488
  700SOL    HW1 2235   1.776   3.688   0.993 -0.0299 -1.3734  0.6700
  700SOL    HW2 2236   1.698   3.690   0.863  0.0512 -1.7106  0.6168
  701SOL     OW 2237   3.624   3.819   1.115 -0.0412 -0.4523 -0.1533
  701SOL    HW1 2238   3.695   3.883   1.112 -0.3321 -0.1119  0.1828
  701SOL    HW2 2239   3.635   3.774   1.199  0.6642 -1.4365 -0.7374
  702SOL     OW 2240   1.219   2.695   0.096 -0.1808  0.0260 -0.5360
  702SOL    HW1 2241   1.150   2.629   0.098  0.8648 -1.0959  1.3495
  702SOL    HW2 2242   1.261   2.682   0.011 -1.2755 -0.3529 -1.0415
  703SOL     OW 2243   3.893   2.252   3.806 -0.1171 -0.1734 -0.3301
  703SOL    HW1 2244   3.940   2.266   3.887 -2.7838  0.1826  1.2914
  703SOL    HW2 2245   3.950   2.288   3.738  2.4214 -0.9466  1.2681
  704SOL     OW 2246   0.054   1.070   1.132  0.2715 -0.0746  0.3212
  704SOL    HW1 2247  -0.003   1.030   1.067 -0.3345 -1.2326  1.5138
  704SOL    HW2 2248  -0.006   1.111   1.194  0.7292 -0.8686  1.3186
  705SOL     OW 2249   0.634   0.670   1.915  0.1260  0.2910  0.0217
  705SOL    HW1 2250   0.615   0.691   2.007  0.9311  1.5334 -0.0741
  705SOL    HW2 2251   0.548   0.673   1.872 -0.2066  0.0732  0.6509
  706SOL     OW 2252   2.298   2.866   1.525  0.0077 -0.1724 -0.3556
  706SOL    HW1 2253   2.382   2.882   1.568 -0.5022 -0.4801  0.7671
  706SOL    HW2 2254   2.288   2.771   1.526 -0.9087 -0.0830  0.6196
  707SOL     OW 2255   3.882   3.678   1.637 -0.0891 -0.6550  0.0601
  707SOL    HW1 2256   3.965   3.715   1.667 -0.9533  0.1617  1.5576
  707SOL    HW2 2257   3.815   3.726   1.686 -1.3636 -2.5743  0.3237
  708SOL     OW 2258   0.471   0.777   3.130  0.0707  0.3539  0.7061
  708SOL    HW1 2259   0.396   0.733   3.171 -0.7821 -0.0689 -1.2044
  708SOL    HW2 2260   0.504   0.713   3.067 -0.1560  1.8242 -0.9578
  709SOL     OW 2261   2.259   0.062   2.804  0.1062  0.0379 -0.1532
  709SOL    HW1 2262   2.193   0.127   2.829  0.7257  1.2607 -1.5590
  709SOL    HW2 2263   2.342   0.099   2.835  0.3765 -0.4586 -0.2757
  710SOL     OW 2264   3.800   0.176   3.056  0.2516  0.5696  0.5942
  710SOL    HW1 2265   3.778   0.161   3.148  0.0977  0.6348  0.5699
  710SOL    HW2 2266   3.887   0.215   3.057 -0.8099  3.0944  0.8896
  711SOL     OW 2267   1.488   2.570   3.591 -0.0248  1.0596  0.8075
  711SOL    HW1 2268   1.516   2.533   3.507  0.0043  0.8036  0.9270
  711SOL    HW2 2269   1.561   2.625   3.618  0.4630  0.2375  1.2132
  712SOL     OW 2270   2.257   3.112   3.879 -0.1004 -0.3124  0.3062
  712SOL    HW1 2271   2.239   3.067   3.962 -1.0745  0.8129  0.7176
  712SOL    HW2 2272   2.216   3.198   3.888  0.7252  0.2382 -0.9273
  713SOL     OW 2273   3.557   3.928   1.699 -0.4449 -0.7110 -0.1926
  713SOL    HW1 2274   3.485   3.956   1.755  0.3737  1.1881 -0.0099
  713SOL    HW2 2275   3.633   3.924   1.758  0.1110 -0.2216 -0.8636
  714SOL     OW 2276   1.660   2.760   3.756 -0.2559 -0.7118  0.2562
  714SOL    HW1 2277   1.603   2.823   3.712  0.2986 -0.6820 -0.4510
  714SOL    HW2 2278   1.748   2.782   3.725 -0.1027 -2.1495 -0.4338
  715SOL     OW 2279   2.802   1.653   2.720 -0.2561 -0.3736 -0.8127
  715SOL    HW1 2280   2.780   1.620   2.633 -1.3399  1.2089 -1.1647
  715SOL    HW2 2281   2.885   1.610   2.741 -0.0249 -0.8672 -2.5759
  716SOL     OW 2282   2.422   2.918   3.412  0.1680 -0.0463  0.0020
  716SOL    HW1 2283   2.337   2.954   3.389 -0.2265 -1.5245 -0.9473
  716SOL    HW2 2284   2.434   2.844   3.353  2.0632  0.0545  0.2008
  717SOL     OW 2285   1.634   1.050   1.201 -0.3076  1.1663 -0.0292
  717SOL    HW1 2286   1.551   1.067   1.244 -1.6255  0.1597 -2.0030
  717SOL    HW2 2287   1.641   0.954   1.201 -0.0596  1.1634 -1.4408
  718SOL     OW 2288   1.171   1.344   2.292  0.5118 -0.0010 -0.5504
  718SOL    HW1 2289   1.186   1.438   2.301  0.9926  0.0656 -1.8583
  718SOL    HW2 2290   1.253   1.303   2.320  1.4549  0.1390 -2.8954
  719SOL     OW 2291   0.226   1.374   3.060  0.0776  0.1249 -0.2737
  719SOL    HW1 2292   0.260   1.375   2.971  0.4154  1.1899 -0.1465
  719SOL    HW2 2293   0.159   1.442   3.062  0.0694  0.1099  0.2797
  720SOL     OW 2294   1.558   3.954   1.611  0.0521  0.2896 -0.0418
  720SOL    HW1 2295   1.560   3.905   1.693  0.2205 -1.0637 -0.8263
  720SOL    HW2 2296   1.644   3.938   1.572 -0.6148 -0.4690 -1.2484
  721SOL     OW 2297   3.687   2.655   2.754 -0.3714 -0.3035  0.0266
  721SOL    HW1 2298   3.682   2.698   2.839  0.9942 -0.1921  0.0720
  721SOL    HW2 2299   3.764   2.694   2.712 -1.4187  0.1760 -1.5678
  722SOL     OW 2300   3.436   1.680   3.273 -0.7494 -0.2881  0.4278
  722SOL    HW1 2301   3.431   1.608   3.209 -0.8820  0.3868 -0.3293
  722SOL    HW2 2302   3.365   1.661   3.335 -0.2423 -1.2687  0.7342
  723SOL     OW 2303   0.293   1.896   3.202 -0.2528  0.2281 -0.1676
  723SOL    HW1 2304   0.364   1.874   3.262  0.9902 -0.7652 -1.9383
  723SOL    HW2 2305   0.273   1.814   3.158 -1.1508  0.9365 -1.1156
  724SOL     OW 2306   3.308   2.928   1.668  0.2871 -0.5831  0.1931
  724SOL    HW1 2307   3.312   2.989   1.742  1.8162 -1.4137  0.8375
  724SOL    HW2 2308   3.378   2.957   1.610 -0.3495 -0.4711 -0.5395
  725SOL     OW 2309   0.058   2.106   0.748  0.1629  0.0063  0.3963
  725SOL    HW1 2310   0.106   2.141   0.823  2.7083  1.6339 -1.8360
  725SOL    HW2 2311   0.098   2.020   0.733  0.2523  0.0488  0.3868
  726SOL     OW 2312   2.478   1.217   3.759 -0.7169 -0.1235  0.5476
  726SOL    HW1 2313   2.453   1.168   3.680 -0.0846  1.9269 -1.0192
  726SOL    HW2 2314   2.503   1.150   3.822 -3.1324 -1.9466 -0.2787
  727SOL     OW 2315   1.194   1.776   0.940 -0.3436  0.0011 -0.4019
  727SOL    HW1 2316   1.191   1.830   1.018  0.3601 -0.0355 -0.3482
  727SOL    HW2 2317   1.194   1.838   0.867 -0.5611  0.0450 -0.3652
  728SOL     OW 2318   0.728   1.249   1.264  0.5497  0.1171  0.7055
  728SOL    HW1 2319   0.635   1.232   1.249  0.4723  1.0883 -0.0524
  728SOL    HW2 2320   0.731   1.296   1.347  0.4913 -0.9222  1.3164
  729SOL     OW 2321   2.066   3.430   3.634  0.1730  0.0255 -0.2334
  729SOL    HW1 2322   2.031   3.496   3.575 -0.0793  0.6649  0.6039
  729SOL    HW2 2323   2.046   3.464   3.722 -0.0876 -1.2377  0.2103
  730SOL     OW 2324   0.929   0.860   2.149  0.0492  0.0229 -0.1751
  730SOL    HW1 2325   0.846   0.895   2.119  0.1044 -0.0191 -0.3792
  730SOL    HW2 2326   0.913   0.832   2.239  0.3514  1.8128  0.4764
  731SOL     OW 2327   1.961   3.410   0.597  0.1771 -0.0871  0.2664
  731SOL    HW1 2328   1.880   3.381   0.638  0.0872 -0.6193 -0.2811
  731SOL    HW2 2329   2.013   3.446   0.670 -1.2595  1.9541  0.3622
  732SOL     OW 2330   0.718   2.098   0.192 -0.2928  0.2071  0.0143
  732SOL    HW1 2331   0.741   2.179   0.145 -1.3049  0.3619 -0.2440
  732SOL    HW2 2332   0.763   2.029   0.144 -1.0700  0.3990 -1.0335
  733SOL     OW 2333   0.157   0.797   0.799  0.2731 -0.9213 -0.4868
  733SOL    HW1 2334   0.213   0.789   0.876  0.1119  1.9229  0.0163
  733SOL    HW2 2335   0.210   0.845   0.735 -0.9829  0.3688 -0.6011
  734SOL     OW 2336   1.548   2.364   1.188 -0.1569 -0.3032  0.1629
  734SOL    HW1 2337   1.539   2.336   1.279 -0.5480  0.4434  0.3593
  734SOL    HW2 2338   1.484   2.309   1.141  1.9990 -2.7485 -0.1609
  735SOL     OW 2339   1.751   3.688   0.668  0.1447 -0.9485  0.0820
  735SOL    HW1 2340   1.795   3.639   0.599 -1.2876 -2.3893  0.1533
  735SOL    HW2 2341   1.666   3.711   0.630  0.5893  1.1374  0.2183
  736SOL     OW 2342   2.957   2.536   1.850  0.2029 -0.3780  0.3175
  736SOL    HW1 2343   3.022   2.484   1.897  1.2644  0.4254 -0.2278
  736SOL    HW2 2344   3.006   2.609   1.813 -0.7548 -0.5196 -1.3125
  737SOL     OW 2345   0.913   2.205   0.516  0.2492  0.5439  1.1891
  737SOL    HW1 2346   0.902   2.170   0.605 -1.1785 -1.6042  0.2577
  737SOL    HW2 2347   0.837   2.172   0.468  1.7701  0.3538 -1.2315
  738SOL     OW 2348   2.193   1.644   2.273  0.1437  0.3851  0.0552
  738SOL    HW1 2349   2.267   1.607   2.321 -0.6693  0.5986  1.5077
  738SOL    HW2 2350   2.129   1.573   2.269  1.3122 -0.7054 -3.4570
  739SOL     OW 2351   1.739   2.926   2.276 -0.2939  0.2359  0.2984
  739SOL    HW1 2352   1.743   2.849   2.334  1.9995  0.2821  0.2767
  739SOL    HW2 2353   1.660   2.973   2.305 -0.4575 -0.9082  1.8705
  740SOL     OW 2354   2.453   0.354   3.285 -0.1465 -0.9551 -0.6362
  740SOL    HW1 2355   2.429   0.307   3.365 -0.6177  0.9724  0.4292
  740SOL    HW2 2356   2.377   0.343   3.228 -0.6089 -0.8103 -0.0661
  741SOL     OW 2357   0.487   0.527   1.543 -0.2898  0.5180 -0.6488
  741SOL    HW1 2358   0.454   0.542   1.631  2.8168 -2.4798  1.3338
  741SOL    HW2 2359   0.528   0.609   1.518 -0.3607  1.1590  1.1922
  742SOL     OW 2360   1.245   3.242   1.287 -0.2516  0.3641 -0.5192
  742SOL    HW1 2361   1.281   3.155   1.271 -2.7016 -0.4596 -2.1867
  742SOL    HW2 2362   1.182   3.230   1.358  0.0304  0.9912 -0.1517
  743SOL     OW 2363   1.370   0.496   3.902 -0.2439 -0.0536  0.8239
  743SOL    HW1 2364   1.399   0.579   3.865 -0.8410 -0.2422 -0.1022
  743SOL    HW2 2365   1.397   0.500   3.994  1.2489  0.4306  0.3876
  744SOL     OW 2366   1.811   0.489   3.568 -0.1625  0.0390  0.1218
  744SOL    HW1 2367   1.727   0.449   3.586 -0.3815 -0.5258 -1.8778
  744SOL    HW2 2368   1.817   0.491   3.472  2.5894 -1.0368  0.1606
  745SOL     OW 2369   3.501   1.919   0.089  0.1338 -0.3368 -0.1652
  745SOL    HW1 2370   3.446   1.997   0.099 -0.2065 -0.7462  1.5247
  745SOL    HW2 2371   3.455   1.865   0.025  0.2670  0.7346 -1.2046
  746SOL     OW 2372   3.799   3.225   1.645 -1.1183 -0.2665  0.7264
  746SOL    HW1 2373   3.794   3.253   1.736  0.5214 -2.0214  1.4048
  746SOL    HW2 2374   3.786   3.130   1.648 -2.6092 -0.1952 -1.0685
  747SOL     OW 2375   0.623   1.674   0.550 -0.8310  0.0950 -0.3382
  747SOL    HW1 2376   0.553   1.688   0.487 -2.6054  2.3948  1.9658
  747SOL    HW2 2377   0.590   1.709   0.632  2.8295  0.8278  1.0431
  748SOL     OW 2378   2.177   1.322   0.205 -0.7316 -0.0870  0.5091
  748SOL    HW1 2379   2.252   1.314   0.146 -0.6657  2.1928  0.1762
  748SOL    HW2 2380   2.105   1.279   0.158  0.2170 -1.9320  0.6461
  749SOL     OW 2381   2.009   2.139   3.682 -0.0092 -0.6574 -0.0007
  749SOL    HW1 2382   2.069   2.064   3.690 -2.0224 -2.2793  0.7910
  749SOL    HW2 2383   1.926   2.100   3.655 -0.6214  1.5806 -1.6270
  750SOL     OW 2384   2.847   0.739   3.289 -0.2015  0.3878 -0.7661
  750SOL    HW1 2385   2.799   0.665   3.324 -0.8086  1.4945  0.8825
  750SOL    HW2 2386   2.801   0.761   3.207 -3.1670  1.9211  1.1405
  751SOL     OW 2387   2.034   3.261   3.189  0.6271  0.0882  0.2454
  751SOL    HW1 2388   2.085   3.189   3.150  0.9171  0.7573 -0.6537
  751SOL    HW2 2389   2.003   3.311   3.114 -0.5644  0.2382  0.8244
  752SOL     OW 2390   0.302   3.150   1.751 -0.3936 -0.4567  0.8807
  752SOL    HW1 2391   0.365   3.189   1.811  0.9794  0.2218 -0.9251
  752SOL    HW2 2392   0.248   3.223   1.722 -0.4629 -0.6203  0.5915
  753SOL     OW 2393   2.994   3.338   0.792 -0.2372  0.1975  0.2122
  753SOL    HW1 2394   3.078   3.351   0.836  0.6637 -3.4415 -0.0907
  753SOL    HW2 2395   2.931   3.325   0.863  0.7095 -2.9698  0.6279
  754SOL     OW 2396   0.568   2.263   3.630 -0.7876  0.0544 -0.5176
  754SOL    HW1 2397   0.648   2.307   3.598 -0.5552 -0.8359 -1.1984
  754SOL    HW2 2398   0.532   2.324   3.694  2.1033 -0.8035  2.2002
  755SOL     OW 2399   1.448   3.384   2.112  0.4380 -0.3052 -0.0110
  755SOL    HW1 2400   1.490   3.318   2.055 -0.2701 -0.5839 -0.2172
  755SOL    HW2 2401   1.363   3.346   2.134 -0.5813  1.1146 -1.2586
  756SOL     OW 2402   2.874   0.356   0.964 -0.4510  0.0029  0.3324
  756SOL    HW1 2403   2.960   0.325   0.992  0.0069 -0.2355 -1.1980
  756SOL    HW2 2404   2.882   0.365   0.869 -1.7796  1.0623  0.2779
  757SOL     OW 2405   0.136   2.473   0.778 -0.7536 -0.7461  0.4392
  757SOL    HW1 2406   0.089   2.497   0.698  0.7740 -0.7698 -0.4899
  757SOL    HW2 2407   0.103   2.534   0.844 -1.0234  0.1956 -0.5432
  758SOL     OW 2408   1.099   1.935   0.730 -0.0004 -0.3309  0.2444
  758SOL    HW1 2409   1.152   1.885   0.668  0.3576 -0.0343  0.3070
  758SOL    HW2 2410   1.013   1.893   0.729  0.9327 -2.4785  2.0857
  759SOL     OW 2411   0.042   3.263   1.114  0.6199 -0.6946  0.1617
  759SOL    HW1 2412   0.096   3.194   1.076 -1.7462 -2.1684 -0.7940
  759SOL    HW2 2413  -0.021   3.284   1.045 -0.4557  0.4414  1.4339
  760SOL     OW 2414   0.902   1.984   3.619 -0.3438 -0.5967  0.1778
  760SOL    HW1 2415   0.894   1.918   3.551 -2.7659 -0.1131 -0.1170
  760SOL    HW2 2416   0.894   2.068   3.573 -1.1884 -0.2390  0.9336
  761SOL     OW 2417   3.889   0.716   1.533 -0.2863  0.5770  0.3000
  761SOL    HW1 2418   3.800   0.683   1.520 -0.0349  0.0840 -0.2542
  761SOL    HW2 2419   3.922   0.732   1.444  1.2684 -2.2435  0.2301
  762SOL     OW 2420   1.971   2.954   2.558  0.6038 -0.1375  0.6303
  762SOL    HW1 2421   2.016   2.873   2.582  0.8099 -0.1675  0.1672
  762SOL    HW2 2422   2.015   3.022   2.609  0.9414 -0.2147  0.4433
  763SOL     OW 2423   0.371   3.820   0.435 -0.2062  0.4233 -0.5380
  763SOL    HW1 2424   0.290   3.835   0.484  1.2204 -1.8535  3.0178
  763SOL    HW2 2425   0.357   3.735   0.392 -0.4497  1.0826 -1.7861
  764SOL     OW 2426   3.436   3.331   1.928 -0.3586 -0.2421 -0.1458
  764SOL    HW1 2427   3.393   3.385   1.995  0.8179  0.1394  0.3150
  764SOL    HW2 2428   3.458   3.392   1.858 -1.0898 -0.5464 -0.6584
  765SOL     OW 2429   2.689   2.640   1.811  0.4078  0.6565  0.2296
  765SOL    HW1 2430   2.775   2.599   1.822 -0.4984 -1.1157  1.0114
  765SOL    HW2 2431   2.687   2.666   1.719  2.3722  2.2326  0.5366
  766SOL     OW 2432   2.037   0.022   0.198  0.2660  0.2229 -0.1068
  766SOL    HW1 2433   2.036   0.058   0.287  0.0715  0.1491 -0.0775
  766SOL    HW2 2434   2.006   0.094   0.143  0.9567  0.4584 -0.1900
  767SOL     OW 2435   2.019   3.740   3.722 -0.1569 -0.0382  0.5399
  767SOL    HW1 2436   2.042   3.774   3.636 -0.5784  0.9623  0.8096
  767SOL    HW2 2437   2.096   3.757   3.776  0.3356 -1.1988  0.2347
  768SOL     OW 2438   3.425   2.152   1.347 -0.0162 -0.0917 -0.1820
  768SOL    HW1 2439   3.362   2.080   1.351  0.2063 -0.2616  0.3367
  768SOL    HW2 2440   3.491   2.122   1.285 -0.2903 -0.0383 -0.5024
  769SOL     OW 2441   0.564   3.741   1.320  0.3348  0.0876 -0.0979
  769SOL    HW1 2442   0.485   3.706   1.360  0.7100 -0.0896  0.4960
  769SOL    HW2 2443   0.544   3.743   1.226 -0.9486  1.4769  0.1583
  770SOL     OW 2444   2.156   1.652   3.493  0.6470 -0.0536 -0.5039
  770SOL    HW1 2445   2.081   1.680   3.440  1.0890  3.7654  0.6045
  770SOL    HW2 2446   2.229   1.647   3.431  0.4169  0.7906 -0.8500
  771SOL     OW 2447   2.793   0.193   3.464 -0.3989  0.2829  0.4024
  771SOL    HW1 2448   2.855   0.198   3.391  0.3400 -0.4081  0.9709
  771SOL    HW2 2449   2.759   0.104   3.461  0.1066  0.0442  1.2657
  772SOL     OW 2450   2.468   1.703   1.128 -0.2111  0.2218  0.3323
  772SOL    HW1 2451   2.412   1.664   1.195 -0.4182 -0.3297 -0.1438
  772SOL    HW2 2452   2.408   1.728   1.058  0.1767 -0.8768 -0.4199
  773SOL     OW 2453   3.960   1.135   2.027 -0.1280 -0.1157 -0.2828
  773SOL    HW1 2454   3.910   1.143   1.946 -2.9962  1.7003  1.4748
  773SOL    HW2 2455   3.915   1.065   2.075 -0.1098  0.5802  0.7682
  774SOL     OW 2456   1.294   3.923   0.901 -0.7153 -0.0048  0.1623
  774SOL    HW1 2457   1.336   3.872   0.970 -0.7711  1.1727  1.1106
  774SOL    HW2 2458   1.228   3.865   0.863  1.2038 -1.6488 -0.8505
  775SOL     OW 2459   1.548   1.263   1.003  0.2135 -0.4867  0.0435
  775SOL    HW1 2460   1.478   1.229   0.947  1.7185 -1.5122 -1.3338
  775SOL    HW2 2461   1.593   1.184   1.034  2.7800  0.1296 -1.8475
  776SOL     OW 2462   2.320   3.586   0.331  0.4520  0.0071 -0.2727
  776SOL    HW1 2463   2.362   3.577   0.417 -0.4520  0.2952  0.2056
  776SOL    HW2 2464   2.385   3.633   0.278  0.7070  0.5504  0.4887
  777SOL     OW 2465   2.906   0.085   3.935  0.0323  0.0458  0.1536
  777SOL    HW1 2466   2.839   0.117   3.874  0.6205  4.2110  1.3795
  777SOL    HW2 2467   2.986   0.131   3.910  0.8955 -0.0634  2.4500
  778SOL     OW 2468   2.472   3.750   0.847  0.3583 -0.2085 -0.3736
  778SOL    HW1 2469   2.539   3.687   0.875  0.4866  0.4018  0.7361
  778SOL    HW2 2470   2.494   3.769   0.756  1.1040 -0.7757 -0.3210
  779SOL     OW 2471   0.924   1.421   3.010  0.4189  0.0036  0.2485
  779SOL    HW1 2472   0.909   1.339   2.961  0.5021  0.1115  0.0394
  779SOL    HW2 2473   0.866   1.415   3.086  1.0059 -0.6111  0.6581
  780SOL     OW 2474   0.766   2.139   1.284  0.2592  0.3839  0.3330
  780SOL    HW1 2475   0.793   2.186   1.205 -0.0732 -0.0856 -0.0675
  780SOL    HW2 2476   0.759   2.207   1.351 -3.5085  1.6083 -1.0028
  781SOL     OW 2477   3.346   1.841   3.615  0.2953  0.3744 -0.1874
  781SOL    HW1 2478   3.406   1.914   3.600  1.8584 -1.0394 -1.1668
  781SOL    HW2 2479   3.381   1.796   3.691 -0.7261  0.6857  0.4853
  782SOL     OW 2480   3.780   2.711   1.258  0.1552 -0.1139 -0.6464
  782SOL    HW1 2481   3.856   2.733   1.312 -1.1333  2.0316  0.4458
  782SOL    HW2 2482   3.813   2.710   1.169  2.0209 -2.1862 -0.0173
  783SOL     OW 2483   1.752   1.330   1.956 -0.4334 -0.3634 -0.3642
  783SOL    HW1 2484   1.710   1.407   1.996  1.2910  0.5350 -0.1806
  783SOL    HW2 2485   1.784   1.361   1.872  1.8339 -0.3178  0.4402
  784SOL     OW 2486   2.584   3.036   3.858  0.6413  0.1437  0.0684
  784SOL    HW1 2487   2.564   2.965   3.798  1.0370 -1.4093  1.6888
  784SOL    HW2 2488   2.678   3.051   3.848  0.9294 -0.8760  1.0300
  785SOL     OW 2489   1.033   3.002   3.785 -0.5073  0.2815  0.4453
  785SOL    HW1 2490   0.961   2.959   3.830  1.0367 -1.1835  1.6644
  785SOL    HW2 2491   1.015   3.096   3.794 -1.1388  0.0044  2.6704
  786SOL     OW 2492   0.501   0.158   3.463  0.3694  0.8580  0.0911
  786SOL    HW1 2493   0.509   0.252   3.481 -3.2870  2.1283 -3.3763
  786SOL    HW2 2494   0.511   0.152   3.368 -4.2847 -1.3621 -0.5023
  787SOL     OW 2495   3.478   0.862   1.403  0.1566  0.0913 -0.1962
  787SOL    HW1 2496   3.442   0.940   1.447  1.0910  0.8889 -0.7964
  787SOL    HW2 2497   3.405   0.801   1.398 -0.4974  0.7831  0.6420
  788SOL     OW 2498   2.204   3.447   1.587 -0.2034  0.5475  0.2003
  788SOL    HW1 2499   2.243   3.363   1.562 -0.9311 -0.0291  0.9665
  788SOL    HW2 2500   2.178   3.435   1.678 -2.4291  0.8052 -0.3535
  789SOL     OW 2501   3.072   0.582   2.754 -0.3803 -0.0029 -0.0309
  789SOL    HW1 2502   2.984   0.597   2.789 -1.0790 -0.7219 -1.4054
  789SOL    HW2 2503   3.131   0.623   2.818 -1.7233  0.7808  0.7389
  790SOL     OW 2504   0.275   3.083   3.195  0.2912 -0.4548  0.0137
  790SOL    HW1 2505   0.261   3.038   3.112  0.1618  0.6443 -0.5779
  790SOL    HW2 2506   0.194   3.066   3.245 -0.0026 -0.3784 -0.4323
  791SOL     OW 2507   1.352   0.610   3.027 -0.1257 -0.0334 -0.4168
  791SOL    HW1 2508   1.406   0.555   3.084  0.5355  0.3298 -0.6853
  791SOL    HW2 2509   1.269   0.562   3.019  0.0007 -0.3932  0.3394
  792SOL     OW 2510   2.308   1.407   1.924  0.2479  0.6047  0.3732
  792SOL    HW1 2511   2.220   1.388   1.955  0.5678  1.1373  1.6765
  792SOL    HW2 2512   2.364   1.344   1.969  0.5379  0.2474 -0.4725
  793SOL     OW 2513   0.470   1.543   0.952  0.2473 -0.5945 -0.1823
  793SOL    HW1 2514   0.380   1.517   0.932 -0.3655 -0.2076  1.8899
  793SOL    HW2 2515   0.461   1.612   1.018  1.9979  1.2780 -1.7287
  794SOL     OW 2516   3.646   1.792   2.171  0.0816 -0.3719 -0.2760
  794SOL    HW1 2517   3.622   1.727   2.237  2.8140  0.2553  1.5082
  794SOL    HW2 2518   3.655   1.873   2.220 -0.0380  0.6447 -1.8659
  795SOL     OW 2519   0.943   2.804   2.791 -0.3160  0.0295 -0.0570
  795SOL    HW1 2520   0.968   2.891   2.760  2.7453 -0.3271  1.0796
  795SOL    HW2 2521   0.968   2.745   2.720  1.1588 -0.2274  0.6429
  796SOL     OW 2522   1.141   3.746   3.259 -0.2477  0.9065 -0.2109
  796SOL    HW1 2523   1.105   3.744   3.170 -0.0464  1.0924 -0.2971
  796SOL    HW2 2524   1.224   3.791   3.250 -1.3344  3.1802  0.4543
  797SOL     OW 2525   1.979   1.527   3.227 -0.5563 -0.4761  0.0766
  797SOL    HW1 2526   2.042   1.457   3.209 -3.0434 -3.7342  2.8271
  797SOL    HW2 2527   1.897   1.496   3.189 -1.4015  1.8138 -0.0882
  798SOL     OW 2528   1.101   0.841   3.452 -0.2886  0.4358  0.1312
  798SOL    HW1 2529   1.101   0.798   3.367 -2.8671  2.3246 -0.9721
  798SOL    HW2 2530   1.079   0.772   3.515 -1.0351 -0.4997 -1.1139
  799SOL     OW 2531   3.894   0.680   1.815  0.6373 -0.0094  0.3291
  799SOL    HW1 2532   3.800   0.669   1.829  0.5921  0.5693  0.4882
  799SOL    HW2 2533   3.901   0.712   1.725  0.5756  1.2867  0.7555
  800SOL     OW 2534   0.758   1.302   2.317  0.2952 -0.3197  0.1039
  800SOL    HW1 2535   0.760   1.391   2.353  0.5066  0.0075 -0.6886
  800SOL    HW2 2536   0.816   1.306   2.241  0.1207 -1.0805 -0.0747
  801SOL     OW 2537   3.158   3.739   1.314  0.0230  0.3482 -0.1916
  801SOL    HW1 2538   3.222   3.667   1.310  1.9535  1.9870 -3.0524
  801SOL    HW2 2539   3.112   3.734   1.230 -1.7306  0.8985  0.6911
  802SOL     OW 2540   2.300   3.785   3.059 -0.2111  0.2251 -0.1859
  802SOL    HW1 2541   2.389   3.798   3.027 -0.3115  0.9258 -0.1964
  802SOL    HW2 2542   2.245   3.789   2.981 -0.1726 -1.2857 -0.3307
  803SOL     OW 2543   3.269   2.555   3.091  0.7911 -0.5854 -0.0059
  803SOL    HW1 2544   3.222   2.482   3.051  0.1043 -1.0267  1.5235
  803SOL    HW2 2545   3.319   2.516   3.162 -1.1996  0.5921  2.2099
  804SOL     OW 2546   1.108   2.578   3.631  0.7837  0.5961 -0.0863
  804SOL    HW1 2547   1.025   2.567   3.678  0.9802  0.3654  0.2145
  804SOL    HW2 2548   1.086   2.632   3.555  0.5350  1.3366  0.4983
  805SOL     OW 2549   2.561   0.006   1.281  0.2675 -0.0709 -0.0575
  805SOL    HW1 2550   2.549   0.066   1.208 -1.2525 -0.0615  0.1744
  805SOL    HW2 2551   2.499  -0.065   1.266 -0.5770  0.2669  1.5463
  806SOL     OW 2552   1.296   2.982   0.824 -0.2399  0.2832  0.0354
  806SOL    HW1 2553   1.352   3.006   0.898 -1.2199  0.1786  0.8256
  806SOL    HW2 2554   1.254   3.064   0.798 -0.5283  0.1672  0.1331
  807SOL     OW 2555   3.626   3.332   3.246 -0.0027 -0.7546  0.2672
  807SOL    HW1 2556   3.687   3.259   3.242 -0.5805 -1.2525  0.3951
  807SOL    HW2 2557   3.680   3.410   3.231  1.2151 -0.8679  3.3669
  808SOL     OW 2558   2.633   3.140   0.753  0.1031  0.0371  0.0926
  808SOL    HW1 2559   2.551   3.112   0.794 -0.0278 -0.8558 -0.7355
  808SOL    HW2 2560   2.639   3.086   0.674  0.7538  1.1462 -0.6303
  809SOL     OW 2561   0.528   0.441   2.733  0.3363 -0.2349  0.3070
  809SOL    HW1 2562   0.614   0.399   2.731  0.6556  0.4165 -0.0268
  809SOL    HW2 2563   0.506   0.455   2.641  1.7575  3.2926  0.3420
  810SOL     OW 2564   1.950   0.515   2.606  0.0438 -0.1890  0.3160
  810SOL    HW1 2565   1.967   0.511   2.700  0.3116  0.0158  0.2761
  810SOL    HW2 2566   1.861   0.481   2.596 -0.4920  1.0425  0.7853
  811SOL     OW 2567   3.777   2.131   3.256 -0.9047  0.4380  0.3148
  811SOL    HW1 2568   3.824   2.047   3.251  0.0402  0.9385  0.5512
  811SOL    HW2 2569   3.790   2.171   3.170 -1.0731  0.4891  0.3135
  812SOL     OW 2570   1.856   3.492   2.223 -0.2260 -0.4783  0.2811
  812SOL    HW1 2571   1.847   3.453   2.310 -1.1447 -2.5534 -0.6648
  812SOL    HW2 2572   1.925   3.441   2.180  1.6518  1.7889  0.3690
  813SOL     OW 2573   1.393   0.440   1.006 -0.1042  0.4726 -0.0184
  813SOL    HW1 2574   1.471   0.477   1.048  1.6369 -0.4522 -2.2760
  813SOL    HW2 2575   1.392   0.348   1.033 -1.7581  0.9286  1.7634
  814SOL     OW 2576   3.052   2.147   2.640 -0.2038 -0.9705  0.0256
  814SOL    HW1 2577   2.999   2.068   2.638 -2.5353  0.4907 -0.3702
  814SOL    HW2 2578   2.990   2.218   2.622  1.6625  1.0088  0.8810
  815SOL     OW 2579   3.507   3.069   2.628  0.2574 -0.0829 -0.2014
  815SOL    HW1 2580   3.435   3.129   2.646  0.9415  0.0820  2.4329
  815SOL    HW2 2581   3.464   2.985   2.612 -0.5806 -0.0959  1.7862
  816SOL     OW 2582   3.877   1.083   3.338 -0.2747  0.0177 -0.7059
  816SOL    HW1 2583   3.928   1.078   3.257  2.2079 -1.8887  0.8059
  816SOL    HW2 2584   3.918   1.153   3.388  0.6840 -1.2503  0.3522
  817SOL     OW 2585   0.380   2.086   0.040  0.4177 -0.2910 -0.0380
  817SOL    HW1 2586   0.330   2.057  -0.036  0.1017 -1.4095  0.5678
  817SOL    HW2 2587   0.468   2.102   0.006  0.1700 -0.3437 -0.7268
  818SOL     OW 2588   2.830   2.576   0.023  0.2764  0.0884  0.3118
  818SOL    HW1 2589   2.771   2.506   0.049  1.9205 -1.1926  0.7604
  818SOL    HW2 2590   2.808   2.649   0.081  0.1742 -0.8833  1.5287
  819SOL     OW 2591   0.000   0.004   0.198 -0.3586 -0.0042  0.0599
  819SOL    HW1 2592   0.083   0.031   0.158 -0.6793 -2.2470 -2.4115
  819SOL    HW2 2593  -0.066   0.057   0.154 -0.4075  0.7279  0.9719
  820SOL     OW 2594   0.634   2.722   1.892 -0.7972 -0.6715 -0.0403
  820SOL    HW1 2595   0.583   2.641   1.898 -0.2373 -0.9079  2.4514
  820SOL    HW2 2596   0.689   2.722   1.970 -1.0722  2.3149  0.2719
  821SOL     OW 2597   2.836   2.370   3.256 -0.0131 -0.0061 -0.4065
  821SOL    HW1 2598   2.777   2.345   3.327 -0.7849 -0.5208 -1.1924
  821SOL    HW2 2599   2.884   2.445   3.289 -0.2889 -0.2996  0.6863
  822SOL     OW 2600   3.342   3.921   1.871  0.0355  0.3699  0.0392
  822SOL    HW1 2601   3.254   3.887   1.886 -0.1115  1.1709  1.0949
  822SOL    HW2 2602   3.345   4.003   1.920  1.3988  0.3055  0.0969
  823SOL     OW 2603   1.854   1.416   3.743  0.3056  0.0406 -0.4797
  823SOL    HW1 2604   1.776   1.472   3.742 -0.6207 -0.9963  2.3342
  823SOL    HW2 2605   1.910   1.452   3.674 -1.6593  2.2731 -1.0745
  824SOL     OW 2606   1.403   2.169   2.006 -0.1095 -0.3518  0.1020
  824SOL    HW1 2607   1.400   2.075   1.986 -1.0005 -0.0873 -1.1763
  824SOL    HW2 2608   1.490   2.183   2.042 -1.0350 -2.2712  3.6693
  825SOL     OW 2609   1.281   2.166   0.733 -0.4370 -0.4083  0.4260
  825SOL    HW1 2610   1.281   2.152   0.639 -1.1725  1.2710  0.1393
  825SOL    HW2 2611   1.220   2.099   0.767 -0.4694 -0.7647 -0.3191
  826SOL     OW 2612   2.883   0.747   1.112  0.4792  0.1019  0.0763
  826SOL    HW1 2613   2.970   0.758   1.074  0.3100  1.4134  0.0096
  826SOL    HW2 2614   2.881   0.810   1.185 -0.1438 -0.4662  0.5624
  827SOL     OW 2615   2.450   1.786   0.472  0.2175 -0.4701  0.1175
  827SOL    HW1 2616   2.456   1.713   0.410  1.8185 -0.7653  0.5634
  827SOL    HW2 2617   2.415   1.747   0.551 -0.4262 -0.4057 -0.1289
  828SOL     OW 2618   1.016   1.020   0.972  0.7906  0.9472  0.2900
  828SOL    HW1 2619   1.110   0.999   0.968  0.5312 -0.0163 -1.6254
  828SOL    HW2 2620   1.012   1.100   1.024  2.9141  2.3462 -1.5499
  829SOL     OW 2621   0.589   0.861   0.095  0.1258  0.0959 -0.0164
  829SOL    HW1 2622   0.630   0.850   0.010 -1.4819  0.4491 -0.8709
  829SOL    HW2 2623   0.653   0.908   0.147  1.1401 -0.1442 -1.0167
  830SOL     OW 2624   0.027   3.347   2.164 -0.2747  0.4705  0.0981
  830SOL    HW1 2625  -0.018   3.315   2.242  1.6220 -1.2909  0.5545
  830SOL    HW2 2626  -0.026   3.315   2.091  1.6309 -4.5108  0.4850
  831SOL     OW 2627   0.790   0.080   2.439 -0.6704  0.5848 -0.1789
  831SOL    HW1 2628   0.749  -0.004   2.417  1.8692 -1.0450  0.6791
  831SOL    HW2 2629   0.846   0.100   2.364 -1.2212  1.4978 -0.3513
  832SOL     OW 2630   1.589   1.417   2.949 -0.1007  0.7523  0.0609
  832SOL    HW1 2631   1.531   1.355   2.993  0.8997 -0.2937 -0.0394
  832SOL    HW2 2632   1.563   1.503   2.982 -1.4750  0.2800  0.2543
  833SOL     OW 2633   1.725   1.449   0.140  0.7249 -0.3452 -0.8276
  833SOL    HW1 2634   1.790   1.494   0.194  0.1527  0.1525 -0.5380
  833SOL    HW2 2635   1.642   1.467   0.183  0.4537 -1.5271 -0.8149
  834SOL     OW 2636   2.897   2.282   1.716  0.3577 -0.2330 -0.0486
  834SOL    HW1 2637   2.877   2.371   1.742 -0.8585 -0.0023 -1.6176
  834SOL    HW2 2638   2.918   2.288   1.622  2.1658 -1.3324  0.2265
  835SOL     OW 2639   0.644   3.238   1.787 -0.6200  0.0241  0.4736
  835SOL    HW1 2640   0.656   3.332   1.803 -1.3889  0.3138 -0.5551
  835SOL    HW2 2641   0.610   3.205   1.870 -0.9361  0.7800  0.6616
  836SOL     OW 2642   2.079   1.132   3.778  0.5489 -0.2784 -0.1424
  836SOL    HW1 2643   2.153   1.162   3.726  0.1318  0.9281 -0.0614
  836SOL    HW2 2644   2.083   1.183   3.859  0.4419 -1.2168  0.4747
  837SOL     OW 2645   2.186   0.813   0.914 -0.6640  0.6889  0.1314
  837SOL    HW1 2646   2.255   0.870   0.879  0.2542  0.2290  1.1636
  837SOL    HW2 2647   2.105   0.861   0.896 -0.3169  0.3504 -2.8896
  838SOL     OW 2648   3.631   0.642   1.524 -0.0590  0.1681 -0.1306
  838SOL    HW1 2649   3.586   0.558   1.515 -1.3413  0.8296 -0.1733
  838SOL    HW2 2650   3.574   0.704   1.479 -0.8719  1.6407  2.6863
  839SOL     OW 2651   3.528   2.058   2.831 -0.5019  0.1239 -0.5865
  839SOL    HW1 2652   3.609   2.089   2.790  0.5912  0.0903  1.4366
  839SOL    HW2 2653   3.511   2.121   2.901 -3.1699  1.0638 -1.9438
  840SOL     OW 2654   1.195   1.521   3.546  0.1207 -0.2169  0.5201
  840SOL    HW1 2655   1.152   1.541   3.463  1.5270 -1.5224 -0.5714
  840SOL    HW2 2656   1.275   1.474   3.522  0.6368 -0.5288  2.6084
  841SOL     OW 2657   0.602   1.312   3.743  0.0186  0.0243 -0.5134
  841SOL    HW1 2658   0.668   1.270   3.798  0.3509 -0.6372 -1.4052
  841SOL    HW2 2659   0.637   1.399   3.725  0.8718 -0.4936 -1.3765
  842SOL     OW 2660   2.655   3.601   3.701 -0.1988 -0.0095 -0.1476
  842SOL    HW1 2661   2.750   3.606   3.717  0.1004 -0.1444 -1.7664
  842SOL    HW2 2662   2.620   3.564   3.782  1.3613 -1.6878 -0.1568
  843SOL     OW 2663   1.667   0.274   1.681 -0.3273 -0.9883 -0.6466
  843SOL    HW1 2664   1.620   0.335   1.737 -0.1057 -0.9457 -0.5071
  843SOL    HW2 2665   1.599   0.232   1.629 -0.3689  0.7191 -2.0934
  844SOL     OW 2666   3.044   1.550   2.419  0.2398  0.1577  0.0377
  844SOL    HW1 2667   3.116   1.573   2.478 -0.8393  0.0463  1.4645
  844SOL    HW2 2668   3.071   1.583   2.334  0.0037  4.2988  1.3584
  845SOL     OW 2669   0.211   3.629   2.163  0.4984  0.1463 -0.3261
  845SOL    HW1 2670   0.228   3.705   2.218  1.0214  0.3533 -0.7650
  845SOL    HW2 2671   0.156   3.572   2.217  1.7140 -0.0544  0.7648
  846SOL     OW 2672   0.935   0.881   3.700 -0.0085  0.0898 -0.3671
  846SOL    HW1 2673   1.023   0.849   3.719 -0.5632 -1.1716  0.1678
  846SOL    HW2 2674   0.946   0.937   3.624  1.0054 -1.4177 -1.3780
  847SOL     OW 2675   1.628   2.682   0.172  0.1299  0.1975 -0.2178
  847SOL    HW1 2676   1.579   2.650   0.096  0.2070  1.1691 -0.6909
  847SOL    HW2 2677   1.578   2.757   0.204  1.0808  0.9620 -0.4741
  848SOL     OW 2678   2.861   2.889   3.621  0.6064 -0.2272 -0.1980
  848SOL    HW1 2679   2.887   2.866   3.532 -0.5489 -0.1294 -0.5714
  848SOL    HW2 2680   2.776   2.932   3.612  0.1671 -0.7872  1.0035
  849SOL     OW 2681   1.323   0.242   3.785  0.4865  0.0935  0.1707
  849SOL    HW1 2682   1.380   0.314   3.811 -2.6558  3.6789 -1.7783
  849SOL    HW2 2683   1.255   0.240   3.853  1.3884 -2.3436  1.1022
  850SOL     OW 2684   2.769   0.783   2.221  0.2489  0.1327 -0.1765
  850SOL    HW1 2685   2.771   0.878   2.217  1.1177  0.0854 -1.4035
  850SOL    HW2 2686   2.756   0.756   2.130 -0.3134 -0.9236  0.1979
  851SOL     OW 2687   0.024   2.633   2.926  0.5541 -0.2085  0.2113
  851SOL    HW1 2688   0.046   2.549   2.884  1.6842  0.1151  0.1228
  851SOL    HW2 2689   0.042   2.699   2.859  0.5600  0.1645  0.5744
  852SOL     OW 2690   2.358   3.213   3.202  0.1088  0.1689  0.3835
  852SOL    HW1 2691   2.305   3.223   3.281 -1.3944 -0.0030 -0.5668
  852SOL    HW2 2692   2.300   3.169   3.140  2.1464 -2.3131  0.0610
  853SOL     OW 2693   3.707   3.203   2.357 -0.1411 -0.3015  0.9157
  853SOL    HW1 2694   3.657   3.176   2.435 -0.1963 -1.3622  0.5307
  853SOL    HW2 2695   3.641   3.218   2.290 -0.0032 -1.0924  0.5869
  854SOL     OW 2696   3.549   3.444   3.873  0.4580  0.1812 -0.3626
  854SOL    HW1 2697   3.590   3.525   3.903  0.0438 -0.7812  3.1690
  854SOL    HW2 2698   3.622   3.391   3.841  1.4107  0.2919  1.4699
  855SOL     OW 2699   3.861   0.438   0.055 -0.0041  0.3962  0.1646
  855SOL    HW1 2700   3.883   0.375   0.123 -0.5102 -0.9875 -0.9050
  855SOL    HW2 2701   3.942   0.449   0.005 -0.3315 -0.7652 -0.6767
  856SOL     OW 2702   1.010   3.178   1.429  0.6598  0.0092 -0.7322
  856SOL    HW1 2703   0.986   3.087   1.410  0.7776  0.2797 -2.2469
  856SOL    HW2 2704   1.037   3.176   1.521 -2.9796 -0.7366  0.4778
  857SOL     OW 2705   0.953   3.045   1.930  0.1914 -0.4670  0.1928
  857SOL    HW1 2706   0.929   2.969   1.877 -1.4991 -0.2228  0.5338
  857SOL    HW2 2707   0.906   3.118   1.890  2.5296  0.6334 -0.7046
  858SOL     OW 2708   2.281   2.567   1.510  0.3998 -0.3775  0.2346
  858SOL    HW1 2709   2.209   2.547   1.569 -0.3837  1.1957 -0.1566
  858SOL    HW2 2710   2.286   2.491   1.452 -0.1834 -1.0035  0.9838
  859SOL     OW 2711   1.893   0.737   2.876  0.5305 -0.0782  0.3650
  859SOL    HW1 2712   1.798   0.732   2.883  0.3254 -2.4364 -2.3871
  859SOL    HW2 2713   1.910   0.825   2.842 -0.4297  0.9628  2.3784
  860SOL     OW 2714   1.194   1.878   0.481  0.0148  0.5436  0.1380
  860SOL    HW1 2715   1.280   1.882   0.439  0.7057  0.4429  1.4979
  860SOL    HW2 2716   1.158   1.966   0.469  0.7219  0.8794  0.4008
  861SOL     OW 2717   2.067   2.607   1.241  0.2862  0.4739 -0.3437
  861SOL    HW1 2718   2.049   2.592   1.148  0.8394  0.4170 -0.4450
  861SOL    HW2 2719   2.069   2.702   1.250 -1.4282  0.5053 -0.0554
  862SOL     OW 2720   2.310   2.298   1.731 -0.6431 -0.9435 -0.8310
  862SOL    HW1 2721   2.269   2.278   1.647 -0.0970  0.0434 -1.3461
  862SOL    HW2 2722   2.297   2.392   1.743  2.8602 -0.1705 -1.8429
  863SOL     OW 2723   2.772   3.680   1.649 -0.0414  0.6203 -0.2906
  863SOL    HW1 2724   2.815   3.764   1.665  0.8874  0.2705 -0.8612
  863SOL    HW2 2725   2.833   3.633   1.593  1.3010 -1.9579  3.0083
  864SOL     OW 2726   2.664   0.232   0.432  0.5829 -0.0314 -0.8958
  864SOL    HW1 2727   2.588   0.175   0.441  1.3104 -0.9178 -0.1860
  864SOL    HW2 2728   2.646   0.284   0.354 -0.8141 -0.1185 -0.6503
  865SOL     OW 2729   2.341   1.687   0.718 -1.3155 -0.0956 -0.5332
  865SOL    HW1 2730   2.374   1.769   0.755 -0.6365 -0.2717 -0.7424
  865SOL    HW2 2731   2.253   1.678   0.756 -0.3691 -0.6792  1.6578
  866SOL     OW 2732   2.849   2.493   0.549  0.6427  0.6873  0.5862
  866SOL    HW1 2733   2.913   2.483   0.620 -0.1377 -0.7384  1.1420
  866SOL    HW2 2734   2.891   2.452   0.474  0.2020 -0.8048  1.1063
  867SOL     OW 2735   3.272   1.273   2.417  0.1801 -0.0277 -0.1829
  867SOL    HW1 2736   3.275   1.257   2.512  0.5094  1.2668  0.0478
  867SOL    HW2 2737   3.338   1.341   2.403 -0.5708  0.4988 -1.2071
  868SOL     OW 2738   1.068   0.005   1.922 -0.6912  0.3587  0.1277
  868SOL    HW1 2739   1.137  -0.059   1.937  0.3261  1.3060 -0.3540
  868SOL    HW2 2740   0.989  -0.037   1.955 -0.2596 -1.5629 -1.0943
  869SOL     OW 2741   3.384   0.180   0.950  0.5962 -0.0908  0.0691
  869SOL    HW1 2742   3.470   0.152   0.921  0.1779 -2.2902  0.7909
  869SOL    HW2 2743   3.361   0.120   1.021  0.0430  2.7746  2.5791
  870SOL     OW 2744   2.698   2.138   0.194  0.1717  0.3763  0.3811
  870SOL    HW1 2745   2.754   2.130   0.271  1.9191  0.0605 -0.8538
  870SOL    HW2 2746   2.658   2.052   0.183  1.0055 -0.0025  0.1858
  871SOL     OW 2747   3.025   0.443   2.464 -0.1350 -0.5911 -0.6097
  871SOL    HW1 2748   3.065   0.522   2.429 -0.7944 -0.6267 -1.4831
  871SOL    HW2 2749   2.997   0.467   2.552 -0.1802  0.1029 -0.8064
  872SOL     OW 2750   3.603   1.688   2.407  0.1374 -0.4253 -0.1597
  872SOL    HW1 2751   3.549   1.767   2.410  0.1776 -0.3874  2.3936
  872SOL    HW2 2752   3.660   1.695   2.484  2.9985 -1.0614 -2.0456
  873SOL     OW 2753   1.672   1.264   1.430  0.4060  0.4601  0.0036
  873SOL    HW1 2754   1.587   1.287   1.392  0.1172  2.7046  1.7692
  873SOL    HW2 2755   1.697   1.342   1.481  2.2110 -1.1698  1.7720
  874SOL     OW 2756   1.578   1.485   2.426 -0.4367 -0.1429  0.2090
  874SOL    HW1 2757   1.632   1.406   2.429 -0.3947 -0.0759  1.6447
  874SOL    HW2 2758   1.491   1.456   2.454 -1.6103 -0.5240 -3.2541
  875SOL     OW 2759   1.452   2.269   1.684 -0.0850 -0.0445 -0.4121
  875SOL    HW1 2760   1.505   2.276   1.604  1.2815 -1.4110  0.3268
  875SOL    HW2 2761   1.429   2.176   1.690 -0.2376  0.0546  0.7516
  876SOL     OW 2762   0.667   0.610   0.806 -0.0155  0.1900 -0.1049
  876SOL    HW1 2763   0.577   0.641   0.813  0.2074  0.8705 -0.2267
  876SOL    HW2 2764   0.680   0.556   0.884 -0.1439  1.0781  0.5342
  877SOL     OW 2765   1.269   1.745   1.718  0.0268 -0.0274 -0.2422
  877SOL    HW1 2766   1.297   1.681   1.653  0.1259  1.5429 -1.8133
  877SOL    HW2 2767   1.198   1.702   1.765  0.4302 -1.4696 -0.8934
  878SOL     OW 2768   2.578   0.968   1.013  0.2652 -0.2017  0.2360
  878SOL    HW1 2769   2.612   1.029   1.077  2.5843 -0.5348 -0.5763
  878SOL    HW2 2770   2.598   0.881   1.049  0.4532 -0.4015 -0.3309
  879SOL     OW 2771   3.346   2.367   3.527 -0.5449  0.7606  0.2162
  879SOL    HW1 2772   3.268   2.382   3.474 -0.3478  1.6041  0.1568
  879SOL    HW2 2773   3.399   2.308   3.475 -1.9564 -1.3554  1.0525
  880SOL     OW 2774   1.670   0.930   3.874  0.3771 -1.2287  0.1136
  880SOL    HW1 2775   1.682   1.025   3.861  2.1957 -1.0366  2.5235
  880SOL    HW2 2776   1.754   0.892   3.849  0.0139 -2.1082  0.1908
  881SOL     OW 2777   0.401   0.650   0.013  0.2293 -0.3830 -0.1510
  881SOL    HW1 2778   0.365   0.689  -0.067 -2.0392  1.8691  1.7997
  881SOL    HW2 2779   0.453   0.719   0.053  0.2391 -1.0139  0.9745
  882SOL     OW 2780   0.818   2.472   3.495  0.2190  0.5889 -0.0913
  882SOL    HW1 2781   0.889   2.520   3.453  1.2878 -0.3963  0.5372
  882SOL    HW2 2782   0.809   2.514   3.581  0.8595 -0.0567  0.2917
  883SOL     OW 2783   2.010   3.071   2.315  0.1693 -0.7540  0.2645
  883SOL    HW1 2784   1.956   3.037   2.387  0.6951 -1.2048  0.4535
  883SOL    HW2 2785   1.952   3.070   2.239 -0.9135  1.2593  0.9858
  884SOL     OW 2786   1.967   0.222   3.425  0.0601  0.2241  0.1863
  884SOL    HW1 2787   1.935   0.307   3.396  1.6908  1.6552  2.2978
  884SOL    HW2 2788   1.959   0.166   3.348 -0.6842  2.3661 -1.3981
  885SOL     OW 2789   1.684   2.187   3.887  0.0349 -0.4355 -0.3861
  885SOL    HW1 2790   1.625   2.256   3.918 -0.1879 -0.9677  0.4288
  885SOL    HW2 2791   1.757   2.189   3.948 -0.2484 -1.2866  0.0042
  886SOL     OW 2792   3.144   1.211   3.026  0.2518 -0.1813  0.5082
  886SOL    HW1 2793   3.185   1.125   3.040  0.9338 -0.3389 -1.9448
  886SOL    HW2 2794   3.174   1.264   3.100  0.1205 -1.9145  1.8795
  887SOL     OW 2795   1.946   0.814   1.361 -0.0818 -0.1452 -0.4504
  887SOL    HW1 2796   1.957   0.899   1.405 -2.0329 -0.0914  0.0405
  887SOL    HW2 2797   1.851   0.801   1.359  0.1887 -2.4125 -0.3830
  888SOL     OW 2798   1.894   0.023   3.246 -0.5878  0.4497 -0.8062
  888SOL    HW1 2799   1.897  -0.030   3.166 -0.9531 -0.0870 -0.4718
  888SOL    HW2 2800   1.861  -0.037   3.313  2.2056  0.0875  0.3771
  889SOL     OW 2801   3.821   1.597   0.011  0.0340 -0.0305  0.1080
  889SOL    HW1 2802   3.888   1.554  -0.042  0.1761  0.2948  0.0174
  889SOL    HW2 2803   3.763   1.638  -0.054 -0.0980 -0.0854  0.1922
  890SOL     OW 2804   1.200   3.679   1.213  0.1106 -0.5603  0.2373
  890SOL    HW1 2805   1.200   3.584   1.198 -1.0197 -0.1713 -3.0766
  890SOL    HW2 2806   1.291   3.705   1.200 -0.2978 -0.6614 -4.7528
  891SOL     OW 2807   1.016   2.649   3.388 -0.4919  0.7435  0.1818
  891SOL    HW1 2808   0.967   2.727   3.364 -1.8995 -0.0481  0.3665
  891SOL    HW2 2809   1.059   2.621   3.307 -0.3756  1.4253  0.0048
  892SOL     OW 2810   1.200   3.067   2.954  0.2382 -0.1244  0.1796
  892SOL    HW1 2811   1.288   3.073   2.992  1.3641 -2.8137 -1.7524
  892SOL    HW2 2812   1.197   3.139   2.891  0.2524  1.2011  1.6219
  893SOL     OW 2813   3.594   2.325   1.528 -0.6470  0.2128 -0.1693
  893SOL    HW1 2814   3.658   2.396   1.539 -1.3881  0.8923 -0.1642
  893SOL    HW2 2815   3.641   2.258   1.479  0.0651  0.7061 -0.1835
  894SOL     OW 2816   0.615   0.211   1.946 -0.6086  0.1721  0.4563
  894SOL    HW1 2817   0.678   0.255   2.003 -1.2147 -1.3265  2.3582
  894SOL    HW2 2818   0.668   0.180   1.872  1.0887 -1.5880  2.2803
  895SOL     OW 2819   2.978   2.841   3.369 -0.7429 -0.0934 -0.9092
  895SOL    HW1 2820   3.050   2.801   3.319  3.5352  0.1967  4.0543
  895SOL    HW2 2821   2.993   2.935   3.362  0.2967 -0.0545  1.0625
  896SOL     OW 2822   2.554   0.255   1.019  0.2030  0.2900  0.2110
  896SOL    HW1 2823   2.565   0.311   0.942 -1.0186  0.7354  0.3447
  896SOL    HW2 2824   2.538   0.315   1.091 -0.3784 -0.1976  0.4955
  897SOL     OW 2825   2.168   1.364   0.866 -0.2702  0.0167  0.3744
  897SOL    HW1 2826   2.243   1.381   0.923  0.2836 -0.1581 -0.2863
  897SOL    HW2 2827   2.101   1.327   0.924  0.0489  0.4460  1.0219
  898SOL     OW 2828   0.113   0.046   2.403 -0.0363  0.3900 -0.2862
  898SOL    HW1 2829   0.048  -0.023   2.417 -0.5709  0.6028 -1.6038
  898SOL    HW2 2830   0.080   0.121   2.452  0.9566 -0.4727  1.8447
  899SOL     OW 2831   2.496   0.716   0.634 -0.8394  0.5037 -0.0572
  899SOL    HW1 2832   2.442   0.790   0.606 -2.3147 -0.0337  1.2454
  899SOL    HW2 2833   2.494   0.719   0.730  0.1331 -0.4872  0.0259
  900SOL     OW 2834   1.385   2.580   0.853 -0.4061 -0.2350  0.2687
  900SOL    HW1 2835   1.468   2.561   0.811  0.0522 -0.0254  1.0659
  900SOL    HW2 2836   1.371   2.506   0.913 -0.6576 -0.1390  0.3293
  901SOL     OW 2837   2.998   1.659   1.002  0.0977  0.1571  0.3925
  901SOL    HW1 2838   2.918   1.686   1.048  0.0272  2.4071 -0.9215
  901SOL    HW2 2839   3.069   1.695   1.054  0.1077  0.7833 -0.0445
  902SOL     OW 2840   3.248   0.879   3.484 -0.0547 -0.1347  0.1660
  902SOL    HW1 2841   3.178   0.816   3.497  0.7405 -0.7112  1.9277
  902SOL    HW2 2842   3.274   0.906   3.572  1.8986  0.1054 -0.4273
  903SOL     OW 2843   0.375   1.347   1.322 -0.1809  0.1081 -0.5752
  903SOL    HW1 2844   0.320   1.340   1.244 -0.6524 -0.3386 -0.2083
  903SOL    HW2 2845   0.313   1.348   1.395  0.2196  1.1752 -0.2328
  904SOL     OW 2846   0.687   0.849   3.298 -0.2502 -0.1691 -0.0686
  904SOL    HW1 2847   0.601   0.844   3.256 -0.6491 -1.0770  0.8096
  904SOL    HW2 2848   0.719   0.758   3.299 -0.3059 -0.2066  1.6427
  905SOL     OW 2849   2.400   1.023   0.392  0.4630  0.6495  0.1192
  905SOL    HW1 2850   2.365   1.066   0.314  1.1315 -0.9883 -1.1407
  905SOL    HW2 2851   2.426   1.095   0.449 -1.5996  1.9071 -0.4114
  906SOL     OW 2852   2.635   1.225   2.686 -0.2500 -0.1573  0.3531
  906SOL    HW1 2853   2.559   1.276   2.713  0.5534  0.5606  1.3407
  906SOL    HW2 2854   2.649   1.162   2.756 -1.8634 -2.5719 -1.3168
  907SOL     OW 2855   2.209   2.016   2.023  0.1947  0.2469  0.2425
  907SOL    HW1 2856   2.255   1.977   1.949 -1.1070 -0.9082 -0.0151
  907SOL    HW2 2857   2.175   2.099   1.989  0.3543  0.1379 -0.1889
  908SOL     OW 2858   1.114   2.886   2.413  0.0409  0.2464  0.2144
  908SOL    HW1 2859   1.076   2.806   2.449  0.6636 -0.5179 -0.7915
  908SOL    HW2 2860   1.177   2.856   2.347  0.1366  1.5638 -0.3294
  909SOL     OW 2861   0.240   1.998   3.783  0.5246 -0.0462 -0.1786
  909SOL    HW1 2862   0.170   1.939   3.810 -1.6733  2.0165 -0.9444
  909SOL    HW2 2863   0.248   1.984   3.689 -0.1239  0.9142 -0.3947
  910SOL     OW 2864   2.027   0.452   1.716 -0.5059 -0.4598 -0.4128
  910SOL    HW1 2865   1.947   0.504   1.721 -1.2294 -1.4818 -0.8617
  910SOL    HW2 2866   2.064   0.457   1.804 -1.3967 -0.4571 -0.0193
  911SOL     OW 2867   2.722   3.593   0.847 -0.0460  0.0366 -0.5893
  911SOL    HW1 2868   2.703   3.567   0.757  1.1323  0.9720 -1.1311
  911SOL    HW2 2869   2.803   3.643   0.842 -1.6536  3.0589  0.4748
  912SOL     OW 2870   0.885   0.294   3.803  0.1275 -0.6052 -0.5951
  912SOL    HW1 2871   0.934   0.317   3.882  0.1746  0.0920 -0.8190
  912SOL    HW2 2872   0.887   0.199   3.800  0.8731 -0.6049 -0.2262
  913SOL     OW 2873   3.272   2.064   2.423  0.6328  0.0984 -0.2092
  913SOL    HW1 2874   3.276   2.112   2.506 -0.9391  0.9743 -0.5960
  913SOL    HW2 2875   3.294   2.129   2.356  0.3673 -0.2044 -0.5952
  914SOL     OW 2876   3.656   1.250   2.625  0.2099 -0.0944  0.0610
  914SOL    HW1 2877   3.656   1.197   2.545 -2.7676 -0.6852  0.3481
  914SOL    HW2 2878   3.599   1.324   2.604  2.8240  2.1579  0.3003
  915SOL     OW 2879   1.984   3.727   2.755 -0.5146 -0.2410  0.4063
  915SOL    HW1 2880   1.998   3.665   2.684 -0.0895 -1.5393  1.5662
  915SOL    HW2 2881   1.984   3.813   2.713 -0.2527 -0.9622 -1.1350
  916SOL     OW 2882   1.317   0.160   1.757 -0.4037 -0.4315  0.2413
  916SOL    HW1 2883   1.247   0.127   1.813  0.1271 -0.5709  0.8439
  916SOL    HW2 2884   1.397   0.120   1.793  0.0360  0.0622 -0.1627
  917SOL     OW 2885   3.307   3.878   3.560 -0.7518  0.0657  0.1901
  917SOL    HW1 2886   3.216   3.910   3.565 -0.1786  1.5644  1.6811
  917SOL    HW2 2887   3.316   3.820   3.635 -0.4557 -0.0707  0.0474
  918SOL     OW 2888   2.176   1.363   3.176  0.3034  0.6396  0.8463
  918SOL    HW1 2889   2.213   1.377   3.090  0.1615 -0.2175  0.6371
  918SOL    HW2 2890   2.227   1.291   3.214 -1.4754 -0.9887  0.3097
  919SOL     OW 2891   1.943   1.291   0.037 -0.5349  0.2397  0.2047
  919SOL    HW1 2892   1.941   1.318  -0.055  1.6072  0.7948  0.2707
  919SOL    HW2 2893   1.890   1.356   0.082 -0.4740  0.7750 -0.4656
  920SOL     OW 2894   0.087   3.956   3.353  0.2186  0.0465 -0.1865
  920SOL    HW1 2895   0.125   3.946   3.265 -0.3899  1.2423 -0.6069
  920SOL    HW2 2896   0.147   4.015   3.398  0.7368 -0.8679  0.3565
  921SOL     OW 2897   2.822   0.267   2.485  0.2711 -0.2362 -0.0647
  921SOL    HW1 2898   2.914   0.277   2.509  0.9033 -1.5629 -1.7146
  921SOL    HW2 2899   2.808   0.172   2.483 -0.3541 -0.1555 -2.3741
  922SOL     OW 2900   1.300   2.351   3.656 -0.2320  0.1276 -0.4972
  922SOL    HW1 2901   1.372   2.401   3.693 -2.3922  1.7390  1.8930
  922SOL    HW2 2902   1.244   2.418   3.615 -1.0216 -0.8836 -1.1246
  923SOL     OW 2903   0.448   2.886   2.262  0.4657  0.5781  0.5354
  923SOL    HW1 2904   0.417   2.826   2.194  0.3412 -0.4965  1.5219
  923SOL    HW2 2905   0.376   2.890   2.325  0.6611  1.4010  0.7181
  924SOL     OW 2906   0.761   2.461   2.899 -0.2694 -0.3476 -0.0005
  924SOL    HW1 2907   0.823   2.503   2.958  1.2058 -0.0027 -1.7102
  924SOL    HW2 2908   0.719   2.393   2.952 -0.8320  1.5454  2.1021
  925SOL     OW 2909   0.827   2.684   0.882  0.1854  0.5975  0.2896
  925SOL    HW1 2910   0.776   2.699   0.962 -1.1426  0.2476 -0.4524
  925SOL    HW2 2911   0.810   2.761   0.829  1.1103  0.8530  0.3551
  926SOL     OW 2912   3.268   0.656   2.018 -0.0610 -0.3966  0.2163
  926SOL    HW1 2913   3.241   0.679   1.929 -1.5947  1.8479  1.1601
  926SOL    HW2 2914   3.187   0.657   2.068  1.0343  0.6088  2.0628
  927SOL     OW 2915   2.486   3.396   2.388  0.3266 -0.9230 -0.1665
  927SOL    HW1 2916   2.470   3.435   2.474 -0.4394  0.1980 -0.7923
  927SOL    HW2 2917   2.422   3.326   2.380 -0.1478 -0.4912 -0.1529
  928SOL     OW 2918   2.792   3.285   3.902 -0.3216  0.4887  0.1085
  928SOL    HW1 2919   2.729   3.356   3.903 -1.5793 -0.5588 -1.1273
  928SOL    HW2 2920   2.835   3.291   3.817  0.0193  0.1451  0.2510
  929SOL     OW 2921   0.410   0.554   0.284 -0.5000  0.0067 -0.5093
  929SOL    HW1 2922   0.500   0.526   0.303 -0.0817  0.9726 -0.9875
  929SOL    HW2 2923   0.408   0.564   0.189 -2.1693 -3.4351 -0.9959
  930SOL     OW 2924   0.726   0.456   3.942 -0.0646 -0.1597 -0.4050
  930SOL    HW1 2925   0.759   0.414   3.863 -0.7628 -1.8690  0.1746
  930SOL    HW2 2926   0.735   0.550   3.925  2.2888 -0.5039 -1.4399
  931SOL     OW 2927   0.525   1.031   3.013  0.2000 -0.1839 -0.0881
  931SOL    HW1 2928   0.540   0.937   3.022  1.2007  0.0690  1.1595
  931SOL    HW2 2929   0.453   1.050   3.073  0.4384 -0.0631  0.1663
  932SOL     OW 2930   2.877   3.400   1.904  0.4750  0.0908  0.4398
  932SOL    HW1 2931   2.847   3.331   1.963  2.0165  0.2790  1.5059
  932SOL    HW2 2932   2.813   3.471   1.917 -1.5529 -1.3304 -1.2346
  933SOL     OW 2933   2.286   1.497   2.935 -0.0680  0.1702 -0.0528
  933SOL    HW1 2934   2.294   1.554   3.012 -1.5496  0.4334 -0.0769
  933SOL    HW2 2935   2.203   1.522   2.895  0.3364 -0.4672 -1.3427
  934SOL     OW 2936   3.301   2.381   0.436  0.1094  0.2572  0.0821
  934SOL    HW1 2937   3.359   2.422   0.373  0.2573  0.4037  0.3117
  934SOL    HW2 2938   3.344   2.298   0.460  0.2759  0.4139  0.3304
  935SOL     OW 2939   2.722   0.373   1.341  0.0811  0.1370 -0.1574
  935SOL    HW1 2940   2.761   0.292   1.307 -0.1790  0.4970 -1.3672
  935SOL    HW2 2941   2.657   0.398   1.274 -0.2096  1.0635  0.4538
  936SOL     OW 2942   2.514   0.707   0.896 -0.2643 -1.2492 -0.3140
  936SOL    HW1 2943   2.469   0.753   0.966  0.1042 -0.9778 -0.2531
  936SOL    HW2 2944   2.588   0.663   0.939 -0.0313 -1.0747 -0.5293
  937SOL     OW 2945   0.778   0.335   2.099  0.1350  0.4168 -0.4589
  937SOL    HW1 2946   0.842   0.397   2.063  1.3738  0.1587  1.1885
  937SOL    HW2 2947   0.739   0.382   2.173  2.2255 -1.2227  1.8288
  938SOL     OW 2948   3.515   3.697   2.165 -0.8780  0.2284  0.0782
  938SOL    HW1 2949   3.487   3.659   2.082 -1.0652 -0.6481  0.5250
  938SOL    HW2 2950   3.434   3.723   2.208 -0.8484 -0.1001  0.3426
  939SOL     OW 2951   2.019   1.829   2.849  0.4121 -0.3982  0.1178
  939SOL    HW1 2952   1.953   1.883   2.894 -0.2691 -1.1288  0.0248
  939SOL    HW2 2953   2.094   1.827   2.909  0.6712  1.1127 -0.1300
  940SOL     OW 2954   1.191   0.101   0.048 -0.5752 -0.3043 -0.2560
  940SOL    HW1 2955   1.228   0.040   0.111 -0.0592 -1.8206 -1.9472
  940SOL    HW2 2956   1.109   0.060   0.020 -1.0473  0.5862 -0.2291
  941SOL     OW 2957   2.286   1.003   0.741 -0.0305 -0.4946 -0.0557
  941SOL    HW1 2958   2.253   0.982   0.653  2.8210 -1.1634 -1.0585
  941SOL    HW2 2959   2.283   1.098   0.746  1.6248 -0.2990 -1.7332
  942SOL     OW 2960   2.737   2.757   1.424  0.2927 -0.2655  0.7548
  942SOL    HW1 2961   2.737   2.662   1.421 -0.4779 -0.2581 -1.9051
  942SOL    HW2 2962   2.795   2.784   1.353  0.1377  1.2647  1.1670
  943SOL     OW 2963   0.030   3.405   0.832  0.4613 -0.2425 -0.2225
  943SOL    HW1 2964  -0.001   3.387   0.743  1.1454 -1.7428 -0.1794
  943SOL    HW2 2965  -0.019   3.482   0.859 -2.5281 -1.9069 -0.5130
  944SOL     OW 2966   2.340   2.496   2.002  0.2253 -0.9247  0.0856
  944SOL    HW1 2967   2.429   2.467   2.023  0.5459  0.2330  0.3919
  944SOL    HW2 2968   2.350   2.548   1.922  0.3624  1.8401  1.7787
  945SOL     OW 2969   2.237   3.763   2.111  0.3514  0.4572 -0.3467
  945SOL    HW1 2970   2.242   3.723   2.198  0.3206 -1.1594 -1.0443
  945SOL    HW2 2971   2.160   3.819   2.114 -0.3414 -0.5021  0.3155
  946SOL     OW 2972   1.490   3.065   1.018  0.4864 -0.4633  0.0133
  946SOL    HW1 2973   1.583   3.047   1.029  0.2056 -2.1287  0.0413
  946SOL    HW2 2974   1.456   3.069   1.107  0.3524 -1.0827  0.0003
  947SOL     OW 2975   3.884   2.138   2.362 -0.3614 -0.1264 -0.5002
  947SOL    HW1 2976   3.928   2.111   2.281  0.1184 -0.5461 -0.1096
  947SOL    HW2 2977   3.795   2.104   2.353 -0.4056  0.0974 -0.9797
  948SOL     OW 2978   3.718   3.410   2.527  0.4912 -0.3862  0.6627
  948SOL    HW1 2979   3.717   3.340   2.462 -0.5141 -0.1924  0.4521
  948SOL    HW2 2980   3.685   3.487   2.480 -0.6533 -0.3425  1.5031
  949SOL     OW 2981   0.266   1.660   2.477 -0.4145 -0.4069  0.2173
  949SOL    HW1 2982   0.314   1.586   2.513  0.6769 -1.4934 -3.1111
  949SOL    HW2 2983   0.174   1.636   2.486 -0.0986 -1.7252  0.1476
  950SOL     OW 2984   3.178   1.624   1.296 -0.6011  0.2772  0.0250
  950SOL    HW1 2985   3.242   1.595   1.361 -0.8316  0.2748  0.2501
  950SOL    HW2 2986   3.203   1.577   1.216 -0.3280  0.2684  0.1135
  951SOL     OW 2987   2.679   1.437   2.524  0.4659 -0.0839  0.7116
  951SOL    HW1 2988   2.672   1.352   2.568  0.1483 -0.1539  0.5312
  951SOL    HW2 2989   2.739   1.421   2.452 -0.2118 -0.3679  0.1926
  952SOL     OW 2990   0.728   0.835   0.365  0.4236 -0.0587 -0.2571
  952SOL    HW1 2991   0.676   0.768   0.408 -1.2939  0.2708 -1.6741
  952SOL    HW2 2992   0.717   0.913   0.420 -2.5415  0.6251 -1.6370
  953SOL     OW 2993   3.376   1.482   3.124  0.1873  0.3748 -0.1055
  953SOL    HW1 2994   3.418   1.419   3.066  1.6633  0.6834  0.5700
  953SOL    HW2 2995   3.337   1.428   3.193  4.6244  0.1173  2.5828
  954SOL     OW 2996   0.694   0.729   1.166 -0.1069 -0.2209  0.2657
  954SOL    HW1 2997   0.757   0.688   1.106  0.3117  0.5788  0.1430
  954SOL    HW2 2998   0.726   0.707   1.253 -0.6150 -1.2340  0.2135
  955SOL     OW 2999   2.516   3.782   2.060  0.2101 -0.4728  0.4496
  955SOL    HW1 3000   2.481   3.863   2.024  0.8234 -0.5548 -0.3547
  955SOL    HW2 3001   2.439   3.733   2.088 -0.5421 -1.3988 -2.8179
  956SOL     OW 3002   1.801   2.349   0.444 -0.1081  0.0561  0.5510
  956SOL    HW1 3003   1.848   2.433   0.442 -0.1717  0.0921 -0.9151
  956SOL    HW2 3004   1.711   2.372   0.423 -1.0973  0.0965  4.1350
  957SOL     OW 3005   3.210   2.617   0.600  0.2381 -0.4410  0.0727
  957SOL    HW1 3006   3.184   2.668   0.524 -0.2734 -1.3812 -0.4040
  957SOL    HW2 3007   3.261   2.544   0.564  2.7821  0.8279  0.9065
  958SOL     OW 3008   0.969   3.738   0.319 -0.3439 -0.0005 -0.3609
  958SOL    HW1 3009   0.923   3.745   0.236  0.2036 -0.3183 -0.6955
  958SOL    HW2 3010   1.062   3.734   0.296 -0.1003  1.0952  0.3312
  959SOL     OW 3011   0.338   1.395   2.291 -0.3874 -0.5205 -0.3591
  959SOL    HW1 3012   0.384   1.349   2.220 -0.7915  0.4307 -1.2638
  959SOL    HW2 3013   0.245   1.388   2.267 -0.5639 -0.6088  0.3387
  960SOL     OW 3014   0.924   2.211   3.480 -0.3062  0.1883 -0.2814
  960SOL    HW1 3015   0.874   2.287   3.509 -0.2821  0.2763 -0.4648
  960SOL    HW2 3016   0.932   2.222   3.385  1.4679  1.0468 -0.0842
  961SOL     OW 3017   0.442   2.451   1.011 -0.3731  0.4333 -0.4132
  961SOL    HW1 3018   0.395   2.534   1.021 -0.2062  0.7089 -1.8082
  961SOL    HW2 3019   0.507   2.468   0.943 -2.5112 -1.7092 -3.2124
  962SOL     OW 3020   3.712   3.693   1.373 -0.0016 -0.3391  0.2631
  962SOL    HW1 3021   3.794   3.721   1.332  0.0799  0.9395  1.2349
  962SOL    HW2 3022   3.738   3.623   1.433  0.6256  0.9178  1.5225
  963SOL     OW 3023   2.679   2.074   3.233  0.6666  0.4804 -0.0782
  963SOL    HW1 3024   2.603   2.132   3.235  1.7077  1.8806  0.7005
  963SOL    HW2 3025   2.741   2.116   3.173  1.8408  0.7705  1.2601
  964SOL     OW 3026   2.471   1.108   2.424 -0.4524  0.2227 -0.1243
  964SOL    HW1 3027   2.510   1.104   2.511 -0.8043  0.5852  0.0530
  964SOL    HW2 3028   2.378   1.125   2.440 -1.1411 -2.7650 -0.4419
  965SOL     OW 3029   1.540   0.850   0.515  0.9710  0.1119  0.1716
  965SOL    HW1 3030   1.449   0.877   0.504  1.0075  0.0752 -0.2238
  965SOL    HW2 3031   1.577   0.915   0.575  0.8845  0.5618 -0.2593
  966SOL     OW 3032   1.894   2.004   1.434 -0.4906 -0.6253 -0.1311
  966SOL    HW1 3033   1.974   1.959   1.460  0.9642  0.8736 -1.7606
  966SOL    HW2 3034   1.834   1.991   1.508  1.1240 -2.0471  1.0061
  967SOL     OW 3035   1.295   2.968   1.607 -0.5798  0.0491  0.7030
  967SOL    HW1 3036   1.242   3.034   1.651  0.4440  0.3878  1.4609
  967SOL    HW2 3037   1.257   2.885   1.635  0.4850  0.2215  2.8905
  968SOL     OW 3038   1.858   3.097   1.119  0.3095 -0.0083  0.3448
  968SOL    HW1 3039   1.873   3.127   1.208  2.4288  2.0128 -0.5995
  968SOL    HW2 3040   1.789   3.031   1.127 -0.8755  1.4196  3.2283
  969SOL     OW 3041   2.020   0.397   0.956  0.1387  0.4156  0.0395
  969SOL    HW1 3042   2.028   0.331   1.024  2.1154 -1.3121 -1.7285
  969SOL    HW2 3043   2.108   0.436   0.951 -0.5742  2.1084 -0.0479
  970SOL     OW 3044   3.836   2.133   1.674 -0.7142 -0.5771 -0.0772
  970SOL    HW1 3045   3.903   2.186   1.718 -1.9527  0.2688  0.8559
  970SOL    HW2 3046   3.855   2.043   1.701  0.5358 -0.4772 -0.5088
  971SOL     OW 3047   0.644   3.562   2.651  0.2208 -0.0063 -0.0560
  971SOL    HW1 3048   0.611   3.565   2.740 -0.3941  0.4316 -0.2926
  971SOL    HW2 3049   0.635   3.651   2.618 -2.3088 -0.6837 -1.5122
  972SOL     OW 3050   2.430   1.960   0.188  0.2588 -0.1996  0.2144
  972SOL    HW1 3051   2.443   1.935   0.279  0.9963 -0.4989  0.0270
  972SOL    HW2 3052   2.337   1.983   0.183  0.5734  1.6024  1.4727
  973SOL     OW 3053   1.537   2.495   1.786 -0.3618 -0.0426  0.3662
  973SOL    HW1 3054   1.526   2.400   1.774 -0.3355 -0.0725  0.5670
  973SOL    HW2 3055   1.489   2.534   1.714 -1.4262 -0.1723  0.9911
  974SOL     OW 3056   3.930   0.649   3.159  0.1333 -0.5665 -0.4116
  974SOL    HW1 3057   4.003   0.694   3.117  0.0844  0.0814  0.1881
  974SOL    HW2 3058   3.961   0.559   3.173  1.2193 -0.0124  0.8321
  975SOL     OW 3059   3.408   3.716   2.521 -0.1627 -0.0912 -0.0989
  975SOL    HW1 3060   3.337   3.772   2.490 -0.1832  0.2181  0.4858
  975SOL    HW2 3061   3.427   3.748   2.609  0.0784 -0.7654  0.1036
  976SOL     OW 3062   2.260   2.175   1.062 -0.0754  0.2500 -0.0158
  976SOL    HW1 3063   2.302   2.221   0.989 -0.5323  1.4594  0.4698
  976SOL    HW2 3064   2.166   2.187   1.048 -0.3340 -2.1773 -0.9257
  977SOL     OW 3065   1.426   0.173   1.111  0.0914 -0.6592 -0.1759
  977SOL    HW1 3066   1.360   0.129   1.166  0.0569 -1.4940 -0.8648
  977SOL    HW2 3067   1.403   0.148   1.022  0.5688  0.1154 -0.5259
  978SOL     OW 3068   1.346   0.125   0.500 -0.1842 -0.0706  0.3170
  978SOL    HW1 3069   1.273   0.160   0.549  0.3863  0.9541  0.4649
  978SOL    HW2 3070   1.358   0.186   0.427  1.1142  0.3480  0.8378
  979SOL     OW 3071   3.590   0.673   2.095 -0.4630 -0.4406 -0.3765
  979SOL    HW1 3072   3.533   0.603   2.064  0.2053 -0.6070 -1.2513
  979SOL    HW2 3073   3.597   0.657   2.189  0.1297 -1.9051 -0.6429
  980SOL     OW 3074   3.932   0.390   3.281 -0.0819  0.2609  0.0438
  980SOL    HW1 3075   3.837   0.387   3.280 -0.0643 -0.5515 -0.0313
  980SOL    HW2 3076   3.959   0.334   3.208  0.4566 -1.2278  1.2961
  981SOL     OW 3077   1.119   2.023   3.777 -0.1868  0.1130 -0.5838
  981SOL    HW1 3078   1.097   2.108   3.814 -0.7588 -0.9115  1.5869
  981SOL    HW2 3079   1.039   1.994   3.734 -1.4233 -0.9912  2.1646
  982SOL     OW 3080   3.730   3.070   2.063  0.3022 -0.3377 -0.2877
  982SOL    HW1 3081   3.703   3.020   1.985  0.7696  0.1341 -0.7586
  982SOL    HW2 3082   3.813   3.031   2.088  0.6921  0.2209 -0.6839
  983SOL     OW 3083   1.102   1.968   3.327 -0.5062 -0.3726  0.1644
  983SOL    HW1 3084   1.068   2.055   3.306  0.7117 -0.1795 -1.2026
  983SOL    HW2 3085   1.171   1.983   3.391 -1.7310 -0.5904  1.5960
  984SOL     OW 3086   2.515   1.777   3.585  0.0594  0.0282  0.0991
  984SOL    HW1 3087   2.610   1.771   3.578 -0.0460  0.0612 -2.2527
  984SOL    HW2 3088   2.485   1.687   3.588  0.0334 -0.2478 -3.7022
  985SOL     OW 3089   0.252   2.345   0.485 -0.4927 -0.1707 -0.4796
  985SOL    HW1 3090   0.341   2.342   0.450  0.5857  2.2071  1.7344
  985SOL    HW2 3091   0.259   2.301   0.570  0.1644  4.6964  2.3467
  986SOL     OW 3092   2.653   1.640   3.193  0.3250 -0.4115 -0.0534
  986SOL    HW1 3093   2.610   1.704   3.250 -0.8017 -1.8628  0.7928
  986SOL    HW2 3094   2.695   1.693   3.125  1.1670  1.3288  1.7435
  987SOL     OW 3095   1.352   0.312   0.189  0.1907 -0.0397  0.2869
  987SOL    HW1 3096   1.433   0.303   0.138 -1.2677  1.4071 -2.4657
  987SOL    HW2 3097   1.306   0.229   0.177  0.7835 -0.4938  1.0508
  988SOL     OW 3098   3.923   0.210   3.624  0.2750  0.4201 -0.3878
  988SOL    HW1 3099   3.967   0.154   3.688 -1.4328 -0.9277 -0.3251
  988SOL    HW2 3100   3.868   0.268   3.677  0.3860  0.6881 -0.5622
  989SOL     OW 3101   3.955   0.618   1.014  0.0935  0.4029  0.1232
  989SOL    HW1 3102   4.043   0.651   1.030  0.3179  0.6404 -1.4353
  989SOL    HW2 3103   3.919   0.678   0.948 -0.3714 -1.0291 -0.9889
  990SOL     OW 3104   1.953   0.470   2.910 -0.1371 -0.6422 -0.1883
  990SOL    HW1 3105   1.919   0.559   2.896  0.3119 -0.5340 -0.6711
  990SOL    HW2 3106   1.875   0.415   2.919 -0.4290 -0.2694 -0.3784
  991SOL     OW 3107   0.406   0.156   2.589 -0.5123  0.4400 -0.0568
  991SOL    HW1 3108   0.452   0.072   2.581 -0.5756  0.3846  0.1581
  991SOL    HW2 3109   0.332   0.147   2.529 -0.3606  0.4505 -0.2489
  992SOL     OW 3110   1.823   0.742   2.532 -0.8962  0.2223 -0.6684
  992SOL    HW1 3111   1.881   0.689   2.586  2.2277  3.7626 -0.1055
  992SOL    HW2 3112   1.853   0.728   2.442 -0.6628  0.3869 -0.6162
  993SOL     OW 3113   2.780   3.120   1.397  0.5698  0.0015  0.2590
  993SOL    HW1 3114   2.866   3.078   1.398  1.2109  1.1536 -1.2779
  993SOL    HW2 3115   2.778   3.168   1.314 -0.3353  2.5143  1.6208
  994SOL     OW 3116   0.254   3.192   2.199  0.1603 -0.1231 -0.1065
  994SOL    HW1 3117   0.319   3.215   2.133  0.1654 -2.1692 -0.8722
  994SOL    HW2 3118   0.178   3.246   2.178  0.8014  0.6129 -0.6068
  995SOL     OW 3119   3.184   2.959   3.860 -0.0152 -0.6501 -0.3205
  995SOL    HW1 3120   3.217   3.013   3.932  1.4291  0.2348 -1.6022
  995SOL    HW2 3121   3.101   2.924   3.893  0.0049  0.7119  1.3076
  996SOL     OW 3122   1.530   0.733   3.492  0.5600 -0.0544  0.2656
  996SOL    HW1 3123   1.488   0.811   3.455  0.0680 -0.0680  0.7779
  996SOL    HW2 3124   1.622   0.740   3.466  0.3824  0.3565 -0.2497
  997SOL     OW 3125   0.902   3.761   2.656 -0.1203 -0.0271  0.6223
  997SOL    HW1 3126   0.946   3.686   2.697 -0.1668 -0.9690 -0.9586
  997SOL    HW2 3127   0.973   3.820   2.632  0.1615 -0.6784 -0.2297
  998SOL     OW 3128   1.736   2.451   2.300 -0.1963  0.2579 -0.3296
  998SOL    HW1 3129   1.749   2.511   2.374  0.3138  1.6117 -1.4766
  998SOL    HW2 3130   1.822   2.412   2.286 -0.2775  0.0515 -0.2534
  999SOL     OW 3131   1.978   1.690   1.829 -0.2506  0.1697 -0.4239
  999SOL    HW1 3132   1.944   1.601   1.819  1.0825 -0.4505  0.2253
  999SOL    HW2 3133   2.055   1.680   1.886 -0.2245  1.7780 -0.1179
 1000SOL     OW 3134   3.578   0.686   2.617 -0.3024 -0.4038  1.1553
 1000SOL    HW1 3135   3.511   0.632   2.659 -0.9890  0.7584  1.6466
 1000SOL    HW2 3136   3.541   0.775   2.620  1.5827  0.4029  2.1243
 1001SOL     OW 3137   2.356   2.138   2.781 -0.0753 -0.3102  0.1712
 1001SOL    HW1 3138   2.287   2.099   2.834 -1.3868  0.5824 -0.8140
 1001SOL    HW2 3139   2.335   2.112   2.691  0.9467 -0.1351 -0.1309
 1002SOL     OW 3140   2.656   0.968   2.840 -0.6879  0.1566 -0.1354
 1002SOL    HW1 3141   2.737   0.998   2.881 -0.3062  0.1232 -0.8599
 1002SOL    HW2 3142   2.682   0.938   2.753 -1.4938  0.2606 -0.4230
 1003SOL     OW 3143   2.966   0.670   1.647 -0.1642  0.2198 -0.5598
 1003SOL    HW1 3144   2.988   0.758   1.677 -0.2494  1.0693 -2.8269
 1003SOL    HW2 3145   2.883   0.650   1.690  1.0600  0.1474  1.9658
 1004SOL     OW 3146   0.330   1.657   3.775  0.2887  0.0840  0.3487
 1004SOL    HW1 3147   0.245   1.620   3.799  1.0879 -1.0767  1.5471
 1004SOL    HW2 3148   0.317   1.694   3.688 -1.7167  0.8889  0.9492
 1005SOL     OW 3149   0.137   3.448   3.869 -0.5773  0.2547  0.1920
 1005SOL    HW1 3150   0.088   3.491   3.939 -1.5019  0.9990 -0.8828
 1005SOL    HW2 3151   0.132   3.354   3.890  0.2016  0.5281  1.7592
 1006SOL     OW 3152   1.090   3.797   2.326  0.0534  0.3820  0.0964
 1006SOL    HW1 3153   1.066   3.889   2.324  1.7615  0.9601  2.3824
 1006SOL    HW2 3154   1.162   3.790   2.263 -0.3583  0.4966 -0.3927
 1007SOL     OW 3155   1.906   3.122   2.845 -0.7231 -0.4467  0.4159
 1007SOL    HW1 3156   1.847   3.195   2.824  0.8896  0.3895 -1.5973
 1007SOL    HW2 3157   1.971   3.160   2.904 -0.1221 -0.3420 -0.2988
 1008SOL     OW 3158   2.829   0.369   2.207 -0.1519  0.6985 -0.2265
 1008SOL    HW1 3159   2.895   0.411   2.152  0.3810 -0.7926 -0.7675
 1008SOL    HW2 3160   2.870   0.363   2.293  0.6092 -0.6222 -0.6690
 1009SOL     OW 3161   1.362   0.518   3.546 -0.4465  0.2788 -0.4407
 1009SOL    HW1 3162   1.413   0.592   3.513  0.9445 -1.3126 -2.0356
 1009SOL    HW2 3163   1.377   0.519   3.641  2.2131  0.1732 -0.7795
 1010SOL     OW 3164   0.443   1.871   2.616  0.5124  0.7833  0.6194
 1010SOL    HW1 3165   0.538   1.867   2.606  0.9284 -0.8766  3.9028
 1010SOL    HW2 3166   0.409   1.817   2.545  2.1541 -0.2382  0.5540
 1011SOL     OW 3167   0.401   0.327   0.692 -0.1946  0.0126  0.6599
 1011SOL    HW1 3168   0.383   0.236   0.713 -1.4825  0.0503 -0.1334
 1011SOL    HW2 3169   0.469   0.323   0.624 -2.9005 -0.6453 -2.2556
 1012SOL     OW 3170   3.763   1.971   0.083  0.5989 -0.4223 -0.3206
 1012SOL    HW1 3171   3.802   1.926   0.008  1.7877 -0.1413  0.1030
 1012SOL    HW2 3172   3.670   1.950   0.078  0.4877  0.3183 -2.3874
 1013SOL     OW 3173   1.272   3.416   0.682 -0.1305  0.1696 -0.0242
 1013SOL    HW1 3174   1.178   3.434   0.682 -0.1763  0.0324  1.5689
 1013SOL    HW2 3175   1.305   3.463   0.758  1.1090  0.2460 -0.5901
 1014SOL     OW 3176   3.850   1.495   2.915  0.4904  0.0731  0.3162
 1014SOL    HW1 3177   3.795   1.567   2.945 -0.0934 -0.0379 -0.4796
 1014SOL    HW2 3178   3.927   1.538   2.878  1.4338  0.2106  2.2813
 1015SOL     OW 3179   3.072   1.135   3.473 -0.4073 -0.3721  0.0034
 1015SOL    HW1 3180   3.082   1.228   3.452  1.3515 -0.6772 -0.7030
 1015SOL    HW2 3181   3.157   1.110   3.509 -0.5405 -1.9100 -0.6785
 1016SOL     OW 3182   2.122   0.150   1.764 -0.1341  0.0706 -0.6177
 1016SOL    HW1 3183   2.030   0.176   1.767  0.0880  0.8382  1.4140
 1016SOL    HW2 3184   2.120   0.055   1.768 -0.8445  0.0774 -0.6043
 1017SOL     OW 3185   2.922   3.153   0.141 -0.0073 -0.4931  0.2640
 1017SOL    HW1 3186   2.939   3.066   0.107 -0.1668 -0.9229  1.2440
 1017SOL    HW2 3187   2.866   3.195   0.075  1.5748 -0.4441 -1.1170
 1018SOL     OW 3188   1.012   3.864   3.913 -0.0346  0.1739 -0.0535
 1018SOL    HW1 3189   0.987   3.868   3.820  0.6769 -2.9431 -0.4838
 1018SOL    HW2 3190   0.929   3.854   3.960 -0.2491 -0.9782 -0.6407
 1019SOL     OW 3191   3.662   0.689   3.031 -0.3644  0.7110  0.2820
 1019SOL    HW1 3192   3.713   0.627   2.979 -1.3681 -0.9910  1.2464
 1019SOL    HW2 3193   3.723   0.721   3.097  0.3252  1.2500 -0.5928
 1020SOL     OW 3194   1.895   2.987   1.995  0.5785 -0.1922  0.0388
 1020SOL    HW1 3195   1.815   3.038   1.986  0.7918  0.0197 -0.7472
 1020SOL    HW2 3196   1.873   2.918   2.058 -0.3856 -0.4717 -0.5835
 1021SOL     OW 3197   3.597   1.759   3.468 -0.0426 -0.6992  0.2100
 1021SOL    HW1 3198   3.548   1.758   3.386 -0.4036  1.7953  0.2922
 1021SOL    HW2 3199   3.569   1.680   3.515 -0.8090 -1.4867 -1.4993
 1022SOL     OW 3200   1.004   3.757   3.042  0.6405  0.0438  0.5574
 1022SOL    HW1 3201   0.998   3.717   2.955 -0.3088  0.4191  0.4295
 1022SOL    HW2 3202   0.921   3.805   3.052  1.2437  0.9998  1.1776
 1023SOL     OW 3203   3.667   1.266   1.558 -0.1124 -0.2070  0.4721
 1023SOL    HW1 3204   3.653   1.360   1.571 -0.6383 -0.4374  1.6562
 1023SOL    HW2 3205   3.580   1.229   1.546  0.0964 -0.5491 -0.0893
 1024SOL     OW 3206   1.499   1.666   2.704  0.1823 -0.2236 -0.1623
 1024SOL    HW1 3207   1.531   1.584   2.740 -1.3679  0.1905  2.3928
 1024SOL    HW2 3208   1.578   1.713   2.678  1.4251 -0.8816  2.1447
 1025SOL     OW 3209   2.435   3.342   0.472 -0.1243  0.2588  0.1228
 1025SOL    HW1 3210   2.351   3.339   0.518 -1.3411  1.2924 -1.9020
 1025SOL    HW2 3211   2.451   3.251   0.447 -2.0382  0.3315 -1.7173
 1026SOL     OW 3212   0.368   3.437   0.027  0.3454 -0.0390  0.1946
 1026SOL    HW1 3213   0.407   3.350   0.021  1.6232  0.5176  0.0467
 1026SOL    HW2 3214   0.291   3.434  -0.030 -0.9285 -1.7200  1.8874
 1027SOL     OW 3215   0.953   2.108   1.991 -0.0743  0.1940 -0.4878
 1027SOL    HW1 3216   0.981   2.113   2.082 -2.4209 -1.8540  0.4744
 1027SOL    HW2 3217   0.994   2.028   1.958  1.2067  1.2077 -1.4797
 1028SOL     OW 3218   0.874   2.837   1.759  0.5597  0.5984 -0.4882
 1028SOL    HW1 3219   0.840   2.882   1.682  0.2110  0.8754 -0.1711
 1028SOL    HW2 3220   0.800   2.788   1.794  0.5690  0.9145 -0.0078
 1029SOL     OW 3221   2.707   1.306   0.856  0.1998 -0.1451  0.6430
 1029SOL    HW1 3222   2.660   1.331   0.936 -1.1537 -0.1641 -0.1257
 1029SOL    HW2 3223   2.728   1.389   0.813 -1.5893 -0.1681 -0.3729
 1030SOL     OW 3224   3.863   0.953   2.515 -0.6766  0.1211  0.6058
 1030SOL    HW1 3225   3.902   0.960   2.428  0.1392  0.5355  0.9929
 1030SOL    HW2 3226   3.935   0.927   2.572 -1.7588 -3.1213  0.7111
 1031SOL     OW 3227   0.633   0.077   3.930 -0.3192 -0.3409 -0.5996
 1031SOL    HW1 3228   0.616   0.026   4.010 -1.6171  0.4942 -0.3027
 1031SOL    HW2 3229   0.631   0.168   3.959  1.4375 -0.0718 -1.2215
 1032SOL     OW 3230   3.398   2.245   3.770  0.9173 -0.1818  0.6107
 1032SOL    HW1 3231   3.389   2.296   3.689  0.9950  1.6643  1.7016
 1032SOL    HW2 3232   3.311   2.208   3.785  0.5394  0.5866  0.3866
 1033SOL     OW 3233   1.548   0.380   2.023  0.2813  0.0850 -0.4684
 1033SOL    HW1 3234   1.567   0.473   2.011 -1.2503  0.4736 -0.1659
 1033SOL    HW2 3235   1.454   0.378   2.045  0.9367 -1.2163  2.9310
 1034SOL     OW 3236   2.029   3.338   2.070  0.4557 -0.6431  0.7938
 1034SOL    HW1 3237   2.116   3.353   2.107  0.3045 -2.9963  2.3091
 1034SOL    HW2 3238   2.041   3.264   2.009 -0.5345 -1.3128  1.3820
 1035SOL     OW 3239   2.679   3.542   2.240 -0.5464  0.2854  0.1675
 1035SOL    HW1 3240   2.623   3.466   2.256  0.2807 -0.2157  0.7264
 1035SOL    HW2 3241   2.626   3.617   2.269 -1.1590 -0.1137  0.0992
 1036SOL     OW 3242   0.841   1.593   2.021 -0.2326 -0.1226  0.5479
 1036SOL    HW1 3243   0.882   1.536   2.086  1.0102  1.1982  0.9719
 1036SOL    HW2 3244   0.761   1.625   2.064  0.2698  0.2710  1.2058
 1037SOL     OW 3245   0.038   3.799   0.808 -0.4573 -0.3000 -0.2982
 1037SOL    HW1 3246   0.008   3.887   0.832  1.1052 -0.1784  1.4703
 1037SOL    HW2 3247   0.052   3.755   0.892  0.8641 -1.4875 -1.0870
 1038SOL     OW 3248   3.339   0.848   0.935  0.0759  0.5368  0.4100
 1038SOL    HW1 3249   3.325   0.836   0.841 -0.3100  0.9016  0.4185
 1038SOL    HW2 3250   3.415   0.907   0.940 -0.6575  1.5193  0.2987
 1039SOL     OW 3251   0.079   2.844   3.204  0.2350  0.3036  0.1890
 1039SOL    HW1 3252   0.034   2.783   3.263  0.6217  1.9006  2.2403
 1039SOL    HW2 3253   0.096   2.792   3.125 -2.6268 -1.1813  0.4217
 1040SOL     OW 3254   2.319   0.413   2.143  0.4383 -0.0927  0.0616
 1040SOL    HW1 3255   2.407   0.450   2.145  0.5793 -0.3865  2.5523
 1040SOL    HW2 3256   2.332   0.318   2.145  0.0520 -0.1658 -0.5962
 1041SOL     OW 3257   2.008   1.460   2.239  0.4185  0.3252 -0.5582
 1041SOL    HW1 3258   2.015   1.368   2.215  0.2652  0.2029 -0.1476
 1041SOL    HW2 3259   1.934   1.493   2.188 -1.3540 -0.4801  1.3333
 1042SOL     OW 3260   0.421   3.242   3.550 -0.6268  0.5191 -0.0827
 1042SOL    HW1 3261   0.343   3.186   3.552  0.5972 -1.3161  1.7617
 1042SOL    HW2 3262   0.473   3.207   3.478 -1.2688  1.4420 -1.0149
 1043SOL     OW 3263   0.104   0.045   3.899  0.2776  0.3892  0.5476
 1043SOL    HW1 3264   0.165  -0.006   3.846  0.7743  0.2883  1.2095
 1043SOL    HW2 3265   0.150   0.127   3.917 -1.0914  1.7989 -1.8201
 1044SOL     OW 3266   1.129   3.445   2.551 -0.3229  0.5721 -0.0106
 1044SOL    HW1 3267   1.128   3.356   2.515  1.5044  0.0938  0.9846
 1044SOL    HW2 3268   1.171   3.436   2.636 -4.3773  1.6513  2.3787
 1045SOL     OW 3269   0.333   1.162   3.187 -0.5179  0.0687  0.2779
 1045SOL    HW1 3270   0.257   1.124   3.232 -1.0864  1.2850  0.3958
 1045SOL    HW2 3271   0.297   1.236   3.138  0.6577  0.9778  0.7220
 1046SOL     OW 3272   0.136   2.720   0.952  0.0514 -0.0211 -0.4154
 1046SOL    HW1 3273   0.180   2.797   0.916  0.5230 -0.2961 -0.4292
 1046SOL    HW2 3274   0.043   2.738   0.938  0.0509  1.2092  0.8861
 1047SOL     OW 3275   1.012   0.710   1.038 -0.1201 -0.0461  0.8351
 1047SOL    HW1 3276   0.971   0.772   0.978 -1.8595  0.2981  2.2641
 1047SOL    HW2 3277   1.071   0.658   0.984 -1.1286  0.6718 -1.0207
 1048SOL     OW 3278   0.907   2.925   3.045  0.0361 -0.3482  0.1286
 1048SOL    HW1 3279   0.876   2.893   2.961 -0.1402  0.1996 -0.0195
 1048SOL    HW2 3280   0.951   3.008   3.025  0.1805 -0.3177  0.5467
 1049SOL     OW 3281   0.336   3.503   0.281  0.9591  0.0226 -0.4335
 1049SOL    HW1 3282   0.308   3.595   0.276  1.6971  0.2936  0.2224
 1049SOL    HW2 3283   0.358   3.480   0.191  3.3115  1.3353 -0.2927
 1050SOL     OW 3284   1.246   1.085   3.418 -0.4574 -0.2913  0.0444
 1050SOL    HW1 3285   1.166   1.034   3.428 -0.3615 -0.0918  2.2938
 1050SOL    HW2 3286   1.303   1.056   3.489  0.5543  1.2174 -0.0860
 1051SOL     OW 3287   3.892   1.987   2.837  0.6422  0.1084  0.7104
 1051SOL    HW1 3288   3.859   2.059   2.784  0.4596  0.3764  1.1868
 1051SOL    HW2 3289   3.972   1.959   2.791 -0.2055 -0.5298 -0.4289
 1052SOL     OW 3290   1.059   2.663   2.575 -0.3486 -0.3731  0.1156
 1052SOL    HW1 3291   1.060   2.582   2.524  0.9256  0.6513 -1.5510
 1052SOL    HW2 3292   1.134   2.655   2.634  0.1447 -0.1424 -0.4791
 1053SOL     OW 3293   1.300   2.175   1.361 -0.2071 -0.0905 -0.2347
 1053SOL    HW1 3294   1.313   2.150   1.452  1.3578  2.0340  0.1993
 1053SOL    HW2 3295   1.334   2.101   1.310 -2.1367 -1.7996  0.8327
 1054SOL     OW 3296   1.024   0.576   3.681 -0.0890  0.2638 -0.7141
 1054SOL    HW1 3297   0.953   0.594   3.742  0.3262 -0.4112 -0.0191
 1054SOL    HW2 3298   1.076   0.509   3.724  1.3600  1.2250 -0.8920
 1055SOL     OW 3299   3.317   2.239   3.130 -0.5084 -0.6279 -0.1015
 1055SOL    HW1 3300   3.233   2.221   3.089 -0.2509 -1.1618 -0.3988
 1055SOL    HW2 3301   3.314   2.192   3.213 -0.4463 -0.7700 -0.1794
 1056SOL     OW 3302   2.195   2.778   0.322 -0.3123 -0.5585  0.3728
 1056SOL    HW1 3303   2.198   2.683   0.316  0.0751 -0.6304  1.4232
 1056SOL    HW2 3304   2.104   2.798   0.343 -0.3175 -0.7219  0.5049
 1057SOL     OW 3305   0.256   3.352   2.769  0.1438  0.4228 -0.4023
 1057SOL    HW1 3306   0.332   3.332   2.714 -0.8567 -1.0957 -1.3125
 1057SOL    HW2 3307   0.241   3.445   2.756 -0.1418  0.0933 -2.8590
 1058SOL     OW 3308   2.613   0.241   1.734  0.5654  0.5186 -0.2108
 1058SOL    HW1 3309   2.600   0.169   1.673 -2.7347  2.1230 -1.6634
 1058SOL    HW2 3310   2.571   0.213   1.815  0.3510  0.3518 -0.3793
 1059SOL     OW 3311   3.094   1.136   0.953  0.0152  1.0867 -0.7406
 1059SOL    HW1 3312   3.113   1.114   1.045 -0.2574 -2.2879 -1.3702
 1059SOL    HW2 3313   3.180   1.153   0.915  0.3191  0.6922 -0.2544
 1060SOL     OW 3314   3.819   2.546   2.167 -0.4127 -0.1632 -0.2505
 1060SOL    HW1 3315   3.797   2.500   2.086 -0.4259 -0.8367  0.1254
 1060SOL    HW2 3316   3.906   2.513   2.190 -0.6487 -0.4182  0.3087
 1061SOL     OW 3317   3.480   1.437   2.471 -0.3081 -0.2049  0.2847
 1061SOL    HW1 3318   3.525   1.521   2.462 -1.0288  0.1548 -0.1456
 1061SOL    HW2 3319   3.426   1.447   2.549 -2.0290  0.5562 -0.9300
 1062SOL     OW 3320   1.384   1.320   2.535  0.0687 -0.0487 -0.6077
 1062SOL    HW1 3321   1.309   1.356   2.582  1.4413  2.5446 -0.2184
 1062SOL    HW2 3322   1.448   1.300   2.603  0.5510 -0.1338 -1.0785
 1063SOL     OW 3323   3.470   0.505   1.309 -0.6502  0.7473 -0.0404
 1063SOL    HW1 3324   3.438   0.449   1.238  1.3149 -1.3346  0.6121
 1063SOL    HW2 3325   3.396   0.563   1.329 -2.1550 -0.3940 -1.9851
 1064SOL     OW 3326   2.227   2.787   3.626  0.2853 -0.1344  0.4112
 1064SOL    HW1 3327   2.209   2.854   3.559  0.5009  0.3591  0.8398
 1064SOL    HW2 3328   2.180   2.817   3.703  0.0135 -0.7194  0.4764
 1065SOL     OW 3329   3.909   3.510   0.108  0.3921  0.2070 -0.1587
 1065SOL    HW1 3330   3.894   3.575   0.177 -2.0640  0.6217 -0.9753
 1065SOL    HW2 3331   3.824   3.503   0.063  0.4863 -3.6664 -0.0369
 1066SOL     OW 3332   1.995   2.318   2.229  0.3083 -0.0817  0.7889
 1066SOL    HW1 3333   2.063   2.295   2.292  1.4764 -0.5382 -0.5783
 1066SOL    HW2 3334   2.039   2.375   2.166 -0.5343 -0.4548 -0.1724
 1067SOL     OW 3335   1.173   3.242   3.457  0.4936 -0.3224 -0.1937
 1067SOL    HW1 3336   1.106   3.174   3.457 -0.5579  0.6644 -1.4448
 1067SOL    HW2 3337   1.139   3.310   3.515  1.3316 -0.6383  0.6992
 1068SOL     OW 3338   0.794   3.922   3.011 -0.6890 -0.2949  0.5334
 1068SOL    HW1 3339   0.737   3.846   3.006 -1.3185  0.1232  1.1849
 1068SOL    HW2 3340   0.745   3.992   2.969  0.2762 -0.4506 -0.9142
 1069SOL     OW 3341   3.145   2.195   2.895  0.2286  0.3777 -1.3230
 1069SOL    HW1 3342   3.120   2.181   2.803 -1.7244 -1.4448 -0.6087
 1069SOL    HW2 3343   3.185   2.112   2.922 -1.2920  0.0286  0.0283
 1070SOL     OW 3344   1.777   3.776   3.380  0.2510 -0.3554  0.1321
 1070SOL    HW1 3345   1.699   3.722   3.370  0.7797 -0.6626 -3.9970
 1070SOL    HW2 3346   1.849   3.714   3.388  0.4091 -0.1414  0.4020
 1071SOL     OW 3347   1.370   1.986   1.154 -0.2574 -0.3378 -0.4380
 1071SOL    HW1 3348   1.433   1.946   1.094 -0.6412  0.8084 -1.6397
 1071SOL    HW2 3349   1.339   1.912   1.208  2.0626 -0.9362  0.2083
 1072SOL     OW 3350   3.663   0.425   2.891 -0.1173  0.0069 -0.2219
 1072SOL    HW1 3351   3.644   0.352   2.951  0.7777  0.2920  0.4195
 1072SOL    HW2 3352   3.758   0.435   2.894 -0.1734  0.8141 -0.7721
 1073SOL     OW 3353   3.284   1.289   3.297 -0.0673 -0.0056 -0.0179
 1073SOL    HW1 3354   3.205   1.236   3.304  0.6633 -1.0473  0.4241
 1073SOL    HW2 3355   3.356   1.231   3.321  0.8047  1.0537  0.0548
 1074SOL     OW 3356   2.217   3.035   0.185  0.0447 -0.1273  0.5169
 1074SOL    HW1 3357   2.196   3.109   0.242  2.0295 -0.3329  1.6111
 1074SOL    HW2 3358   2.221   2.960   0.243 -2.2943 -1.2331 -0.6391
 1075SOL     OW 3359   1.900   0.678   0.320  0.3492  0.0339 -0.1942
 1075SOL    HW1 3360   1.863   0.599   0.282  0.0257  1.0263 -2.0820
 1075SOL    HW2 3361   1.987   0.684   0.283  0.4747  0.4308  0.1535
 1076SOL     OW 3362   1.047   1.681   1.856 -0.3287  0.2813 -0.4438
 1076SOL    HW1 3363   1.086   1.720   1.934  1.2082  1.0602 -1.5635
 1076SOL    HW2 3364   0.958   1.658   1.883  0.8236 -1.5593  2.2146
 1077SOL     OW 3365   1.225   1.718   1.229  0.1353 -0.5318  0.7777
 1077SOL    HW1 3366   1.263   1.647   1.177  2.6246  0.0685  1.6705
 1077SOL    HW2 3367   1.186   1.674   1.305  2.0706 -0.9527  1.5631
 1078SOL     OW 3368   0.114   3.871   0.516 -0.8341 -0.4251 -0.0650
 1078SOL    HW1 3369   0.105   3.859   0.611 -0.5927 -0.6782 -0.0731
 1078SOL    HW2 3370   0.093   3.963   0.502 -0.2264 -0.2238  0.3164
 1079SOL     OW 3371   3.693   3.907   2.126 -0.5271  0.0533  0.0504
 1079SOL    HW1 3372   3.686   3.980   2.188 -1.3140  0.5735 -0.6370
 1079SOL    HW2 3373   3.630   3.842   2.158  0.9758 -0.8571  1.3224
 1080SOL     OW 3374   1.548   0.518   1.731  0.2844  0.1704  0.1473
 1080SOL    HW1 3375   1.518   0.580   1.797  0.9473  0.9822 -0.2932
 1080SOL    HW2 3376   1.495   0.538   1.654 -0.2631 -0.5568  0.3240
 1081SOL     OW 3377   1.636   1.124   0.394 -0.2645 -0.2356 -0.2940
 1081SOL    HW1 3378   1.728   1.097   0.394 -0.2407 -0.2794  1.9677
 1081SOL    HW2 3379   1.595   1.068   0.328  1.0753 -1.0993 -0.4324
 1082SOL     OW 3380   1.699   0.985   0.703 -0.9292  0.1463  0.2894
 1082SOL    HW1 3381   1.737   1.066   0.668  0.7649  0.2033  2.0865
 1082SOL    HW2 3382   1.748   0.915   0.659 -1.0966  0.1419  0.1094
 1083SOL     OW 3383   2.496   3.735   0.201  0.4178  0.0737 -0.6701
 1083SOL    HW1 3384   2.546   3.653   0.198  1.1763  0.5211 -0.6076
 1083SOL    HW2 3385   2.561   3.803   0.184  0.0461  0.7655  0.5442
 1084SOL     OW 3386   0.892   0.869   2.942 -0.3414  0.4631 -0.2567
 1084SOL    HW1 3387   0.884   0.917   3.024  0.5211  1.2981 -0.6384
 1084SOL    HW2 3388   0.959   0.916   2.893 -0.3665 -0.4105 -1.1711
 1085SOL     OW 3389   3.903   1.480   0.472  0.5946 -0.5748  0.9511
 1085SOL    HW1 3390   3.895   1.386   0.458  2.0844 -0.6411  0.3350
 1085SOL    HW2 3391   3.935   1.514   0.389 -1.9630  0.8252  0.4517
 1086SOL     OW 3392   0.234   1.884   0.204  0.4133  0.7383 -0.1099
 1086SOL    HW1 3393   0.268   1.973   0.196  1.7786  0.1942 -0.5587
 1086SOL    HW2 3394   0.180   1.872   0.125 -0.3278  1.3833  0.2846
 1087SOL     OW 3395   0.438   0.802   2.365  0.5052  0.4393  0.5778
 1087SOL    HW1 3396   0.398   0.887   2.385 -0.3951 -0.2300  1.7261
 1087SOL    HW2 3397   0.393   0.772   2.285  1.1721  1.2438 -0.1161
 1088SOL     OW 3398   2.776   0.767   3.770 -0.1485  0.5610 -0.5404
 1088SOL    HW1 3399   2.697   0.757   3.824  0.0329  0.0433 -0.3687
 1088SOL    HW2 3400   2.832   0.825   3.821 -0.2389  0.5814 -0.4626
 1089SOL     OW 3401   2.283   0.334   0.012  0.2540 -0.2530 -0.0717
 1089SOL    HW1 3402   2.285   0.244  -0.023  2.4765 -0.7720  1.1763
 1089SOL    HW2 3403   2.208   0.335   0.071 -1.6159 -0.3177 -2.2966
 1090SOL     OW 3404   1.189   0.795   2.091  0.2331  0.0997  0.0124
 1090SOL    HW1 3405   1.205   0.855   2.018 -0.1703  1.2000  0.8060
 1090SOL    HW2 3406   1.099   0.813   2.119  1.2850  1.9346  2.7049
 1091SOL     OW 3407   1.821   3.938   1.104 -0.3507  0.5784  0.0056
 1091SOL    HW1 3408   1.798   3.888   1.027 -0.4738  2.0008 -0.9186
 1091SOL    HW2 3409   1.917   3.938   1.105 -0.3343 -1.1069  1.0044
 1092SOL     OW 3410   3.579   0.060   0.079  0.2392  0.3144 -0.0371
 1092SOL    HW1 3411   3.528   0.139   0.096  0.4343  0.2013  1.2160
 1092SOL    HW2 3412   3.518   0.000   0.037 -1.2728 -0.4180  2.8692
 1093SOL     OW 3413   3.079   2.830   2.187  0.1321 -0.1144  0.5875
 1093SOL    HW1 3414   3.066   2.885   2.264 -1.8209  1.6939 -0.9394
 1093SOL    HW2 3415   3.002   2.774   2.184 -0.9795  1.3863 -1.2041
 1094SOL     OW 3416   1.403   0.170   3.527  0.6073  0.2171  0.1083
 1094SOL    HW1 3417   1.330   0.181   3.466 -0.5586 -0.3000  1.3295
 1094SOL    HW2 3418   1.371   0.208   3.609  2.6433  2.1822  0.0949
 1095SOL     OW 3419   2.048   3.037   0.641 -0.0055 -0.5017 -0.0397
 1095SOL    HW1 3420   2.102   2.973   0.687  0.7100  0.5013  0.5542
 1095SOL    HW2 3421   2.010   2.989   0.568  0.5360 -1.5857  0.3780
 1096SOL     OW 3422   1.821   1.248   1.189 -0.0105 -0.4577 -0.2541
 1096SOL    HW1 3423   1.770   1.175   1.224 -1.4051  1.0060  0.9522
 1096SOL    HW2 3424   1.804   1.320   1.249  1.8904  0.6912 -0.9888
 1097SOL     OW 3425   3.413   3.361   2.229  0.2239 -0.0060  0.0668
 1097SOL    HW1 3426   3.407   3.456   2.229 -2.1485 -0.1042  0.0250
 1097SOL    HW2 3427   3.334   3.331   2.273 -0.2892 -1.9917 -1.9715
 1098SOL     OW 3428   0.179   1.012   3.355 -0.1949 -0.1382  0.4090
 1098SOL    HW1 3429   0.086   1.001   3.374 -0.8964  3.1182 -0.4722
 1098SOL    HW2 3430   0.221   1.020   3.441 -1.4045  2.1693  0.8732
 1099SOL     OW 3431   1.604   0.790   1.254 -0.2229 -0.1375  0.6873
 1099SOL    HW1 3432   1.659   0.721   1.216 -0.1662 -0.1822  0.8496
 1099SOL    HW2 3433   1.515   0.756   1.247 -0.1596 -0.4160  1.1554
 1100SOL     OW 3434   3.634   2.945   0.548  0.5164  0.1943  0.5987
 1100SOL    HW1 3435   3.707   2.988   0.592 -0.5209 -1.2468  4.0900
 1100SOL    HW2 3436   3.556   2.988   0.584 -0.4317 -0.3366 -0.7412
 1101SOL     OW 3437   2.719   2.742   0.508 -0.7506  0.2787 -0.0880
 1101SOL    HW1 3438   2.635   2.701   0.529 -0.4145 -0.4975 -0.2269
 1101SOL    HW2 3439   2.783   2.672   0.517 -0.2787  0.5183 -1.3188
 1102SOL     OW 3440   0.810   2.139   0.866 -0.1978 -0.2102  0.0005
 1102SOL    HW1 3441   0.718   2.156   0.881  0.2837  1.2151  1.5620
 1102SOL    HW2 3442   0.818   2.043   0.871 -1.5175 -0.3198  0.2450
 1103SOL     OW 3443   1.209   2.547   2.853 -0.1397  0.0189 -0.0422
 1103SOL    HW1 3444   1.219   2.642   2.852  0.5550 -0.0331  0.6136
 1103SOL    HW2 3445   1.296   2.514   2.829  0.0922 -0.4387  1.2980
 1104SOL     OW 3446   0.235   0.900   0.048 -0.0545 -0.4792 -0.2893
 1104SOL    HW1 3447   0.301   0.967   0.030  1.6996 -1.6031  1.6174
 1104SOL    HW2 3448   0.173   0.909  -0.024 -0.0090  3.2614 -0.0920
 1105SOL     OW 3449   0.974   1.143   1.735 -0.4427  0.3976  0.7876
 1105SOL    HW1 3450   1.056   1.149   1.785  1.1386 -2.4585 -1.2050
 1105SOL    HW2 3451   0.995   1.178   1.649 -0.7919 -1.6194 -0.1953
 1106SOL     OW 3452   2.104   1.266   1.476 -0.5306  0.3104  0.3451
 1106SOL    HW1 3453   2.034   1.200   1.480 -0.8185  0.4676 -1.1885
 1106SOL    HW2 3454   2.175   1.229   1.528 -1.2088 -0.5347  0.7160
 1107SOL     OW 3455   1.912   1.471   1.001 -0.8285 -0.2471  0.2352
 1107SOL    HW1 3456   1.825   1.508   1.015 -0.0821  1.5237  0.5389
 1107SOL    HW2 3457   1.904   1.379   1.025 -1.5735  0.7623  4.6948
 1108SOL     OW 3458   3.101   3.655   0.662 -0.0569 -0.0999 -0.3948
 1108SOL    HW1 3459   3.101   3.560   0.649  1.8397 -0.0869 -0.7986
 1108SOL    HW2 3460   3.103   3.691   0.574  0.8964  0.2487 -0.2491
 1109SOL     OW 3461   0.862   3.737   1.499  0.1920  0.0867  0.1461
 1109SOL    HW1 3462   0.914   3.808   1.535  0.0473  0.5883 -0.5976
 1109SOL    HW2 3463   0.787   3.730   1.558 -0.1385  1.0155 -0.1482
 1110SOL     OW 3464   3.541   3.108   1.045 -0.2220  0.0503 -0.4800
 1110SOL    HW1 3465   3.478   3.136   1.111  0.8873  0.9113  0.2458
 1110SOL    HW2 3466   3.565   3.019   1.071 -0.3818  0.0936 -0.1741
 1111SOL     OW 3467   0.301   1.185   1.634 -0.0360  0.0299  0.0174
 1111SOL    HW1 3468   0.371   1.228   1.684 -1.0070 -1.1387  2.5717
 1111SOL    HW2 3469   0.229   1.247   1.634 -0.1645 -0.1155  0.4334
 1112SOL     OW 3470   2.448   1.230   2.990  0.7294  0.3031 -0.4924
 1112SOL    HW1 3471   2.433   1.165   2.922  2.5010  0.3875 -1.0251
 1112SOL    HW2 3472   2.489   1.182   3.062  0.5580  0.5439 -0.2282
 1113SOL     OW 3473   3.959   0.486   2.870 -0.2258 -0.3376  0.1326
 1113SOL    HW1 3474   4.029   0.431   2.836  0.2437  0.9459 -1.0914
 1113SOL    HW2 3475   4.004   0.560   2.911 -0.8273  0.6914 -1.0040
 1114SOL     OW 3476   0.660   3.858   0.388 -0.0258 -0.1303 -0.4293
 1114SOL    HW1 3477   0.569   3.843   0.412  0.1953  0.5879  0.9154
 1114SOL    HW2 3478   0.665   3.951   0.367  0.5687  0.0179  0.3250
 1115SOL     OW 3479   0.737   1.918   2.595 -0.7399 -0.0935  0.2290
 1115SOL    HW1 3480   0.825   1.890   2.618 -0.5688 -0.0752 -0.3914
 1115SOL    HW2 3481   0.740   1.933   2.501 -1.3550  0.0931  0.2333
 1116SOL     OW 3482   0.357   2.703   1.107  0.5680  0.0484  0.0938
 1116SOL    HW1 3483   0.332   2.749   1.187 -0.7866 -0.3269 -0.0921
 1116SOL    HW2 3484   0.282   2.713   1.049  0.9898 -0.8465 -0.6346
 1117SOL     OW 3485   2.843   3.304   0.352  0.4525 -1.0479 -0.5114
 1117SOL    HW1 3486   2.886   3.263   0.427  0.1102 -0.6806 -0.1126
 1117SOL    HW2 3487   2.871   3.250   0.277  2.3304 -0.2897 -0.4115
 1118SOL     OW 3488   2.458   0.621   3.244 -0.3359 -0.4113  0.0940
 1118SOL    HW1 3489   2.475   0.632   3.150 -0.0476 -0.5499  0.1282
 1118SOL    HW2 3490   2.460   0.527   3.258 -2.2224 -0.5121 -0.0843
 1119SOL     OW 3491   1.151   2.288   1.967 -0.0544 -0.1471  0.5733
 1119SOL    HW1 3492   1.239   2.253   1.951 -0.0970 -0.8630  1.8379
 1119SOL    HW2 3493   1.093   2.213   1.956 -0.4366  0.1546  0.5047
 1120SOL     OW 3494   2.889   2.105   3.041  0.1632 -0.0916 -0.1689
 1120SOL    HW1 3495   2.833   2.123   2.966  1.6248 -0.5180 -1.4185
 1120SOL    HW2 3496   2.952   2.040   3.010  0.0439 -1.2666  1.8164
 1121SOL     OW 3497   1.675   3.000   3.612 -0.3726  0.1076 -0.0190
 1121SOL    HW1 3498   1.604   3.063   3.616 -0.2897  0.1575  3.2492
 1121SOL    HW2 3499   1.748   3.043   3.656  1.8968  0.1506 -3.4579
 1122SOL     OW 3500   3.368   0.912   2.643 -0.6474 -0.4221  0.2452
 1122SOL    HW1 3501   3.444   0.966   2.667  1.1330 -1.9794 -1.4483
 1122SOL    HW2 3502   3.350   0.860   2.721  1.4886 -1.5240  0.0917
 1123SOL     OW 3503   3.479   3.133   1.646 -0.3495 -0.6147 -0.1334
 1123SOL    HW1 3504   3.459   3.227   1.653 -1.4143 -0.7207 -1.3673
 1123SOL    HW2 3505   3.501   3.120   1.554 -2.3291 -1.9384 -0.4788
 1124SOL     OW 3506   3.278   1.945   2.916  0.3375  0.0522  0.0825
 1124SOL    HW1 3507   3.269   1.905   3.003  3.3604  0.7555  0.8079
 1124SOL    HW2 3508   3.372   1.944   2.899  0.0089  1.9853 -2.2283
 1125SOL     OW 3509   0.048   0.670   0.467 -0.1564 -0.3696  0.2953
 1125SOL    HW1 3510  -0.047   0.682   0.467  0.0456  2.2207  2.8399
 1125SOL    HW2 3511   0.081   0.741   0.412  0.3810 -0.5524  0.3773
 1126SOL     OW 3512   1.619   1.688   0.837 -0.3687 -0.0880  0.5275
 1126SOL    HW1 3513   1.684   1.638   0.787  0.0066 -1.8991  2.6936
 1126SOL    HW2 3514   1.550   1.708   0.773  0.4438 -1.6007 -0.8936
 1127SOL     OW 3515   2.826   3.512   2.935 -0.2366  0.1119  0.2147
 1127SOL    HW1 3516   2.763   3.493   2.865  0.4171  0.9516 -0.6190
 1127SOL    HW2 3517   2.843   3.606   2.928  1.9415 -0.2620 -0.3214
 1128SOL     OW 3518   3.672   1.173   2.091  0.2285 -0.0244 -0.3560
 1128SOL    HW1 3519   3.700   1.136   2.175  1.6284  0.3237 -0.6371
 1128SOL    HW2 3520   3.658   1.098   2.034  2.3697 -0.2060 -0.7184
 1129SOL     OW 3521   3.418   2.515   2.388 -0.2474  0.0645  0.1955
 1129SOL    HW1 3522   3.396   2.603   2.356  2.0844  1.3138  1.7980
 1129SOL    HW2 3523   3.473   2.477   2.319 -0.5159  0.2068 -0.0998
 1130SOL     OW 3524   2.880   2.634   2.871 -0.0674  1.3055 -0.6140
 1130SOL    HW1 3525   2.928   2.556   2.898 -0.5544  1.0543 -0.4585
 1130SOL    HW2 3526   2.868   2.684   2.952 -1.3614  0.6448 -0.3696
 1131SOL     OW 3527   2.378   2.879   0.483 -0.1646  0.5093  0.4074
 1131SOL    HW1 3528   2.307   2.845   0.429  0.9317 -0.0550 -0.7291
 1131SOL    HW2 3529   2.376   2.826   0.563 -0.6418  0.0878  0.1148
 1132SOL     OW 3530   0.852   3.508   1.736 -0.2091 -0.3826 -0.3223
 1132SOL    HW1 3531   0.829   3.534   1.825  0.8713 -1.4241  0.2770
 1132SOL    HW2 3532   0.918   3.572   1.708 -0.2308 -0.3146 -0.2171
 1133SOL     OW 3533   0.681   0.834   2.529  0.1195  0.1498 -0.1572
 1133SOL    HW1 3534   0.610   0.774   2.507  2.3989 -1.8508 -2.9606
 1133SOL    HW2 3535   0.675   0.904   2.465  1.4060 -0.8278 -1.4364
 1134SOL     OW 3536   1.566   0.119   1.919 -0.1543  0.7500 -0.5817
 1134SOL    HW1 3537   1.590   0.205   1.884 -1.6671  0.7231 -1.8088
 1134SOL    HW2 3538   1.605   0.057   1.857 -2.9082  0.7032 -2.4835
 1135SOL     OW 3539   1.151   0.547   2.775  0.5013 -0.2235  0.2217
 1135SOL    HW1 3540   1.182   0.616   2.716 -1.3081 -0.9911 -1.7570
 1135SOL    HW2 3541   1.177   0.465   2.732  2.0811 -0.8668  2.2309
 1136SOL     OW 3542   1.125   0.406   3.431  0.1584  0.2936  0.3307
 1136SOL    HW1 3543   1.185   0.442   3.497  0.8111 -0.0872 -0.0402
 1136SOL    HW2 3544   1.121   0.474   3.364 -0.1200  0.4734  0.5254
 1137SOL     OW 3545   1.867   0.588   2.026  0.2173  0.0181  0.2710
 1137SOL    HW1 3546   1.962   0.579   2.024  0.0485 -2.2133 -0.7862
 1137SOL    HW2 3547   1.842   0.606   1.935 -0.3981  0.4052  0.5052
 1138SOL     OW 3548   1.911   3.046   0.215  1.0369 -0.4273  0.4109
 1138SOL    HW1 3549   1.924   3.095   0.134  2.0561 -1.8692 -0.3215
 1138SOL    HW2 3550   1.899   3.114   0.282  3.7439  0.9220 -0.3399
 1139SOL     OW 3551   0.440   3.761   2.585  0.4301 -0.0651  0.2901
 1139SOL    HW1 3552   0.367   3.708   2.617  0.8535 -0.0867  1.2592
 1139SOL    HW2 3553   0.431   3.760   2.490 -0.0683 -1.1450  0.3416
 1140SOL     OW 3554   0.703   0.014   2.735  0.3741  0.6755 -0.0325
 1140SOL    HW1 3555   0.778  -0.046   2.734 -0.1527  0.0075 -0.3316
 1140SOL    HW2 3556   0.690   0.037   2.643  0.1791  0.7491  0.0129
 1141SOL     OW 3557   3.908   2.710   2.593 -0.4066 -0.2048 -0.0644
 1141SOL    HW1 3558   3.958   2.633   2.567 -0.6548 -0.1518 -0.7172
 1141SOL    HW2 3559   3.878   2.749   2.510 -1.1473  0.0062  0.2893
 1142SOL     OW 3560   0.773   3.956   1.297 -0.2008 -0.0196 -0.0594
 1142SOL    HW1 3561   0.686   3.945   1.259  0.6766 -0.9686 -1.9127
 1142SOL    HW2 3562   0.781   3.884   1.360 -0.0022 -1.2480 -1.4300
 1143SOL     OW 3563   0.533   3.471   2.903 -0.2365  0.1686 -0.4305
 1143SOL    HW1 3564   0.501   3.408   2.839  1.2140 -0.5049 -0.5309
 1143SOL    HW2 3565   0.507   3.435   2.988  0.6290 -0.6264 -0.4857
 1144SOL     OW 3566   0.908   0.883   0.149 -0.2689  0.2751  0.6903
 1144SOL    HW1 3567   0.874   0.970   0.124 -1.6235 -0.5563 -0.5425
 1144SOL    HW2 3568   0.879   0.871   0.239  2.4225  2.2452  1.9804
 1145SOL     OW 3569   2.861   1.604   1.249 -0.2508 -0.3787 -0.2355
 1145SOL    HW1 3570   2.824   1.692   1.253 -1.0998 -0.7772  1.1874
 1145SOL    HW2 3571   2.947   1.612   1.290  1.0749  0.3926 -2.8930
 1146SOL     OW 3572   1.402   1.035   2.147  0.6883  0.0473  0.2921
 1146SOL    HW1 3573   1.374   1.078   2.228 -0.8765 -0.9220  0.3096
 1146SOL    HW2 3574   1.323   0.993   2.114  1.9482 -2.1923 -0.1101
 1147SOL     OW 3575   1.295   1.899   3.558 -0.1099 -0.1314 -0.3183
 1147SOL    HW1 3576   1.213   1.854   3.575 -0.6791  0.8983 -0.2169
 1147SOL    HW2 3577   1.325   1.928   3.645  1.4457 -2.2432 -0.0724
 1148SOL     OW 3578   0.735   1.119   1.839 -0.5132 -0.2112 -0.2111
 1148SOL    HW1 3579   0.693   1.048   1.790 -0.1987 -1.8742  1.7942
 1148SOL    HW2 3580   0.823   1.124   1.804  0.0194 -2.0434  0.7374
 1149SOL     OW 3581   2.652   0.733   1.982  0.5362 -0.2958 -0.8600
 1149SOL    HW1 3582   2.642   0.815   1.934  1.6094  0.3601  0.0013
 1149SOL    HW2 3583   2.656   0.666   1.913 -2.9421 -0.0104 -1.5270
 1150SOL     OW 3584   2.151   2.982   0.962 -0.3361  0.5483  0.4654
 1150SOL    HW1 3585   2.083   3.049   0.969 -1.6516 -0.5590 -1.0231
 1150SOL    HW2 3586   2.149   2.935   1.045 -0.6243  1.2093  0.8386
 1151SOL     OW 3587   0.377   0.566   0.851  0.0906 -0.3341  0.2494
 1151SOL    HW1 3588   0.407   0.486   0.807  1.5617 -0.2996  1.1439
 1151SOL    HW2 3589   0.324   0.610   0.785  1.6973 -0.5944 -1.3003
 1152SOL     OW 3590   3.603   1.801   0.736 -0.5917  0.8750 -0.0856
 1152SOL    HW1 3591   3.665   1.866   0.769 -1.2879  0.6926  1.6978
 1152SOL    HW2 3592   3.602   1.814   0.641  0.4585  2.3786  0.0784
 1153SOL     OW 3593   1.010   3.827   1.694 -0.2355  0.4638  0.3548
 1153SOL    HW1 3594   1.034   3.878   1.771  0.3156  1.4138 -0.4287
 1153SOL    HW2 3595   1.093   3.804   1.653 -0.5138 -0.2445  0.1725
 1154SOL     OW 3596   3.784   1.975   0.847 -0.9142  0.4853 -0.1838
 1154SOL    HW1 3597   3.874   1.973   0.813 -0.9008 -0.6602 -0.1167
 1154SOL    HW2 3598   3.794   1.962   0.941 -1.2412 -2.0083 -0.4250
 1155SOL     OW 3599   0.853   3.230   3.109  0.2596  0.4434  0.0832
 1155SOL    HW1 3600   0.867   3.158   3.171  1.6387  0.5913 -0.0217
 1155SOL    HW2 3601   0.810   3.298   3.161 -1.0628 -0.4336  0.1787
 1156SOL     OW 3602   1.137   1.597   3.067  0.4867 -0.2638  0.1353
 1156SOL    HW1 3603   1.199   1.524   3.060  1.7015  0.6910  0.5761
 1156SOL    HW2 3604   1.055   1.562   3.030  1.8166 -0.9262 -2.4628
 1157SOL     OW 3605   2.315   0.792   1.190  0.1225 -0.4661 -0.2077
 1157SOL    HW1 3606   2.269   0.846   1.126 -0.8620 -1.7140 -0.5977
 1157SOL    HW2 3607   2.248   0.734   1.226  0.8295 -0.3399  1.3957
 1158SOL     OW 3608   0.749   1.196   3.126 -0.7311 -0.1761 -0.2808
 1158SOL    HW1 3609   0.698   1.170   3.049 -1.0639  1.6749 -0.7383
 1158SOL    HW2 3610   0.685   1.201   3.197 -0.4844 -1.5357  0.0698
 1159SOL     OW 3611   2.892   1.384   1.124 -0.0512 -0.5866 -0.6514
 1159SOL    HW1 3612   2.886   1.475   1.155  0.3079 -0.7482 -0.1060
 1159SOL    HW2 3613   2.893   1.392   1.028 -2.5776 -0.1818 -0.6871
 1160SOL     OW 3614   3.817   1.282   1.782  0.8243 -0.3052 -0.2731
 1160SOL    HW1 3615   3.791   1.252   1.695  1.0144 -2.4940  0.3617
 1160SOL    HW2 3616   3.735   1.303   1.826  0.6579 -0.1741 -0.6428
 1161SOL     OW 3617   1.413   1.727   3.352  0.5632 -0.1885 -0.2065
 1161SOL    HW1 3618   1.359   1.766   3.420  0.4119 -3.2537  1.6229
 1161SOL    HW2 3619   1.360   1.732   3.273 -1.2258 -0.5321  0.9151
 1162SOL     OW 3620   1.807   0.611   1.750 -0.3191 -0.4259  0.5733
 1162SOL    HW1 3621   1.725   0.563   1.737  0.2984 -1.7326  1.3633
 1162SOL    HW2 3622   1.782   0.703   1.741 -1.8307 -0.8063  0.5733
 1163SOL     OW 3623   2.322   1.657   3.261 -0.3110 -0.1063  0.2261
 1163SOL    HW1 3624   2.376   1.582   3.236 -0.4898  0.0388 -0.6357
 1163SOL    HW2 3625   2.386   1.727   3.275 -0.2369 -0.0217 -0.4728
 1164SOL     OW 3626   1.624   3.916   3.941  0.0127 -0.5548  0.4348
 1164SOL    HW1 3627   1.679   3.964   3.879  0.8437 -2.9469 -0.7752
 1164SOL    HW2 3628   1.542   3.902   3.894  0.7604 -2.6619 -0.3576
 1165SOL     OW 3629   2.524   0.576   2.967 -0.3165 -0.1792 -0.3380
 1165SOL    HW1 3630   2.574   0.494   2.973  1.1964  0.5842 -1.8190
 1165SOL    HW2 3631   2.484   0.573   2.880 -0.7291  0.4142 -0.1738
 1166SOL     OW 3632   3.644   2.977   0.274  0.1035 -0.0356  0.5033
 1166SOL    HW1 3633   3.687   2.960   0.357  1.0559 -1.0545 -0.1823
 1166SOL    HW2 3634   3.564   2.925   0.277  0.7109 -0.9937  0.3161
 1167SOL     OW 3635   2.949   3.675   3.500  0.1956  0.2200  0.5011
 1167SOL    HW1 3636   2.933   3.658   3.592  0.4146 -0.2981  0.4433
 1167SOL    HW2 3637   2.914   3.764   3.486 -2.4049 -0.7273  0.4404
 1168SOL     OW 3638   2.895   2.588   3.404  0.0841 -0.0061  0.0795
 1168SOL    HW1 3639   2.926   2.674   3.377  0.6497 -0.2491 -0.0597
 1168SOL    HW2 3640   2.843   2.604   3.482 -1.6888  0.7382 -1.1894
 1169SOL     OW 3641   1.940   0.978   0.955  0.2342  0.0021  1.0663
 1169SOL    HW1 3642   1.883   1.045   0.917  0.0003 -0.8886 -0.2184
 1169SOL    HW2 3643   1.882   0.902   0.969  0.7473 -0.3471  1.3315
 1170SOL     OW 3644   2.277   3.646   3.299 -0.0585  0.3290  0.2846
 1170SOL    HW1 3645   2.350   3.584   3.296 -2.1268 -2.3520  0.5126
 1170SOL    HW2 3646   2.281   3.693   3.216  1.4711 -0.3001 -0.0190
 1171SOL     OW 3647   0.436   0.412   3.520 -0.1980 -0.7160  0.1495
 1171SOL    HW1 3648   0.371   0.482   3.516  1.4108  1.0063  1.9635
 1171SOL    HW2 3649   0.520   0.457   3.531  1.0428 -2.9035  0.2691
 1172SOL     OW 3650   2.353   0.801   3.657 -0.1286 -0.2079 -0.2213
 1172SOL    HW1 3651   2.271   0.753   3.657 -0.8007  0.9000  0.2487
 1172SOL    HW2 3652   2.414   0.745   3.609 -1.6277 -0.2673 -2.1688
 1173SOL     OW 3653   3.859   3.656   2.811  0.0346  0.1223 -0.2918
 1173SOL    HW1 3654   3.903   3.741   2.804  1.0112 -0.2852  0.5134
 1173SOL    HW2 3655   3.768   3.677   2.830  0.0004  0.9942 -1.3304
 1174SOL     OW 3656   3.918   2.756   0.281 -0.3642  0.1847 -0.1096
 1174SOL    HW1 3657   3.902   2.760   0.376 -0.2366  1.1535 -0.1236
 1174SOL    HW2 3658   3.830   2.753   0.242 -0.4170 -0.6461  0.0418
 1175SOL     OW 3659   1.764   3.824   1.840  0.3689 -0.0861  0.2492
 1175SOL    HW1 3660   1.825   3.820   1.767 -0.9099  0.2683 -0.8876
 1175SOL    HW2 3661   1.811   3.783   1.913  0.8315 -2.7687 -1.3987
 1176SOL     OW 3662   3.708   2.610   3.547 -0.3990 -0.5557  0.0854
 1176SOL    HW1 3663   3.620   2.634   3.517 -0.2966 -0.3730 -0.0680
 1176SOL    HW2 3664   3.708   2.630   3.641 -0.4741 -0.4228  0.0574
 1177SOL     OW 3665   0.847   1.408   1.466 -0.4340 -0.0449  0.4323
 1177SOL    HW1 3666   0.918   1.469   1.445  0.7246 -1.4076  0.2310
 1177SOL    HW2 3667   0.797   1.452   1.534  0.5527  0.9946  0.5203
 1178SOL     OW 3668   1.611   0.126   0.239  0.3300  0.0673 -0.2581
 1178SOL    HW1 3669   1.600   0.197   0.176  0.6018  0.0466 -0.3327
 1178SOL    HW2 3670   1.599   0.046   0.187  0.0454  0.0597 -0.1791
 1179SOL     OW 3671   3.835   1.324   3.439 -0.4978 -0.4719  0.3029
 1179SOL    HW1 3672   3.750   1.297   3.474 -0.7073 -0.3293 -0.0830
 1179SOL    HW2 3673   3.816   1.405   3.391  0.1311  0.3896  1.4768
 1180SOL     OW 3674   2.801   0.618   2.782 -0.5524 -0.1111 -0.5237
 1180SOL    HW1 3675   2.722   0.603   2.731 -0.1473  2.2554 -2.0155
 1180SOL    HW2 3676   2.771   0.642   2.869 -1.4497 -0.0502 -0.8488
 1181SOL     OW 3677   1.710   2.015   1.628  0.3580 -0.2933  0.4062
 1181SOL    HW1 3678   1.614   2.012   1.634  0.3804 -0.7007  0.6076
 1181SOL    HW2 3679   1.740   2.004   1.718  0.5853  0.7352  0.4714
 1182SOL     OW 3680   2.753   1.906   3.452  0.4911 -0.4195 -0.1817
 1182SOL    HW1 3681   2.725   1.974   3.391  0.3922  0.0109  0.3330
 1182SOL    HW2 3682   2.757   1.950   3.537  1.0241 -0.9065  0.0551
 1183SOL     OW 3683   2.415   3.090   1.852 -0.2419 -0.8992  0.2136
 1183SOL    HW1 3684   2.351   3.036   1.806 -0.6836 -0.6377  0.5163
 1183SOL    HW2 3685   2.495   3.081   1.801 -1.5809  2.3033 -2.8155
 1184SOL     OW 3686   2.118   3.472   2.615 -0.4028 -0.6726 -0.2880
 1184SOL    HW1 3687   2.152   3.435   2.696 -0.4770 -0.4653 -0.1605
 1184SOL    HW2 3688   2.176   3.438   2.547 -0.0401 -0.4524 -0.0915
 1185SOL     OW 3689   0.203   2.906   1.284  0.3589  0.2219  0.3431
 1185SOL    HW1 3690   0.290   2.936   1.311 -0.1693 -0.0775  2.6130
 1185SOL    HW2 3691   0.146   2.981   1.298 -0.2166 -0.4474  1.7600
 1186SOL     OW 3692   2.409   0.168   2.188 -0.4149 -0.5851  0.3397
 1186SOL    HW1 3693   2.465   0.091   2.176 -0.0245 -0.2992  0.3451
 1186SOL    HW2 3694   2.451   0.218   2.257  0.0075  0.2624 -0.5113
 1187SOL     OW 3695   0.075   0.835   1.962 -0.1187  0.1252 -0.7236
 1187SOL    HW1 3696   0.055   0.909   1.905  4.0938  1.3897 -0.8925
 1187SOL    HW2 3697   0.024   0.763   1.926 -1.2954  1.9967 -3.0918
 1188SOL     OW 3698   1.003   2.520   3.045 -0.1232 -0.1224  0.2867
 1188SOL    HW1 3699   1.026   2.553   2.958  3.2568  2.5353  1.9166
 1188SOL    HW2 3700   1.082   2.474   3.074 -1.8690 -2.6413  1.2956
 1189SOL     OW 3701   1.469   1.333   1.268  0.4913 -0.6959 -0.1874
 1189SOL    HW1 3702   1.382   1.295   1.252  0.8198 -1.4604 -0.1951
 1189SOL    HW2 3703   1.506   1.346   1.181 -0.0799  0.7649 -0.2333
 1190SOL     OW 3704   0.096   0.880   0.262 -0.1299 -0.3655 -1.0488
 1190SOL    HW1 3705   0.071   0.961   0.305 -1.9467  0.2414 -3.0822
 1190SOL    HW2 3706   0.115   0.906   0.171  0.0558 -2.0917 -1.5414
 1191SOL     OW 3707   3.268   3.168   1.235  0.3411 -0.0617  0.1393
 1191SOL    HW1 3708   3.223   3.141   1.315  2.2735 -1.1090  0.9402
 1191SOL    HW2 3709   3.227   3.118   1.165 -0.1081 -0.5648  0.7583
 1192SOL     OW 3710   3.538   0.815   1.731  0.4341 -0.6968 -0.6344
 1192SOL    HW1 3711   3.579   0.815   1.644  0.1366  0.8113 -0.8042
 1192SOL    HW2 3712   3.490   0.733   1.734  2.9454 -2.2964 -0.6490
 1193SOL     OW 3713   3.350   3.518   0.674 -0.1541  0.6015 -0.5896
 1193SOL    HW1 3714   3.286   3.589   0.681  1.4116  2.1733 -1.4143
 1193SOL    HW2 3715   3.435   3.561   0.682  0.8575 -1.2887 -0.4841
 1194SOL     OW 3716   0.980   1.118   1.401  0.1246  0.2445 -0.0444
 1194SOL    HW1 3717   0.912   1.167   1.355  0.5689 -1.7113 -3.0628
 1194SOL    HW2 3718   0.937   1.038   1.430  0.6357 -0.0530 -0.0861
 1195SOL     OW 3719   3.056   3.186   2.044  0.5807  0.5275  0.8929
 1195SOL    HW1 3720   3.112   3.152   1.974  1.7439  0.5312  1.7938
 1195SOL    HW2 3721   3.011   3.261   2.004 -0.3313 -0.6502 -0.4419
 1196SOL     OW 3722   1.620   0.932   2.549  0.5173  0.4995  0.5909
 1196SOL    HW1 3723   1.661   1.011   2.512  0.4717  0.2321 -0.0429
 1196SOL    HW2 3724   1.682   0.862   2.528  0.6169  0.3824  1.2632
 1197SOL     OW 3725   2.297   1.859   0.957  0.3647 -0.0433 -0.4113
 1197SOL    HW1 3726   2.203   1.874   0.946  0.1383 -0.8307  0.3506
 1197SOL    HW2 3727   2.338   1.934   0.914 -0.6454  1.0525  0.4803
 1198SOL     OW 3728   1.406   1.964   1.573 -0.5538 -0.7740  0.9033
 1198SOL    HW1 3729   1.334   1.914   1.614 -2.1768  1.3514  0.8223
 1198SOL    HW2 3730   1.435   1.909   1.500 -3.7712 -0.7299 -0.5721
 1199SOL     OW 3731   2.097   0.130   0.516  0.8566  0.8301  0.1252
 1199SOL    HW1 3732   2.049   0.205   0.549 -0.1316 -0.2314  1.1563
 1199SOL    HW2 3733   2.138   0.091   0.593  0.6237 -0.1977 -0.2539
 1200SOL     OW 3734   0.099   0.888   2.752 -0.0886  0.4605  0.0964
 1200SOL    HW1 3735   0.013   0.863   2.785  0.3599 -1.0234  0.1892
 1200SOL    HW2 3736   0.123   0.966   2.803  0.3501 -1.4044  3.0044
 1201SOL     OW 3737   2.527   2.268   3.512  0.2674 -0.2105 -1.3125
 1201SOL    HW1 3738   2.492   2.185   3.545 -0.7742  0.2853 -1.1120
 1201SOL    HW2 3739   2.622   2.256   3.513  0.2142 -0.7676  0.3756
 1202SOL     OW 3740   0.243   3.237   0.914  0.5779  0.7670  0.5579
 1202SOL    HW1 3741   0.243   3.161   0.856  1.7549  2.9344 -2.5223
 1202SOL    HW2 3742   0.164   3.285   0.890 -0.2774  0.5110  2.6417
 1203SOL     OW 3743   1.463   1.585   0.142  0.1495 -0.2450  0.0357
 1203SOL    HW1 3744   1.400   1.591   0.214  0.6607 -3.0041  0.8604
 1203SOL    HW2 3745   1.433   1.509   0.091  0.6246  0.7854 -1.8629
 1204SOL     OW 3746   2.405   3.116   0.914 -0.2997 -0.5762 -0.0267
 1204SOL    HW1 3747   2.406   3.130   1.009 -1.6581 -0.4302 -0.0049
 1204SOL    HW2 3748   2.321   3.073   0.897 -1.4907  2.0468 -1.4840
 1205SOL     OW 3749   0.210   3.644   2.716 -0.6053  0.2278  0.2011
 1205SOL    HW1 3750   0.228   3.677   2.804 -0.7191  1.4049 -0.1895
 1205SOL    HW2 3751   0.124   3.681   2.694  0.5802  2.2209 -1.4095
 1206SOL     OW 3752   0.781   3.410   0.243  0.3696 -0.6235  0.0640
 1206SOL    HW1 3753   0.810   3.353   0.171  1.0413 -1.8306  1.2467
 1206SOL    HW2 3754   0.859   3.460   0.267 -0.3087  1.1270 -1.2097
 1207SOL     OW 3755   2.296   0.355   1.716  0.1170 -0.1011 -0.1115
 1207SOL    HW1 3756   2.227   0.415   1.688  0.2875 -0.0848 -0.4999
 1207SOL    HW2 3757   2.248   0.278   1.748 -0.0772 -0.4945 -1.2834
 1208SOL     OW 3758   1.926   3.142   3.646  0.3914  0.7683 -0.4629
 1208SOL    HW1 3759   1.934   3.170   3.737  0.0754  0.1688 -0.2501
 1208SOL    HW2 3760   1.886   3.217   3.601 -0.8017  0.5222  0.1756
 1209SOL     OW 3761   0.785   3.394   2.466 -0.0720  0.0914 -0.1434
 1209SOL    HW1 3762   0.729   3.440   2.529 -1.8347 -0.0888 -1.5116
 1209SOL    HW2 3763   0.838   3.462   2.425  0.6135  0.2898  1.0344
 1210SOL     OW 3764   0.909   2.522   1.246  0.6011 -1.1610  0.1144
 1210SOL    HW1 3765   0.982   2.467   1.274  0.9709 -1.8399 -1.9683
 1210SOL    HW2 3766   0.876   2.479   1.167 -0.5070  0.4517 -0.3554
 1211SOL     OW 3767   0.570   1.194   2.750 -0.0464  0.0019 -0.2595
 1211SOL    HW1 3768   0.663   1.216   2.746  0.6571 -2.3880  0.9939
 1211SOL    HW2 3769   0.563   1.134   2.824 -2.6396  0.2230 -0.2344
 1212SOL     OW 3770   2.748   2.047   1.670  0.7648 -0.5523 -0.6700
 1212SOL    HW1 3771   2.693   2.090   1.604 -0.0471 -0.6224 -0.0488
 1212SOL    HW2 3772   2.789   2.119   1.717 -0.4648 -0.4379  0.2609
 1213SOL     OW 3773   1.962   0.405   1.415  0.2698 -0.0534 -0.3373
 1213SOL    HW1 3774   1.907   0.332   1.445  1.7523 -1.2244 -0.3384
 1213SOL    HW2 3775   2.018   0.424   1.490 -0.1306  1.1363 -0.3265
 1214SOL     OW 3776   3.022   0.570   2.122 -0.3471  0.8399  0.0406
 1214SOL    HW1 3777   3.066   0.566   2.207  0.3060  0.5579 -0.3097
 1214SOL    HW2 3778   2.954   0.637   2.134 -1.5723 -0.5650  1.3841
 1215SOL     OW 3779   0.248   3.767   2.966  0.6904 -0.5563 -0.2586
 1215SOL    HW1 3780   0.246   3.751   3.060  0.2193 -1.5735 -0.4271
 1215SOL    HW2 3781   0.307   3.842   2.955  1.6002 -1.1063  0.7400
 1216SOL     OW 3782   0.958   3.091   2.246 -0.3893  0.3570  0.3660
 1216SOL    HW1 3783   0.972   3.041   2.326  2.0242  1.5248  0.7706
 1216SOL    HW2 3784   1.013   3.048   2.180 -0.6552  0.6872 -0.0813
 1217SOL     OW 3785   0.152   0.457   0.655 -0.2361 -0.3167  0.7303
 1217SOL    HW1 3786   0.240   0.422   0.668 -0.4283 -1.5013 -0.9329
 1217SOL    HW2 3787   0.164   0.528   0.592 -0.2358  0.8622  2.0078
 1218SOL     OW 3788   2.641   1.508   2.914  0.2993  0.0504  0.5102
 1218SOL    HW1 3789   2.557   1.462   2.913  0.7003 -0.8223  2.2580
 1218SOL    HW2 3790   2.647   1.550   2.828 -0.8908 -1.7281 -0.4981
 1219SOL     OW 3791   2.952   1.308   0.703 -0.2084 -0.4938 -0.1765
 1219SOL    HW1 3792   2.896   1.300   0.626  0.4897 -0.4793 -0.6911
 1219SOL    HW2 3793   3.041   1.301   0.670  0.0884 -1.1357  0.7073
 1220SOL     OW 3794   1.250   0.306   2.694  0.6878 -0.0595  0.1186
 1220SOL    HW1 3795   1.270   0.218   2.660  0.7367 -0.6532  1.6251
 1220SOL    HW2 3796   1.160   0.298   2.728  0.6966  0.4721  0.2675
 1221SOL     OW 3797   2.912   3.604   3.773 -0.2239  0.2070  0.0456
 1221SOL    HW1 3798   2.928   3.649   3.857 -0.1207 -0.1651  0.2289
 1221SOL    HW2 3799   2.977   3.533   3.772 -0.0895  0.3364 -0.4455
 1222SOL     OW 3800   1.215   0.605   0.899 -0.8815  0.4204 -1.0535
 1222SOL    HW1 3801   1.290   0.549   0.919 -1.8924 -0.8082 -0.5853
 1222SOL    HW2 3802   1.185   0.576   0.813 -1.9448 -0.3967 -0.4305
 1223SOL     OW 3803   2.977   2.628   1.060  0.4903  0.0466 -0.4321
 1223SOL    HW1 3804   2.915   2.696   1.085  0.1447 -0.2483 -0.4826
 1223SOL    HW2 3805   2.949   2.551   1.109  0.6535 -0.1598 -0.6632
 1224SOL     OW 3806   0.964   1.624   0.926 -0.5874 -0.3109 -0.2505
 1224SOL    HW1 3807   0.935   1.649   1.013 -0.2684 -0.4031 -0.1145
 1224SOL    HW2 3808   1.053   1.661   0.919 -0.0066 -1.5988  0.0488
 1225SOL     OW 3809   0.383   2.346   2.861  0.4855  0.0215  0.4135
 1225SOL    HW1 3810   0.425   2.354   2.947  2.2481 -1.3228 -0.2456
 1225SOL    HW2 3811   0.316   2.415   2.860  0.0073 -0.2855  3.0623
 1226SOL     OW 3812   1.105   1.551   1.470  0.1170 -0.6253 -0.0458
 1226SOL    HW1 3813   1.044   1.596   1.529 -2.3710 -2.6770 -0.8623
 1226SOL    HW2 3814   1.190   1.555   1.515 -0.8534  1.2383  1.7747
 1227SOL     OW 3815   2.995   1.752   0.741 -0.0548 -0.2863  0.2183
 1227SOL    HW1 3816   3.023   1.841   0.763 -1.5419  0.4350 -0.6965
 1227SOL    HW2 3817   3.009   1.703   0.821 -0.3534  1.0546  1.1270
 1228SOL     OW 3818   1.049   0.384   0.035 -0.3346  0.3222 -0.7196
 1228SOL    HW1 3819   1.122   0.446   0.040  0.2106 -0.1218 -2.4474
 1228SOL    HW2 3820   1.029   0.364   0.126 -0.2331  2.6768 -0.1043
 1229SOL     OW 3821   2.120   2.532   0.220 -0.0902 -0.1601 -0.1513
 1229SOL    HW1 3822   2.046   2.535   0.160  0.6850  0.2562 -1.1177
 1229SOL    HW2 3823   2.187   2.480   0.173  1.7247  2.8042 -1.1260
 1230SOL     OW 3824   0.066   2.687   1.340 -0.6104 -0.0306  0.3151
 1230SOL    HW1 3825   0.116   2.673   1.420 -1.6121  0.2674  1.0153
 1230SOL    HW2 3826   0.102   2.767   1.302  0.0745 -0.3435  0.2954
 1231SOL     OW 3827   0.171   3.321   3.435  0.2047 -0.5629  0.9635
 1231SOL    HW1 3828   0.245   3.382   3.434  1.1458 -1.5999 -1.9973
 1231SOL    HW2 3829   0.115   3.349   3.363 -2.2530  0.0198  2.9719
 1232SOL     OW 3830   3.698   3.523   0.371 -0.1602 -0.0052 -0.9851
 1232SOL    HW1 3831   3.673   3.462   0.302  0.5460 -2.5388  0.8699
 1232SOL    HW2 3832   3.778   3.566   0.338 -0.2530 -0.6129 -2.0260
 1233SOL     OW 3833   1.274   1.075   0.753 -0.2190 -1.2458 -0.4143
 1233SOL    HW1 3834   1.350   1.058   0.696  0.1538 -1.4871  0.1433
 1233SOL    HW2 3835   1.291   1.023   0.831 -0.6056 -0.7350  0.0187
 1234SOL     OW 3836   3.221   1.677   3.444 -0.3183  0.6127 -0.0328
 1234SOL    HW1 3837   3.136   1.721   3.440 -0.2138  1.1620  2.3573
 1234SOL    HW2 3838   3.269   1.724   3.512  1.7234 -0.0347 -0.9695
 1235SOL     OW 3839   1.573   3.177   0.549 -0.3268 -0.0464  0.0654
 1235SOL    HW1 3840   1.619   3.186   0.632  1.0684 -1.1823 -0.5497
 1235SOL    HW2 3841   1.642   3.174   0.483 -1.2752 -1.3231 -0.9364
 1236SOL     OW 3842   3.308   3.230   0.538  0.6813 -0.3449  0.3813
 1236SOL    HW1 3843   3.241   3.203   0.476  0.7227 -1.3697  0.7570
 1236SOL    HW2 3844   3.309   3.326   0.533 -0.9926 -0.2878  0.5686
 1237SOL     OW 3845   1.639   2.755   3.321  0.4962  0.4939 -0.1233
 1237SOL    HW1 3846   1.715   2.770   3.376  0.1071 -0.0933  0.6025
 1237SOL    HW2 3847   1.675   2.732   3.235  1.2265 -1.9084  0.7508
 1238SOL     OW 3848   3.612   1.547   1.719 -0.6085 -0.3238  0.3572
 1238SOL    HW1 3849   3.604   1.641   1.704 -2.2716 -0.0020  2.6206
 1238SOL    HW2 3850   3.654   1.540   1.805  0.2601 -1.6787 -0.1535
 1239SOL     OW 3851   3.773   3.249   0.974 -0.1556 -0.3148 -0.4960
 1239SOL    HW1 3852   3.755   3.342   0.991  0.2171  0.4522 -3.6049
 1239SOL    HW2 3853   3.693   3.204   0.999 -1.1392  1.1509 -0.8556
 1240SOL     OW 3854   1.123   3.466   0.203 -0.5767  0.0664  0.1067
 1240SOL    HW1 3855   1.120   3.542   0.144 -0.9981  0.7743  1.0190
 1240SOL    HW2 3856   1.103   3.392   0.147  0.3021  0.5567 -0.9067
 1241SOL     OW 3857   2.232   0.539   0.854  0.3249 -0.2451  0.3927
 1241SOL    HW1 3858   2.326   0.552   0.867  0.2754 -0.0126  0.5117
 1241SOL    HW2 3859   2.192   0.622   0.880 -0.0459 -0.8258  1.7953
 1242SOL     OW 3860   0.846   1.616   0.389 -0.2079  0.2648 -0.4730
 1242SOL    HW1 3861   0.750   1.615   0.382 -0.4582  0.7728  1.9735
 1242SOL    HW2 3862   0.863   1.618   0.483  2.2397 -0.3615 -0.8377
 1243SOL     OW 3863   2.791   1.837   1.089 -0.2331  0.3218  0.2784
 1243SOL    HW1 3864   2.749   1.844   1.003 -0.2274  1.3373  0.3497
 1243SOL    HW2 3865   2.732   1.883   1.148 -1.8153 -2.8691  1.4357
 1244SOL     OW 3866   2.506   2.165   0.808 -0.2123 -0.3294 -0.1838
 1244SOL    HW1 3867   2.571   2.215   0.759 -0.1410 -0.9043 -0.6961
 1244SOL    HW2 3868   2.445   2.134   0.741  0.2380 -1.6501 -0.0202
 1245SOL     OW 3869   3.498   1.848   1.672 -0.7150 -0.4870 -0.5331
 1245SOL    HW1 3870   3.486   1.942   1.689 -1.1522 -0.0804 -2.7733
 1245SOL    HW2 3871   3.519   1.843   1.579 -1.0855 -2.6622 -0.5513
 1246SOL     OW 3872   2.254   0.175   3.365  0.0667 -0.4463  0.4843
 1246SOL    HW1 3873   2.298   0.123   3.432 -0.3220 -2.0644 -0.4640
 1246SOL    HW2 3874   2.169   0.196   3.404 -0.0426 -1.1193  0.6155
 1247SOL     OW 3875   0.829   0.716   3.889 -0.5767  0.6056 -0.2429
 1247SOL    HW1 3876   0.865   0.744   3.973 -0.9440  0.5172 -0.0533
 1247SOL    HW2 3877   0.862   0.780   3.826  0.5661  0.0699 -0.2095
 1248SOL     OW 3878   3.820   3.458   1.479 -0.7857 -0.1950  0.1016
 1248SOL    HW1 3879   3.875   3.511   1.537 -0.7773  0.1315 -0.1989
 1248SOL    HW2 3880   3.825   3.370   1.515 -0.1729 -0.1434  0.1538
 1249SOL     OW 3881   0.677   2.802   2.390 -0.0774 -0.1958  0.0415
 1249SOL    HW1 3882   0.675   2.887   2.435 -0.7153 -0.6815  0.9682
 1249SOL    HW2 3883   0.610   2.809   2.322 -1.5091 -0.5877  1.3573
 1250SOL     OW 3884   0.789   0.127   1.730 -0.0195  0.4279  0.5246
 1250SOL    HW1 3885   0.806   0.050   1.676 -1.1336 -0.3505  1.2442
 1250SOL    HW2 3886   0.752   0.191   1.669  0.9376  0.4370 -0.0834
 1251SOL     OW 3887   3.151   1.200   1.592  0.5685  0.3971  0.1520
 1251SOL    HW1 3888   3.114   1.211   1.504  1.6994 -1.2583 -0.5973
 1251SOL    HW2 3889   3.141   1.285   1.633  0.2575  1.3090 -1.6972
 1252SOL     OW 3890   3.534   2.578   1.727 -0.6704  0.4409 -0.1312
 1252SOL    HW1 3891   3.482   2.535   1.795  0.7063  0.9887  1.3300
 1252SOL    HW2 3892   3.570   2.656   1.771  1.4085  0.0467 -1.0635
 1253SOL     OW 3893   2.446   1.442   0.722  0.0094  0.1754 -0.4411
 1253SOL    HW1 3894   2.391   1.520   0.720 -1.7691 -1.0122 -2.0427
 1253SOL    HW2 3895   2.526   1.470   0.767 -1.5656  2.1924  1.3152
 1254SOL     OW 3896   1.017   3.417   2.055  0.4333  0.5443 -1.1554
 1254SOL    HW1 3897   1.004   3.332   2.097 -0.5495  0.4470 -1.6148
 1254SOL    HW2 3898   1.101   3.448   2.088 -0.2060  0.3964  0.7587
 1255SOL     OW 3899   1.348   0.964   1.531 -0.7071 -0.4285 -0.4496
 1255SOL    HW1 3900   1.359   0.978   1.437 -0.3148 -1.5600 -0.5875
 1255SOL    HW2 3901   1.276   0.901   1.538  0.5656 -1.9325 -0.1258
 1256SOL     OW 3902   3.908   3.108   0.690  0.4206 -0.9925 -0.4561
 1256SOL    HW1 3903   3.962   3.169   0.639 -0.3079 -0.3887 -0.5116
 1256SOL    HW2 3904   3.836   3.161   0.724 -0.7043 -1.9933 -1.2081
 1257SOL     OW 3905   1.517   1.276   3.327 -0.0031 -0.2065  0.0713
 1257SOL    HW1 3906   1.588   1.265   3.391 -0.1280  1.5133  0.5522
 1257SOL    HW2 3907   1.557   1.250   3.244  0.2955 -2.0453  0.7393
 1258SOL     OW 3908   0.143   3.835   3.632  0.2292 -0.1301  0.1179
 1258SOL    HW1 3909   0.050   3.820   3.613  0.3693 -1.6614  0.4857
 1258SOL    HW2 3910   0.171   3.899   3.568 -1.0995  0.3921  0.0381
 1259SOL     OW 3911   3.874   1.682   0.656 -0.2628  0.3442 -0.0153
 1259SOL    HW1 3912   3.797   1.658   0.709  0.1857 -0.1726  0.4104
 1259SOL    HW2 3913   3.890   1.606   0.601  1.3711 -0.5553  1.5782
 1260SOL     OW 3914   2.701   3.368   3.122 -0.2247  0.1685  0.3995
 1260SOL    HW1 3915   2.753   3.419   3.060  1.6255  0.0336  1.7315
 1260SOL    HW2 3916   2.655   3.304   3.068 -0.1026  1.2059 -0.9857
 1261SOL     OW 3917   3.215   2.318   2.280  0.4115  0.8834  0.5605
 1261SOL    HW1 3918   3.139   2.345   2.332  0.6319  1.4121  0.6138
 1261SOL    HW2 3919   3.284   2.379   2.305  0.6932  0.7592  0.0949
 1262SOL     OW 3920   2.443   0.400   1.224 -0.0970  0.2156  0.5235
 1262SOL    HW1 3921   2.458   0.493   1.241 -1.1562  0.5516 -0.2814
 1262SOL    HW2 3922   2.424   0.362   1.310  1.4939  0.4980  1.0248
 1263SOL     OW 3923   3.580   3.687   2.862 -0.0169 -0.2958  0.3975
 1263SOL    HW1 3924   3.550   3.665   2.950 -2.3915 -1.0453 -0.5101
 1263SOL    HW2 3925   3.565   3.607   2.811 -2.6997  1.2618 -1.5655
 1264SOL     OW 3926   2.474   3.470   3.263  0.7638  0.0493 -0.1022
 1264SOL    HW1 3927   2.422   3.391   3.275  1.2821 -0.0794  1.6003
 1264SOL    HW2 3928   2.555   3.439   3.222  1.0369 -0.3303  0.7213
 1265SOL     OW 3929   3.046   2.368   3.892  0.1646  0.1091 -0.3908
 1265SOL    HW1 3930   3.091   2.451   3.877  0.4525 -0.1555 -1.0137
 1265SOL    HW2 3931   3.086   2.308   3.829 -0.0730 -0.4882  0.0317
 1266SOL     OW 3932   2.300   1.165   1.317  0.7295 -0.5023 -0.3279
 1266SOL    HW1 3933   2.386   1.199   1.292  0.6522 -0.3143 -0.3350
 1266SOL    HW2 3934   2.249   1.168   1.237  0.9848 -1.4487 -0.5413
 1267SOL     OW 3935   0.142   3.341   1.504  0.2279 -0.1177 -0.2064
 1267SOL    HW1 3936   0.105   3.377   1.585 -1.0991 -0.1938 -0.7469
 1267SOL    HW2 3937   0.094   3.259   1.491  3.1172 -2.1755  0.9791
 1268SOL     OW 3938   0.371   1.801   0.466  0.5002  0.2529  0.1859
 1268SOL    HW1 3939   0.318   1.828   0.540 -0.6702 -1.6503  0.1191
 1268SOL    HW2 3940   0.341   1.855   0.393  0.7962  1.2746  0.8061
 1269SOL     OW 3941   0.224   2.852   3.562  0.0672  0.5711 -0.5066
 1269SOL    HW1 3942   0.172   2.926   3.593 -0.3984  0.8977 -1.9768
 1269SOL    HW2 3943   0.167   2.776   3.573 -0.8499  0.9451 -2.2443
 1270SOL     OW 3944   1.530   2.528   2.097 -0.0637  0.0928  0.5181
 1270SOL    HW1 3945   1.525   2.492   2.008 -4.5129 -0.8611  0.9016
 1270SOL    HW2 3946   1.614   2.497   2.131  1.8189  0.4828 -3.2365
 1271SOL     OW 3947   0.455   1.802   2.326 -0.1229 -0.1445  0.5451
 1271SOL    HW1 3948   0.373   1.763   2.357 -0.2402 -0.4275 -0.0958
 1271SOL    HW2 3949   0.428   1.885   2.287 -0.0979 -0.2113  0.3848
 1272SOL     OW 3950   1.286   2.401   2.204  0.2076  0.4093 -0.5096
 1272SOL    HW1 3951   1.240   2.362   2.129  0.8329  0.4901 -0.9468
 1272SOL    HW2 3952   1.323   2.482   2.170  1.5456 -0.1489 -0.4793
 1273SOL     OW 3953   0.168   3.180   3.648 -0.2334  0.2033 -0.4716
 1273SOL    HW1 3954   0.088   3.183   3.700 -0.9576 -1.5031 -1.4392
 1273SOL    HW2 3955   0.163   3.256   3.590 -0.9273  0.3488 -0.2238
 1274SOL     OW 3956   3.919   3.702   0.330  0.9847 -0.3874  0.3868
 1274SOL    HW1 3957   3.915   3.784   0.281  1.3401 -0.7668 -0.2977
 1274SOL    HW2 3958   3.969   3.723   0.409  0.4151  0.2324  0.5947
 1275SOL     OW 3959   3.072   3.425   0.470  0.4997  0.4269 -0.0898
 1275SOL    HW1 3960   3.022   3.431   0.389  0.6960  1.2358 -0.1636
 1275SOL    HW2 3961   3.018   3.373   0.529  0.2371  0.0609 -0.6494
 1276SOL     OW 3962   0.895   1.838   3.024  0.4080  0.5921  0.1593
 1276SOL    HW1 3963   0.986   1.867   3.032  0.4741  0.4304 -0.0079
 1276SOL    HW2 3964   0.851   1.876   3.100  0.3035  1.8747 -0.5086
 1277SOL     OW 3965   1.637   1.614   3.211 -0.2139  0.2107 -0.3070
 1277SOL    HW1 3966   1.636   1.652   3.299  2.8395  0.5418 -0.3268
 1277SOL    HW2 3967   1.613   1.522   3.225  1.5931 -0.1081  1.1421
 1278SOL     OW 3968   3.058   0.163   2.692  0.4137  0.2950  0.1721
 1278SOL    HW1 3969   3.043   0.068   2.692 -3.1975  0.7167 -0.8532
 1278SOL    HW2 3970   3.120   0.178   2.621 -0.9205 -1.1524 -1.3901
 1279SOL     OW 3971   1.052   3.219   1.010 -0.0930 -0.0722  0.4971
 1279SOL    HW1 3972   1.000   3.265   0.944 -0.1705  0.5023  0.9412
 1279SOL    HW2 3973   1.027   3.260   1.093  1.6978  0.8334  0.6474
 1280SOL     OW 3974   0.168   2.131   1.496 -0.1197 -0.0252 -0.6141
 1280SOL    HW1 3975   0.260   2.157   1.490  0.1359 -1.0366 -1.2801
 1280SOL    HW2 3976   0.161   2.088   1.581 -0.8075  3.0521  1.0409
 1281SOL     OW 3977   3.523   3.226   0.319  0.3223  0.2071 -0.4744
 1281SOL    HW1 3978   3.457   3.252   0.255  0.2104  1.4609  0.1347
 1281SOL    HW2 3979   3.539   3.133   0.300 -1.8030 -0.2184 -0.4871
 1282SOL     OW 3980   0.931   1.608   2.474 -0.2500 -0.3591 -0.4307
 1282SOL    HW1 3981   0.900   1.698   2.466  0.3420 -0.2445 -1.5690
 1282SOL    HW2 3982   0.853   1.555   2.459  0.0515 -0.0881 -3.8330
 1283SOL     OW 3983   2.402   1.342   2.730  0.0234 -0.5946  0.1045
 1283SOL    HW1 3984   2.344   1.266   2.729 -0.8766  0.0231  1.4378
 1283SOL    HW2 3985   2.364   1.400   2.797  2.2256 -0.1816  1.0953
 1284SOL     OW 3986   3.170   0.418   1.043  0.3252  0.3452  0.1996
 1284SOL    HW1 3987   3.251   0.458   1.012  0.0180  0.2795 -0.7230
 1284SOL    HW2 3988   3.197   0.339   1.088  0.6793 -0.8974 -2.0347
 1285SOL     OW 3989   2.314   0.344   3.048 -0.2604  0.4826 -0.3687
 1285SOL    HW1 3990   2.288   0.379   2.962 -0.0622 -1.1263 -1.1202
 1285SOL    HW2 3991   2.312   0.249   3.037  0.2137  0.2453  1.2967
 1286SOL     OW 3992   0.114   3.383   1.772 -0.5351  0.0112 -1.0697
 1286SOL    HW1 3993   0.036   3.365   1.824 -0.7830  1.4148 -0.9252
 1286SOL    HW2 3994   0.181   3.405   1.837 -0.9407  2.1346 -1.2843
 1287SOL     OW 3995   3.778   0.665   3.393  0.1582  0.5899  0.7018
 1287SOL    HW1 3996   3.839   0.670   3.466  0.5317 -2.2391  0.7147
 1287SOL    HW2 3997   3.832   0.685   3.316  0.0882  2.1937  1.0475
 1288SOL     OW 3998   0.010   1.520   2.554 -0.7046  0.4930  0.8013
 1288SOL    HW1 3999   0.058   1.437   2.564  0.4017  1.0240  0.0784
 1288SOL    HW2 4000  -0.024   1.517   2.465 -2.6473 -0.1673  1.5133
 1289SOL     OW 4001   0.837   2.150   2.960 -0.2896 -0.1050 -0.2904
 1289SOL    HW1 4002   0.777   2.129   2.889  0.0068  0.2981 -0.6693
 1289SOL    HW2 4003   0.879   2.067   2.981  0.1419 -0.1013 -1.0877
 1290SOL     OW 4004   3.845   0.312   1.006 -0.0041  0.1847  0.1815
 1290SOL    HW1 4005   3.938   0.322   1.024  0.0111  2.3017 -0.8424
 1290SOL    HW2 4006   3.820   0.391   0.959 -1.4048 -2.1208 -3.4560
 1291SOL     OW 4007   2.448   3.247   0.090 -0.2207 -0.2125  0.5217
 1291SOL    HW1 4008   2.492   3.193   0.024 -0.9071  1.0961 -1.0706
 1291SOL    HW2 4009   2.456   3.197   0.171  1.7383 -1.3059 -0.2784
 1292SOL     OW 4010   3.289   3.100   1.939 -0.1918  0.2630  0.1608
 1292SOL    HW1 4011   3.345   3.172   1.911 -0.6801  0.3015 -0.7624
 1292SOL    HW2 4012   3.312   3.086   2.031 -0.6320  2.1227  0.6103
 1293SOL     OW 4013   1.133   1.854   2.344  0.1393 -0.1974  0.3283
 1293SOL    HW1 4014   1.191   1.824   2.414  0.8854 -0.9915 -0.5968
 1293SOL    HW2 4015   1.053   1.804   2.357 -0.7092  1.4820  2.0977
 1294SOL     OW 4016   1.121   1.217   0.047 -0.0757 -0.0783  0.0676
 1294SOL    HW1 4017   1.191   1.263   0.092  0.7174 -1.5869  0.4158
 1294SOL    HW2 4018   1.156   1.198  -0.039 -0.9941  1.3391 -0.6609
 1295SOL     OW 4019   3.214   3.088   0.123 -0.4724  0.3610 -1.2279
 1295SOL    HW1 4020   3.148   3.157   0.128 -1.4881 -0.5225 -2.0190
 1295SOL    HW2 4021   3.173   3.012   0.164 -0.1393 -0.3356 -2.1534
 1296SOL     OW 4022   1.898   3.379   2.470  0.3332 -0.0477  0.0576
 1296SOL    HW1 4023   1.887   3.293   2.510 -3.2399  0.3112  0.1412
 1296SOL    HW2 4024   1.962   3.423   2.525 -0.0324 -1.6023  1.8316
 1297SOL     OW 4025   2.779   0.101   0.700 -1.0411  0.3587  0.2928
 1297SOL    HW1 4026   2.749   0.190   0.683 -2.5051 -0.4358 -1.5991
 1297SOL    HW2 4027   2.702   0.046   0.685 -0.5631 -1.1414  2.8772
 1298SOL     OW 4028   3.641   2.310   0.014  0.0499 -0.3579 -0.4982
 1298SOL    HW1 4029   3.551   2.306  -0.019 -0.5075  3.3829  0.0969
 1298SOL    HW2 4030   3.692   2.261  -0.049 -2.1901 -1.1979 -1.7695
 1299SOL     OW 4031   0.692   2.563   1.596  0.4049  0.0006 -0.0920
 1299SOL    HW1 4032   0.640   2.563   1.676  0.4332  0.9919 -0.0710
 1299SOL    HW2 4033   0.693   2.654   1.567  1.4609 -0.1308 -0.5198
 1300SOL     OW 4034   0.328   3.842   2.311  0.1953  0.3333 -0.4071
 1300SOL    HW1 4035   0.398   3.852   2.247  1.3133 -0.8970  0.5546
 1300SOL    HW2 4036   0.272   3.918   2.297  0.9169  0.5980 -2.1830
 1301SOL     OW 4037   1.784   1.703   2.966 -0.1409  0.1189  0.2102
 1301SOL    HW1 4038   1.740   1.657   3.038 -0.8378 -1.7213 -1.3174
 1301SOL    HW2 4039   1.860   1.744   3.007 -1.3970  0.4995  2.2818
 1302SOL     OW 4040   1.019   2.488   0.067 -0.2982 -0.4608  0.3774
 1302SOL    HW1 4041   1.001   2.426   0.137  0.6214 -0.0507  0.9954
 1302SOL    HW2 4042   0.933   2.520   0.041 -0.6314 -0.1455  1.7700
 1303SOL     OW 4043   3.355   2.489   1.891 -0.2558 -0.6479  0.4237
 1303SOL    HW1 4044   3.303   2.524   1.963 -0.7494 -2.2950  0.8906
 1303SOL    HW2 4045   3.291   2.465   1.824  0.2192  1.1780 -0.7554
 1304SOL     OW 4046   0.444   1.024   3.899 -0.0073  0.0763 -0.2632
 1304SOL    HW1 4047   0.495   1.000   3.976 -0.7679  0.6186  0.4270
 1304SOL    HW2 4048   0.503   1.079   3.847  0.1622  0.5927  0.4610
 1305SOL     OW 4049   0.753   0.182   3.231 -0.8014 -0.4935  0.2116
 1305SOL    HW1 4050   0.691   0.255   3.238 -1.3928 -1.0173  0.5737
 1305SOL    HW2 4051   0.733   0.143   3.146  2.0582  1.9972 -1.8263
 1306SOL     OW 4052   2.066   1.761   0.363  0.1926 -0.1121 -0.1996
 1306SOL    HW1 4053   2.070   1.850   0.400 -1.1426  0.5518 -1.5716
 1306SOL    HW2 4054   2.085   1.704   0.438  0.8166  1.3063  0.7752
 1307SOL     OW 4055   0.478   3.188   3.828  0.4516 -0.0695  0.4117
 1307SOL    HW1 4056   0.462   3.185   3.734  0.5595 -0.2448  0.3995
 1307SOL    HW2 4057   0.429   3.114   3.863 -1.6001  1.3729  0.7838
 1308SOL     OW 4058   1.603   0.932   0.205 -0.1149  0.5885  0.0468
 1308SOL    HW1 4059   1.634   0.930   0.114  0.3795 -1.8691  0.2024
 1308SOL    HW2 4060   1.631   0.848   0.241  0.3441  1.7968  2.7141
 1309SOL     OW 4061   1.004   2.736   0.362  0.3289  0.4826 -0.3471
 1309SOL    HW1 4062   0.967   2.724   0.274 -0.5106  0.4102  0.0138
 1309SOL    HW2 4063   0.940   2.696   0.421  1.2484 -0.1650  0.2491
 1310SOL     OW 4064   1.346   3.063   2.686 -0.6008  0.2483 -0.5493
 1310SOL    HW1 4065   1.396   3.069   2.767  1.0325 -0.8234 -1.4242
 1310SOL    HW2 4066   1.275   3.001   2.705 -0.3091  0.1124  0.0978
 1311SOL     OW 4067   2.444   0.883   2.250  0.2027 -0.3873  0.7166
 1311SOL    HW1 4068   2.436   0.969   2.290 -2.1744 -0.0767 -0.2751
 1311SOL    HW2 4069   2.501   0.896   2.174  2.2405 -0.3726  2.1446
 1312SOL     OW 4070   0.844   2.819   3.289  0.3366  0.4800 -0.1058
 1312SOL    HW1 4071   0.787   2.743   3.294  0.7266  0.1024 -1.0436
 1312SOL    HW2 4072   0.846   2.842   3.196  1.9247  0.2886 -0.1566
 1313SOL     OW 4073   0.577   3.093   3.367  0.6320 -0.6400 -0.1137
 1313SOL    HW1 4074   0.597   3.179   3.330 -1.1582 -0.5374 -0.9859
 1313SOL    HW2 4075   0.660   3.061   3.401  1.4757  1.1369 -0.3900
 1314SOL     OW 4076   2.799   1.359   3.127 -0.0641  0.0475  0.1430
 1314SOL    HW1 4077   2.770   1.370   3.037 -2.9663 -0.5047  0.9185
 1314SOL    HW2 4078   2.837   1.444   3.151  3.5942 -0.6367 -2.3830
 1315SOL     OW 4079   1.998   2.018   0.431 -0.0624 -0.5631  0.0758
 1315SOL    HW1 4080   1.994   2.100   0.382 -0.6277 -0.2135  0.6857
 1315SOL    HW2 4081   1.927   2.026   0.496 -0.2747 -1.6345 -0.0192
 1316SOL     OW 4082   2.451   2.522   0.519  0.7038  0.5320 -0.0042
 1316SOL    HW1 4083   2.361   2.541   0.548  1.2022  2.1098  0.6357
 1316SOL    HW2 4084   2.447   2.528   0.424  0.2409  1.1848  0.0464
 1317SOL     OW 4085   1.044   3.559   0.622 -0.0066 -0.4517 -0.1914
 1317SOL    HW1 4086   1.062   3.548   0.528 -1.5698  0.9437 -0.7091
 1317SOL    HW2 4087   0.962   3.608   0.624  0.8149  0.9312  1.9292
 1318SOL     OW 4088   2.705   2.490   1.430 -0.6320  0.2795  0.1218
 1318SOL    HW1 4089   2.657   2.423   1.478 -0.7744 -0.6450 -1.2824
 1318SOL    HW2 4090   2.742   2.445   1.354  0.8344  1.3913  0.1200
 1319SOL     OW 4091   2.708   3.088   1.665 -0.1234  0.6054  0.3526
 1319SOL    HW1 4092   2.691   3.169   1.713  0.7874  1.3556 -0.5187
 1319SOL    HW2 4093   2.739   3.118   1.579  4.2443 -0.5154  1.2725
 1320SOL     OW 4094   3.261   2.380   1.360 -0.0230  0.0338  0.4793
 1320SOL    HW1 4095   3.317   2.452   1.388 -0.4857  1.9414 -2.8989
 1320SOL    HW2 4096   3.321   2.307   1.347  0.8968  0.5853  1.4454
 1321SOL     OW 4097   0.514   2.989   3.053 -0.6230 -0.2184 -0.3439
 1321SOL    HW1 4098   0.531   2.916   3.112 -1.9440 -0.1749  0.1318
 1321SOL    HW2 4099   0.461   3.050   3.105 -0.8417  0.3556 -1.2116
 1322SOL     OW 4100   0.676   0.964   2.081  0.3042  0.3118 -0.6706
 1322SOL    HW1 4101   0.676   0.977   1.987  1.0156  1.2572 -0.5477
 1322SOL    HW2 4102   0.586   0.936   2.101 -0.2871  1.5787 -1.4287
 1323SOL     OW 4103   1.943   1.415   1.766 -0.1606  0.5259  0.3034
 1323SOL    HW1 4104   1.984   1.416   1.680 -0.3743 -1.2455  0.1410
 1323SOL    HW2 4105   1.978   1.337   1.809 -1.5034  0.3001  1.0769
 1324SOL     OW 4106   0.867   2.277   2.490  1.4187  0.2364  0.0802
 1324SOL    HW1 4107   0.867   2.269   2.585  2.3403  2.8197  0.3554
 1324SOL    HW2 4108   0.813   2.353   2.471  1.8968  0.2460 -1.4081
 1325SOL     OW 4109   3.788   3.830   3.619  0.6007  0.5669 -0.1251
 1325SOL    HW1 4110   3.763   3.880   3.696 -0.2898  2.1450 -1.3877
 1325SOL    HW2 4111   3.729   3.754   3.620  0.7690  0.4398  0.8638
 1326SOL     OW 4112   2.248   1.308   3.887 -0.3929  0.5416  0.5141
 1326SOL    HW1 4113   2.322   1.261   3.849 -1.1366  0.1846 -0.5552
 1326SOL    HW2 4114   2.243   1.389   3.836 -0.4280  0.7956  0.9186
 1327SOL     OW 4115   0.891   1.522   0.650 -0.0771 -0.4826  0.4952
 1327SOL    HW1 4116   0.819   1.520   0.713  0.4112  3.2575  1.4139
 1327SOL    HW2 4117   0.970   1.533   0.704  0.7135 -0.4005 -0.6395
 1328SOL     OW 4118   3.620   0.314   1.498  0.2204 -0.3603 -0.0441
 1328SOL    HW1 4119   3.529   0.287   1.512 -1.2372  3.2809 -1.3834
 1328SOL    HW2 4120   3.635   0.299   1.404  1.1217 -1.0588  0.1908
 1329SOL     OW 4121   3.940   2.735   0.563 -0.1776  0.3660 -0.7935
 1329SOL    HW1 4122   3.933   2.642   0.540  2.3839 -0.4021  1.0928
 1329SOL    HW2 4123   4.033   2.749   0.579 -0.8672  2.4386  2.1124
 1330SOL     OW 4124   0.110   2.444   2.056  0.6789 -0.1978 -0.2728
 1330SOL    HW1 4125   0.131   2.518   2.000  0.0873 -0.9074 -1.4712
 1330SOL    HW2 4126   0.191   2.393   2.061  0.3757 -0.8695 -1.6737
 1331SOL     OW 4127   2.685   2.587   3.597  0.1932 -0.1568  0.3482
 1331SOL    HW1 4128   2.628   2.647   3.645 -0.6375  0.7382 -1.6283
 1331SOL    HW2 4129   2.625   2.531   3.548  1.0011 -0.7552  0.0271
 1332SOL     OW 4130   1.921   1.202   2.976 -0.4434 -0.0965  0.3470
 1332SOL    HW1 4131   1.955   1.286   2.944  0.0714 -0.5519 -0.3126
 1332SOL    HW2 4132   1.948   1.201   3.068 -0.6465  0.5604  0.4228
 1333SOL     OW 4133   2.180   0.695   0.199 -0.0658  0.1345  0.0427
 1333SOL    HW1 4134   2.214   0.639   0.129 -3.1649  1.6592 -2.9712
 1333SOL    HW2 4135   2.251   0.757   0.217  2.1484 -2.4624  1.0332
 1334SOL     OW 4136   3.524   2.422   0.741  0.0808  0.0934  0.5262
 1334SOL    HW1 4137   3.539   2.493   0.679  1.8610 -1.3128 -0.7522
 1334SOL    HW2 4138   3.494   2.466   0.821  0.2860  2.1880 -0.4885
 1335SOL     OW 4139   0.328   0.666   1.304 -0.4062  0.0898 -0.3234
 1335SOL    HW1 4140   0.300   0.737   1.247 -2.9562 -2.0475 -1.9864
 1335SOL    HW2 4141   0.355   0.596   1.245  1.8241 -0.5104  1.2458
 1336SOL     OW 4142   3.089   1.027   2.781 -0.3643  0.1423 -0.3815
 1336SOL    HW1 4143   3.182   1.007   2.781  0.0737  1.7184 -2.7325
 1336SOL    HW2 4144   3.074   1.072   2.864  1.0284  0.0426 -0.0500
 1337SOL     OW 4145   1.189   2.517   1.603 -0.2233 -0.1036 -0.0920
 1337SOL    HW1 4146   1.173   2.433   1.560  1.5642  0.3057 -1.7463
 1337SOL    HW2 4147   1.138   2.580   1.552 -0.1800  0.0319  0.0313
 1338SOL     OW 4148   0.928   3.319   1.237 -1.2170  0.0169  0.6121
 1338SOL    HW1 4149   0.959   3.271   1.314  0.3854  2.1940  1.4263
 1338SOL    HW2 4150   0.895   3.402   1.273 -1.4307  0.6400 -0.9701
 1339SOL     OW 4151   1.941   3.414   1.255  0.0697 -0.1536  0.3912
 1339SOL    HW1 4152   1.954   3.453   1.342 -2.1797 -1.4310  1.3648
 1339SOL    HW2 4153   1.884   3.476   1.210  0.4159  0.0051  0.1611
 1340SOL     OW 4154   3.354   2.189   0.710  0.3852  0.0056  0.2801
 1340SOL    HW1 4155   3.404   2.270   0.717  0.7103 -0.1419 -0.2481
 1340SOL    HW2 4156   3.336   2.163   0.800  1.4203 -0.0355  0.4791
 1341SOL     OW 4157   2.930   2.857   1.249  0.1083  0.5537  0.2667
 1341SOL    HW1 4158   2.990   2.872   1.321  1.4585  0.9865 -0.9095
 1341SOL    HW2 4159   2.981   2.874   1.170 -0.3260 -3.0263 -0.9829
 1342SOL     OW 4160   2.571   2.199   1.488 -0.3646  0.0445 -0.3045
 1342SOL    HW1 4161   2.480   2.220   1.506 -1.0676 -0.2298 -3.0708
 1342SOL    HW2 4162   2.567   2.134   1.418  1.9581 -1.7583  1.0819
 1343SOL     OW 4163   2.368   3.810   1.132  0.1726 -0.2316  0.7623
 1343SOL    HW1 4164   2.401   3.798   1.043 -0.8465 -1.5353  0.5166
 1343SOL    HW2 4165   2.385   3.727   1.176  1.1826  0.5940  1.9862
 1344SOL     OW 4166   2.118   0.623   3.683 -0.1769  0.2893 -0.2301
 1344SOL    HW1 4167   2.155   0.579   3.607  0.1621  0.6588 -0.2798
 1344SOL    HW2 4168   2.064   0.556   3.725 -2.4135  0.7266 -2.1590
 1345SOL     OW 4169   1.309   3.779   2.168 -0.7490 -0.0118  0.5867
 1345SOL    HW1 4170   1.340   3.870   2.169 -0.9020  0.0885 -0.8200
 1345SOL    HW2 4171   1.383   3.729   2.202 -0.9262  0.6956  2.0630
 1346SOL     OW 4172   3.130   1.436   3.556 -0.3231 -0.4307 -0.8954
 1346SOL    HW1 4173   3.113   1.515   3.606  0.3295  0.0449 -1.4077
 1346SOL    HW2 4174   3.177   1.466   3.478  0.8759 -1.4309 -0.5939
 1347SOL     OW 4175   1.213   3.455   1.775 -0.6707  0.1609 -0.8589
 1347SOL    HW1 4176   1.222   3.520   1.706  0.2812  1.7366  0.6807
 1347SOL    HW2 4177   1.193   3.506   1.854 -1.2343 -1.5330  0.1566
 1348SOL     OW 4178   2.826   3.070   2.729 -0.1196 -0.3426 -0.0495
 1348SOL    HW1 4179   2.864   2.997   2.680 -1.1108 -0.2073 -1.0673
 1348SOL    HW2 4180   2.748   3.033   2.769 -0.8234  0.2253 -0.8604
 1349SOL     OW 4181   3.499   2.115   1.689 -0.0682 -0.3030  0.0859
 1349SOL    HW1 4182   3.499   2.161   1.605 -0.5971  0.0441  0.2718
 1349SOL    HW2 4183   3.541   2.175   1.750  0.9706 -0.8413 -0.0702
 1350SOL     OW 4184   1.278   1.759   2.552  0.7533 -0.0832 -0.9140
 1350SOL    HW1 4185   1.238   1.675   2.576 -1.8859  1.4837  0.6511
 1350SOL    HW2 4186   1.365   1.756   2.592  0.1719 -1.5208  0.3512
 1351SOL     OW 4187   2.713   0.456   3.348 -0.2773 -0.1956 -0.0182
 1351SOL    HW1 4188   2.725   0.417   3.434 -0.4371 -3.1509 -1.2337
 1351SOL    HW2 4189   2.629   0.423   3.318  0.4100 -0.3900 -1.8621
 1352SOL     OW 4190   2.488   1.253   0.534  0.2313  0.0424 -0.1033
 1352SOL    HW1 4191   2.461   1.310   0.606 -0.8185  0.0855 -0.5236
 1352SOL    HW2 4192   2.584   1.255   0.537  0.2045 -0.2086  1.4823
 1353SOL     OW 4193   3.385   1.381   1.443 -0.4350  0.0923 -0.2897
 1353SOL    HW1 4194   3.427   1.464   1.425 -1.7800  1.2365  1.4916
 1353SOL    HW2 4195   3.347   1.391   1.531  1.4266 -3.2348  1.1074
 1354SOL     OW 4196   1.672   0.946   1.481  0.0706  0.2641  0.3544
 1354SOL    HW1 4197   1.635   0.884   1.419  4.1215 -0.0785 -2.0644
 1354SOL    HW2 4198   1.638   1.031   1.453  1.6256  0.0977 -2.3680
 1355SOL     OW 4199   0.007   0.783   1.268 -0.4278 -0.7220  0.0097
 1355SOL    HW1 4200  -0.068   0.840   1.250  0.1207 -0.6078 -2.1871
 1355SOL    HW2 4201  -0.003   0.710   1.207  1.0407 -0.9066 -0.0425
 1356SOL     OW 4202   3.921   0.944   2.230 -0.0265 -0.2586  0.1790
 1356SOL    HW1 4203   4.005   0.958   2.273 -0.2350 -0.1246  0.5485
 1356SOL    HW2 4204   3.934   0.866   2.176 -0.0093 -0.9156  1.1251
 1357SOL     OW 4205   3.056   1.717   1.950 -0.8182  0.5461  0.1451
 1357SOL    HW1 4206   3.141   1.739   1.911 -0.9321 -1.8525 -1.6658
 1357SOL    HW2 4207   2.996   1.782   1.914  0.0266  1.5699  0.5366
 1358SOL     OW 4208   2.570   0.512   2.152  0.2129 -0.0465  0.0431
 1358SOL    HW1 4209   2.661   0.487   2.137  0.3459 -0.4248  1.3881
 1358SOL    HW2 4210   2.565   0.603   2.123  1.1179  0.0936  0.3036
 1359SOL     OW 4211   3.354   1.796   0.531  0.1021 -0.3605 -0.4128
 1359SOL    HW1 4212   3.284   1.737   0.502  0.5136 -0.8423 -0.4421
 1359SOL    HW2 4213   3.308   1.871   0.568 -0.4340 -0.4525 -0.8694
 1360SOL     OW 4214   1.249   0.520   2.431  0.2479  0.6991  0.0476
 1360SOL    HW1 4215   1.305   0.444   2.444 -2.1771 -0.6165  5.7514
 1360SOL    HW2 4216   1.174   0.487   2.381  1.2547  0.6951 -1.5278
 1361SOL     OW 4217   2.211   3.655   2.368  0.0761 -0.3538 -0.7421
 1361SOL    HW1 4218   2.151   3.590   2.406 -0.5753  0.2045 -0.7884
 1361SOL    HW2 4219   2.232   3.714   2.440 -2.4646  1.6836 -1.4888
 1362SOL     OW 4220   0.902   0.159   0.882  0.0117 -0.3931  0.0726
 1362SOL    HW1 4221   0.986   0.162   0.837  0.1108 -0.6798  0.2344
 1362SOL    HW2 4222   0.924   0.154   0.975 -0.1893  2.8087  0.3892
 1363SOL     OW 4223   3.149   2.081   0.542  0.2721 -0.3687 -0.1262
 1363SOL    HW1 4224   3.141   2.138   0.465 -1.9252  2.2829  1.8217
 1363SOL    HW2 4225   3.221   2.119   0.592 -0.7411  0.3470  0.8437
 1364SOL     OW 4226   2.839   0.021   2.389 -0.1302  0.2483  0.1967
 1364SOL    HW1 4227   2.856  -0.063   2.431  0.7203  0.0362 -0.5376
 1364SOL    HW2 4228   2.805  -0.002   2.302 -1.5574  0.6766  0.6013
 1365SOL     OW 4229   3.726   0.029   0.358 -0.3315  0.0097  0.2414
 1365SOL    HW1 4230   3.815   0.002   0.335 -0.7941 -0.7865 -0.6750
 1365SOL    HW2 4231   3.685   0.048   0.274  0.2185  4.6815  0.7658
 1366SOL     OW 4232   1.611   0.273   2.350  0.3237 -0.0386 -0.4437
 1366SOL    HW1 4233   1.695   0.241   2.316  0.0801 -0.1563 -0.9347
 1366SOL    HW2 4234   1.608   0.365   2.325  1.0089  0.3893  0.9400
 1367SOL     OW 4235   1.680   1.501   1.112  0.2499  0.1658  0.1603
 1367SOL    HW1 4236   1.625   1.434   1.070 -0.5426  0.0010  1.3991
 1367SOL    HW2 4237   1.617   1.566   1.144  0.8022  0.2023  1.2090
 1368SOL     OW 4238   1.651   2.516   3.859  0.2269 -0.0541  0.3910
 1368SOL    HW1 4239   1.625   2.466   3.782  1.5594  1.0066 -0.7892
 1368SOL    HW2 4240   1.651   2.607   3.830 -1.2676  0.6076  2.2354
 1369SOL     OW 4241   0.669   1.574   2.428 -0.5534 -0.6680  0.0623
 1369SOL    HW1 4242   0.636   1.607   2.344 -0.6990 -1.8908 -0.3857
 1369SOL    HW2 4243   0.593   1.576   2.486 -0.3652  0.5356  0.2961
 1370SOL     OW 4244   3.674   0.028   0.618 -0.0397 -0.2490  0.4332
 1370SOL    HW1 4245   3.721  -0.051   0.644  1.0764  0.4676  0.6547
 1370SOL    HW2 4246   3.702   0.044   0.528  2.1571  1.5459  1.3342
 1371SOL     OW 4247   0.957   3.566   2.353 -0.2921  0.0117  0.2661
 1371SOL    HW1 4248   1.018   3.527   2.415 -0.9596  0.4460  1.2340
 1371SOL    HW2 4249   0.996   3.651   2.332  0.4277 -0.5353 -0.7053
 1372SOL     OW 4250   2.622   0.446   3.839 -0.3348  0.2862 -0.3194
 1372SOL    HW1 4251   2.615   0.352   3.854  1.9863  0.1929  0.4863
 1372SOL    HW2 4252   2.632   0.483   3.927 -0.1628  1.1777 -0.7113
 1373SOL     OW 4253   0.968   3.224   0.093 -0.1899 -0.3199 -0.4720
 1373SOL    HW1 4254   0.987   3.189   0.180 -0.9189  2.0919  0.7491
 1373SOL    HW2 4255   0.904   3.163   0.056 -0.2969 -1.0934  0.9135
 1374SOL     OW 4256   1.541   3.766   2.906  0.4712  0.4328  0.5738
 1374SOL    HW1 4257   1.540   3.859   2.926 -0.6620  0.9046 -1.4001
 1374SOL    HW2 4258   1.489   3.725   2.975  0.2647  1.3721  0.9776
 1375SOL     OW 4259   3.726   2.377   1.948  0.1250  0.0679  0.2260
 1375SOL    HW1 4260   3.647   2.324   1.959 -1.0729  1.4824 -1.0896
 1375SOL    HW2 4261   3.782   2.327   1.888  0.6421 -1.3237  1.8062
 1376SOL     OW 4262   1.621   2.010   2.336 -0.3130  0.7293  0.0884
 1376SOL    HW1 4263   1.603   2.066   2.411 -1.6411 -0.3768  0.6238
 1376SOL    HW2 4264   1.569   2.048   2.265 -0.6582  0.5918  0.2668
 1377SOL     OW 4265   0.881   0.772   0.743 -0.0603 -0.3580  0.3833
 1377SOL    HW1 4266   0.950   0.711   0.719 -0.5604 -1.3808  1.4488
 1377SOL    HW2 4267   0.803   0.717   0.753 -0.6337  0.5231  0.8700
 1378SOL     OW 4268   2.683   1.987   2.485 -0.0072  0.2912  0.2454
 1378SOL    HW1 4269   2.610   1.939   2.524  0.7847 -2.4673 -1.4366
 1378SOL    HW2 4270   2.655   2.006   2.396  0.5350  1.1276  0.2375
 1379SOL     OW 4271   3.355   0.486   2.765  0.1101 -0.8421  0.3691
 1379SOL    HW1 4272   3.268   0.496   2.726  0.3083 -1.7421 -0.3387
 1379SOL    HW2 4273   3.343   0.419   2.832  0.0691 -0.2933  0.9193
 1380SOL     OW 4274   2.954   0.337   2.917 -0.3671 -0.6016  0.4982
 1380SOL    HW1 4275   2.998   0.317   2.835 -1.2935 -0.6575  0.0001
 1380SOL    HW2 4276   2.954   0.254   2.965  0.9724 -0.3587  0.9657
 1381SOL     OW 4277   0.251   2.726   0.571 -0.1602  0.2677 -0.0221
 1381SOL    HW1 4278   0.343   2.709   0.591 -0.4458  1.1006  2.2355
 1381SOL    HW2 4279   0.254   2.800   0.510  0.6677  0.6197  0.4213
 1382SOL     OW 4280   1.198   2.572   1.912  0.7091  0.0564  0.0899
 1382SOL    HW1 4281   1.254   2.528   1.848  1.1951 -3.0502  2.4193
 1382SOL    HW2 4282   1.118   2.519   1.914  0.9779 -0.3646  2.4658
 1383SOL     OW 4283   3.849   0.797   0.827 -0.4091  0.0448  0.3641
 1383SOL    HW1 4284   3.796   0.842   0.761 -1.2824 -1.8890 -0.3370
 1383SOL    HW2 4285   3.939   0.807   0.795 -0.5849  1.0777  0.1311
 1384SOL     OW 4286   2.104   1.832   3.134 -0.2065  0.5877  0.3216
 1384SOL    HW1 4287   2.118   1.757   3.191 -0.9094  0.4813  0.3638
 1384SOL    HW2 4288   2.055   1.895   3.189  1.2045  1.4881  0.6048
 1385SOL     OW 4289   3.157   2.585   2.064 -0.2082 -0.1051 -0.3008
 1385SOL    HW1 4290   3.068   2.550   2.068 -0.1308 -0.2921 -0.1936
 1385SOL    HW2 4291   3.156   2.661   2.122 -0.3697  0.0528 -0.5100
 1386SOL     OW 4292   3.388   2.998   3.415  0.3179  0.0381  0.0067
 1386SOL    HW1 4293   3.335   2.970   3.341 -1.0907  0.0713  0.9771
 1386SOL    HW2 4294   3.349   2.955   3.490 -0.3156  2.5460  1.2067
 1387SOL     OW 4295   2.173   1.917   3.612 -0.2577 -0.0726  0.4867
 1387SOL    HW1 4296   2.188   1.839   3.559  1.2896 -0.6702  1.7011
 1387SOL    HW2 4297   2.167   1.883   3.702 -0.0120  1.1530  0.9785
 1388SOL     OW 4298   3.361   3.524   1.346  0.0955  0.0204 -0.0933
 1388SOL    HW1 4299   3.376   3.436   1.379 -0.7093  0.2295  0.8532
 1388SOL    HW2 4300   3.408   3.581   1.407  0.6780  0.2573 -0.7436
 1389SOL     OW 4301   3.942   3.375   0.576 -0.3119  0.3048  0.0642
 1389SOL    HW1 4302   3.862   3.349   0.530  0.0431  0.7839 -0.8575
 1389SOL    HW2 4303   4.013   3.332   0.528 -0.0306 -0.5122  1.1609
 1390SOL     OW 4304   1.380   0.644   1.272  0.1518  0.2679 -0.2307
 1390SOL    HW1 4305   1.307   0.631   1.212 -1.4228  4.2467  0.5388
 1390SOL    HW2 4306   1.360   0.588   1.347 -2.8121  1.9678  0.4077
 1391SOL     OW 4307   1.317   0.204   1.471  0.6579 -0.0139  0.3226
 1391SOL    HW1 4308   1.307   0.162   1.557  0.5255 -0.4063  0.1172
 1391SOL    HW2 4309   1.332   0.131   1.410  2.2523  0.3624  0.2259
 1392SOL     OW 4310   2.021   1.131   1.974 -0.1450  0.4874 -0.3365
 1392SOL    HW1 4311   1.937   1.134   2.020  1.1331  0.1139  2.2140
 1392SOL    HW2 4312   2.079   1.084   2.034  2.1950  1.7885 -1.4452
 1393SOL     OW 4313   0.669   2.107   2.752 -0.2432 -0.4723 -0.4386
 1393SOL    HW1 4314   0.689   2.030   2.699 -5.0745 -2.0470 -0.5194
 1393SOL    HW2 4315   0.635   2.171   2.689 -1.6679 -0.5698  0.1988
 1394SOL     OW 4316   2.459   1.501   0.388  0.1726 -0.1499  0.4287
 1394SOL    HW1 4317   2.534   1.545   0.427 -0.1115  0.0394  0.7691
 1394SOL    HW2 4318   2.484   1.409   0.386  1.3590  0.1714 -1.6204
 1395SOL     OW 4319   2.576   3.822   2.961  0.5024  0.2639  0.2172
 1395SOL    HW1 4320   2.647   3.798   2.901 -1.2246 -1.8872 -1.1035
 1395SOL    HW2 4321   2.610   3.799   3.048  1.8771  0.4735 -0.2353
 1396SOL     OW 4322   1.295   3.339   2.728 -0.2980  0.1807  0.3019
 1396SOL    HW1 4323   1.231   3.334   2.799  0.3817  0.9290  0.9694
 1396SOL    HW2 4324   1.324   3.248   2.716  0.3755  0.1830  1.7134
 1397SOL     OW 4325   3.336   1.993   2.021  0.0212  0.4009  0.2478
 1397SOL    HW1 4326   3.250   2.026   2.048 -0.9488 -2.0533  0.3453
 1397SOL    HW2 4327   3.317   1.928   1.953  1.8201 -0.1390  0.2175
 1398SOL     OW 4328   3.459   3.026   2.143 -0.2624 -0.1699 -0.1550
 1398SOL    HW1 4329   3.448   2.949   2.087 -0.0966  1.1064 -2.0489
 1398SOL    HW2 4330   3.546   3.059   2.122 -0.8768  1.3402 -0.4753
 1399SOL     OW 4331   1.798   0.464   3.274 -0.1224 -0.3482 -0.0005
 1399SOL    HW1 4332   1.762   0.420   3.197  0.6918 -0.7365 -0.1659
 1399SOL    HW2 4333   1.856   0.532   3.237  3.1540 -2.8114  0.1549
 1400SOL     OW 4334   0.615   3.580   3.924 -0.0363  0.5582 -0.1983
 1400SOL    HW1 4335   0.529   3.553   3.959  1.0523 -3.2820 -0.0868
 1400SOL    HW2 4336   0.606   3.572   3.829  0.0815  0.5635 -0.2095
 1401SOL     OW 4337   1.516   1.597   2.052 -0.3039 -0.3713  0.4867
 1401SOL    HW1 4338   1.551   1.625   1.968 -1.7788  0.8630  0.2493
 1401SOL    HW2 4339   1.572   1.640   2.117 -0.5569  0.4899  0.1323
 1402SOL     OW 4340   0.110   2.420   1.261  0.3062  0.5816  0.7415
 1402SOL    HW1 4341   0.025   2.377   1.269  0.4582 -0.1372 -1.0616
 1402SOL    HW2 4342   0.095   2.509   1.291 -0.3727 -0.2518  3.1924
 1403SOL     OW 4343   0.705   3.137   1.110 -0.5992  0.5415  0.7780
 1403SOL    HW1 4344   0.792   3.135   1.150 -0.1647  0.7613 -0.1098
 1403SOL    HW2 4345   0.723   3.158   1.018 -1.6672  1.7125  0.8070
 1404SOL     OW 4346   0.125   1.359   1.512 -0.9705 -0.4646 -0.3438
 1404SOL    HW1 4347   0.049   1.320   1.468 -0.3092 -0.5233 -1.4806
 1404SOL    HW2 4348   0.105   1.452   1.517 -0.1401 -0.0483 -2.8964
 1405SOL     OW 4349   1.932   1.908   1.965  0.3097 -0.3348 -0.0127
 1405SOL    HW1 4350   2.016   1.925   2.008  0.4513 -2.8222  0.8756
 1405SOL    HW2 4351   1.952   1.840   1.901 -1.1395 -1.4952  0.7243
 1406SOL     OW 4352   3.770   3.845   1.876 -0.0731 -0.2918  0.1481
 1406SOL    HW1 4353   3.844   3.784   1.883 -1.3357 -2.0985 -1.2504
 1406SOL    HW2 4354   3.755   3.874   1.966  1.1719 -1.3205  0.7261
 1407SOL     OW 4355   0.620   0.962   0.735  0.2671  0.8827  0.4668
 1407SOL    HW1 4356   0.527   0.982   0.733 -0.3539 -1.6130 -0.0638
 1407SOL    HW2 4357   0.651   0.981   0.646 -0.2764 -0.2846  0.0037
 1408SOL     OW 4358   0.852   0.889   1.498  0.4414  0.0576  0.6349
 1408SOL    HW1 4359   0.908   0.885   1.576 -1.1678  2.2704  2.0467
 1408SOL    HW2 4360   0.763   0.888   1.533 -0.3215  0.9729 -1.1860
 1409SOL     OW 4361   2.173   2.263   2.472 -0.1720  0.1470  0.1586
 1409SOL    HW1 4362   2.255   2.305   2.500 -0.6411  0.8325  0.5479
 1409SOL    HW2 4363   2.177   2.175   2.509 -0.0082  0.4766  0.9509
 1410SOL     OW 4364   3.063   2.879   1.483 -0.0369  0.0230 -0.3193
 1410SOL    HW1 4365   3.079   2.941   1.554 -1.0387  1.7674 -1.5508
 1410SOL    HW2 4366   3.042   2.797   1.528 -0.3822  0.9888  1.3901
 1411SOL     OW 4367   3.822   0.469   0.763 -0.1168  0.6622 -1.1562
 1411SOL    HW1 4368   3.914   0.465   0.736  0.7930 -0.2419  1.6311
 1411SOL    HW2 4369   3.816   0.550   0.814  0.3120 -1.1185  1.9956
 1412SOL     OW 4370   0.969   1.420   0.140  0.1673 -0.3905 -0.3963
 1412SOL    HW1 4371   1.005   1.347   0.089  2.3739  0.2200  0.1763
 1412SOL    HW2 4372   0.959   1.491   0.077 -0.2647 -0.6438 -0.6127
 1413SOL     OW 4373   0.076   2.232   2.602 -0.0492 -0.6930 -0.1640
 1413SOL    HW1 4374   0.027   2.251   2.522  1.7906 -0.0492 -1.1923
 1413SOL    HW2 4375   0.163   2.268   2.587  0.7881 -1.8104  1.5738
 1414SOL     OW 4376   0.204   2.957   2.969 -0.0357  0.5539  0.0856
 1414SOL    HW1 4377   0.246   2.995   2.892 -1.7991  2.5788  0.0450
 1414SOL    HW2 4378   0.113   2.946   2.945 -0.1969 -0.8467  1.1980
 1415SOL     OW 4379   1.815   0.391   0.288  0.1967  0.0191  0.0584
 1415SOL    HW1 4380   1.819   0.436   0.372  0.0691  0.0054  0.0713
 1415SOL    HW2 4381   1.830   0.299   0.308  1.4604  0.1779 -0.0792
 1416SOL     OW 4382   0.234   0.373   2.282 -0.5286  0.4901  0.7799
 1416SOL    HW1 4383   0.290   0.403   2.211  2.0398  1.0633  2.8791
 1416SOL    HW2 4384   0.193   0.293   2.248  1.7105 -0.0466 -0.8831
 1417SOL     OW 4385   0.289   1.319   3.914  0.4920 -0.3352  0.5669
 1417SOL    HW1 4386   0.364   1.374   3.890  1.3402 -0.0393  3.4848
 1417SOL    HW2 4387   0.326   1.231   3.921 -0.0558 -0.6675 -0.5176
 1418SOL     OW 4388   2.375   0.157   0.440  0.6631  0.0355  0.0785
 1418SOL    HW1 4389   2.396   0.217   0.511 -0.9563  0.1829  0.4700
 1418SOL    HW2 4390   2.281   0.167   0.427  0.4033 -2.1615 -0.0792
 1419SOL     OW 4391   1.657   1.862   2.072  0.1385  0.1855  0.0306
 1419SOL    HW1 4392   1.739   1.885   2.028  0.5678 -2.5578 -0.8103
 1419SOL    HW2 4393   1.682   1.851   2.164  0.8787 -1.1541 -0.3044
 1420SOL     OW 4394   3.800   1.320   0.096  0.4522 -0.4284 -0.9251
 1420SOL    HW1 4395   3.806   1.412   0.070 -0.6381 -0.4613 -1.3294
 1420SOL    HW2 4396   3.884   1.301   0.137  0.3391  1.0232  0.0381
 1421SOL     OW 4397   3.336   1.238   0.844  0.2083 -0.0800  0.1724
 1421SOL    HW1 4398   3.341   1.177   0.771  0.6927  1.9589 -1.5866
 1421SOL    HW2 4399   3.341   1.324   0.804  0.3531  1.1385  2.6237
 1422SOL     OW 4400   2.935   3.167   1.138 -0.1862 -0.7270  0.1240
 1422SOL    HW1 4401   2.992   3.102   1.097  2.1028  1.5498 -0.5843
 1422SOL    HW2 4402   2.881   3.200   1.067  1.7062  1.0921 -0.6065
 1423SOL     OW 4403   2.020   2.521   0.971 -0.1625 -0.0822 -0.2176
 1423SOL    HW1 4404   2.000   2.427   0.962 -1.3889  0.2577 -1.4800
 1423SOL    HW2 4405   2.013   2.555   0.881  1.9040  0.9328 -0.0405
 1424SOL     OW 4406   0.164   1.289   2.566  0.5955 -0.6352  0.1117
 1424SOL    HW1 4407   0.175   1.234   2.488  1.6336 -0.4817  0.1379
 1424SOL    HW2 4408   0.197   1.236   2.638 -1.0348 -1.0611  0.5891
 1425SOL     OW 4409   3.502   3.715   1.553 -0.5340 -0.0652 -0.7311
 1425SOL    HW1 4410   3.568   3.725   1.484 -1.7830  1.0625 -1.8026
 1425SOL    HW2 4411   3.508   3.796   1.603 -0.1691 -0.5525  0.0254
 1426SOL     OW 4412   0.703   2.828   3.603  0.3629 -0.2023  0.2313
 1426SOL    HW1 4413   0.657   2.821   3.519  2.3906  1.0481 -1.0816
 1426SOL    HW2 4414   0.736   2.918   3.604  1.5013 -0.5992  1.7696
 1427SOL     OW 4415   1.532   3.740   1.929  0.4568 -0.2416  0.2445
 1427SOL    HW1 4416   1.556   3.697   2.011 -0.6113  0.9883  1.2361
 1427SOL    HW2 4417   1.613   3.784   1.901  0.5754  0.1607  1.1791
 1428SOL     OW 4418   3.079   3.097   3.377 -0.1780 -0.1798  0.2755
 1428SOL    HW1 4419   2.999   3.145   3.357 -0.5783 -0.5842  0.8960
 1428SOL    HW2 4420   3.149   3.154   3.344 -0.7533 -0.3308 -1.2800
 1429SOL     OW 4421   2.451   2.575   0.255 -0.1465  0.8202 -0.0790
 1429SOL    HW1 4422   2.424   2.649   0.201  0.8074  0.0991 -1.5955
 1429SOL    HW2 4423   2.506   2.522   0.198  0.4267 -0.2852  1.4315
 1430SOL     OW 4424   2.080   1.800   1.195  0.2403  0.1179  0.0859
 1430SOL    HW1 4425   2.148   1.733   1.185 -1.8911 -2.1904  0.2825
 1430SOL    HW2 4426   2.031   1.798   1.114  0.0244  1.3789  0.1589
 1431SOL     OW 4427   2.229   1.133   3.523 -0.5867 -0.3330 -0.5440
 1431SOL    HW1 4428   2.195   1.104   3.438  0.2192  0.5096 -1.1831
 1431SOL    HW2 4429   2.295   1.199   3.500 -0.4083 -0.0481  0.7483
 1432SOL     OW 4430   3.477   1.879   2.594  1.3155 -0.1664 -0.0545
 1432SOL    HW1 4431   3.486   1.932   2.674  0.8225 -1.3106  0.7912
 1432SOL    HW2 4432   3.383   1.862   2.587  1.3881 -0.3368 -0.7134
 1433SOL     OW 4433   0.294   0.078   0.244 -0.2270 -0.3133 -0.8741
 1433SOL    HW1 4434   0.316   0.084   0.151  2.8443  1.3509 -0.1707
 1433SOL    HW2 4435   0.346   0.005   0.276 -0.8788 -0.5477 -0.3334
 1434SOL     OW 4436   1.829   2.427   1.295  0.6185 -0.0624  0.7424
 1434SOL    HW1 4437   1.902   2.487   1.281  0.7305 -0.5530 -1.0302
 1434SOL    HW2 4438   1.755   2.469   1.251  0.4483 -0.7297  0.3810
 1435SOL     OW 4439   1.879   2.683   3.457 -0.8684  0.4309 -0.1560
 1435SOL    HW1 4440   1.921   2.744   3.518 -0.0707  0.0017 -0.2623
 1435SOL    HW2 4441   1.905   2.596   3.488  1.2654  0.2238 -2.2644
 1436SOL     OW 4442   3.741   3.083   2.798 -0.3242  0.3649  0.1149
 1436SOL    HW1 4443   3.677   3.079   2.727 -0.1190 -2.6535 -0.0329
 1436SOL    HW2 4444   3.799   3.155   2.774 -2.5386  1.9756 -0.6908
 1437SOL     OW 4445   2.045   2.508   2.454  0.5461 -0.7232 -0.3614
 1437SOL    HW1 4446   1.995   2.503   2.373  1.5122 -0.5101 -0.9974
 1437SOL    HW2 4447   2.078   2.419   2.467  1.6999 -0.4346 -1.0953
 1438SOL     OW 4448   3.073   0.009   3.640  0.0062  0.4365 -0.3603
 1438SOL    HW1 4449   3.083   0.044   3.729  2.2793  0.3215 -0.5184
 1438SOL    HW2 4450   3.051   0.085   3.587 -0.0858  0.7301  0.0912
 1439SOL     OW 4451   0.834   1.842   2.316 -1.0247  0.4536  0.1499
 1439SOL    HW1 4452   0.776   1.911   2.283 -2.4073 -0.6706  0.1683
 1439SOL    HW2 4453   0.867   1.799   2.236 -2.2531 -0.5336  0.1421
 1440SOL     OW 4454   0.128   0.216   1.084 -0.2867 -0.0965 -0.5644
 1440SOL    HW1 4455   0.179   0.139   1.060 -0.7751 -0.8214  0.6142
 1440SOL    HW2 4456   0.160   0.238   1.172 -1.8506 -0.4565  0.1185
 1441SOL     OW 4457   3.747   3.730   0.597 -0.1773 -0.1391 -0.4134
 1441SOL    HW1 4458   3.735   3.656   0.536  0.2408  1.3529 -2.4061
 1441SOL    HW2 4459   3.839   3.725   0.622 -0.7470 -1.8371  1.6868
 1442SOL     OW 4460   2.238   2.626   2.978  0.5825 -0.0756 -0.0363
 1442SOL    HW1 4461   2.229   2.551   2.919  1.2030  0.3974 -0.7565
 1442SOL    HW2 4462   2.273   2.696   2.922 -1.4615  1.2585  0.2181
 1443SOL     OW 4463   1.558   3.503   2.461 -0.5268  1.0519  0.1658
 1443SOL    HW1 4464   1.592   3.507   2.551  1.6477  0.7737 -0.6074
 1443SOL    HW2 4465   1.488   3.437   2.466  0.2040  0.3160  1.4688
 1444SOL     OW 4466   2.606   0.922   1.807  0.3922  0.5420  0.9247
 1444SOL    HW1 4467   2.554   0.897   1.730  2.6024 -1.2428 -0.1104
 1444SOL    HW2 4468   2.652   1.001   1.780 -0.6751  1.3415  1.3579
 1445SOL     OW 4469   2.542   2.550   1.075  0.1764 -0.3131 -0.0057
 1445SOL    HW1 4470   2.457   2.588   1.096 -0.8618 -1.1430 -2.3570
 1445SOL    HW2 4471   2.600   2.626   1.065 -0.9501  0.4722 -0.9691
 1446SOL     OW 4472   0.501   2.207   2.372  0.0508 -0.0541 -0.1327
 1446SOL    HW1 4473   0.408   2.187   2.365  0.0895 -0.3738  0.2767
 1446SOL    HW2 4474   0.519   2.207   2.466  0.1414  1.4870 -0.1196
 1447SOL     OW 4475   2.738   3.900   3.407 -0.2672 -0.3598  0.4146
 1447SOL    HW1 4476   2.666   3.891   3.345  0.0888  1.2234 -0.2972
 1447SOL    HW2 4477   2.720   3.836   3.476 -2.6947  0.3985  0.5746
 1448SOL     OW 4478   1.359   2.037   2.581  0.3884 -0.2868  0.3518
 1448SOL    HW1 4479   1.357   1.942   2.582  0.1110 -0.2849  0.0417
 1448SOL    HW2 4480   1.379   2.060   2.490 -1.3437 -0.0325 -0.0040
 1449SOL     OW 4481   3.469   3.120   0.709  0.1668  0.4999  0.7536
 1449SOL    HW1 4482   3.484   3.207   0.748  0.6489  1.3037 -1.1040
 1449SOL    HW2 4483   3.408   3.137   0.637 -1.8879 -1.1741  2.0036
 1450SOL     OW 4484   0.380   0.666   1.801 -0.0491 -0.3167  0.3084
 1450SOL    HW1 4485   0.303   0.613   1.825 -0.7002  1.0235  1.3255
 1450SOL    HW2 4486   0.347   0.756   1.800  1.2385  0.1650 -0.4716
 1451SOL     OW 4487   2.326   2.002   1.777 -0.0496 -0.1169  0.1500
 1451SOL    HW1 4488   2.265   2.073   1.758  2.7602  2.2337 -0.9248
 1451SOL    HW2 4489   2.335   1.956   1.693 -0.6534 -0.7368  0.4212
 1452SOL     OW 4490   0.568   2.402   0.596  0.5181 -0.2599 -0.0032
 1452SOL    HW1 4491   0.581   2.347   0.518  2.3369 -0.0801  0.1256
 1452SOL    HW2 4492   0.512   2.350   0.653  1.7968 -1.8135 -0.0824
 1453SOL     OW 4493   1.465   0.445   3.226 -0.3397  0.1001  0.4427
 1453SOL    HW1 4494   1.476   0.438   3.321 -1.1344 -0.2119  0.5222
 1453SOL    HW2 4495   1.532   0.389   3.190 -1.0134 -1.0101  0.8697
 1454SOL     OW 4496   0.003   0.128   0.843  0.3826 -0.2759  0.2410
 1454SOL    HW1 4497   0.002   0.193   0.914 -0.0075  0.2470 -0.2272
 1454SOL    HW2 4498  -0.006   0.180   0.764 -0.8828 -0.9633 -0.0923
 1455SOL     OW 4499   1.002   2.070   0.155 -0.7139  0.6684  0.6100
 1455SOL    HW1 4500   0.972   2.048   0.067  1.3907 -0.2659  0.0556
 1455SOL    HW2 4501   0.995   1.989   0.205  1.2710  0.2605  0.3042
 1456SOL     OW 4502   0.814   2.335   1.065  0.4394  0.1282  0.4762
 1456SOL    HW1 4503   0.893   2.355   1.015 -0.4058 -0.8711 -1.3557
 1456SOL    HW2 4504   0.741   2.363   1.009 -0.5392  0.1266  1.6906
 1457SOL     OW 4505   2.937   1.020   3.238  1.1351 -0.0359  0.1368
 1457SOL    HW1 4506   2.963   1.060   3.321 -0.1721 -0.0244  0.5562
 1457SOL    HW2 4507   2.937   0.926   3.256  0.8618 -0.0342  0.1460
 1458SOL     OW 4508   3.044   2.062   1.279 -0.0248  0.0809  0.2377
 1458SOL    HW1 4509   3.057   2.129   1.346 -2.3598  1.5142 -0.6386
 1458SOL    HW2 4510   2.967   2.013   1.309  0.2097 -0.6824 -0.3679
 1459SOL     OW 4511   3.125   0.515   3.021 -0.1083  0.1254 -0.5034
 1459SOL    HW1 4512   3.064   0.448   2.991  0.3686  0.1364 -1.5503
 1459SOL    HW2 4513   3.074   0.596   3.021 -0.1793  0.0822 -1.0613
 1460SOL     OW 4514   2.082   1.481   0.399 -0.2796 -0.3933 -1.1077
 1460SOL    HW1 4515   2.137   1.421   0.348  0.6129 -1.5732  1.0982
 1460SOL    HW2 4516   1.994   1.467   0.365  0.0871 -2.0556 -1.4943
 1461SOL     OW 4517   3.727   2.813   2.992 -0.0126  0.5202 -0.2124
 1461SOL    HW1 4518   3.817   2.802   2.960 -0.9887 -2.6178 -2.3701
 1461SOL    HW2 4519   3.730   2.784   3.083  1.0472 -0.3022 -0.4931
 1462SOL     OW 4520   0.072   2.375   1.597 -0.0959 -0.0698  0.1309
 1462SOL    HW1 4521  -0.015   2.367   1.558  0.0368 -1.5192  0.0590
 1462SOL    HW2 4522   0.120   2.299   1.563  1.1859  0.6829  0.1992
 1463SOL     OW 4523   2.544   2.887   3.053 -0.1979 -0.1277  0.0240
 1463SOL    HW1 4524   2.484   2.847   3.116 -0.2545  0.4258  0.3345
 1463SOL    HW2 4525   2.614   2.823   3.042 -1.2509 -1.1541 -0.9960
 1464SOL     OW 4526   1.799   1.911   2.623 -0.2916 -0.5639  0.3495
 1464SOL    HW1 4527   1.840   1.927   2.707 -1.0233  1.5850  0.3690
 1464SOL    HW2 4528   1.854   1.958   2.560 -1.2252  0.1771  0.0462
 1465SOL     OW 4529   2.018   0.077   2.069 -0.1289 -0.0925 -0.8234
 1465SOL    HW1 4530   2.000   0.161   2.028 -1.3145 -1.0044 -2.2814
 1465SOL    HW2 4531   1.972   0.013   2.014 -1.1017 -1.4850  1.4573
 1466SOL     OW 4532   3.617   0.119   0.873  0.3936 -0.2977  0.6231
 1466SOL    HW1 4533   3.648   0.102   0.784  1.0762  1.3743  0.4948
 1466SOL    HW2 4534   3.697   0.142   0.922  0.1512 -2.0346  1.9060
 1467SOL     OW 4535   2.152   2.954   1.845 -0.4174 -0.5556 -0.1806
 1467SOL    HW1 4536   2.093   2.977   1.917 -0.8054  0.4846 -0.7880
 1467SOL    HW2 4537   2.102   2.891   1.793 -0.1081 -1.3642  0.4765
 1468SOL     OW 4538   1.373   1.767   0.670  0.4423 -0.2230 -0.0219
 1468SOL    HW1 4539   1.322   1.686   0.671 -1.5454  0.9534 -0.1598
 1468SOL    HW2 4540   1.359   1.803   0.582  0.8228  0.5430  0.2218
 1469SOL     OW 4541   0.436   2.148   1.486 -0.6334  0.3243 -0.1545
 1469SOL    HW1 4542   0.464   2.072   1.435  0.4169  0.8771 -0.4171
 1469SOL    HW2 4543   0.441   2.221   1.424 -0.1193  0.8687  0.5253
 1470SOL     OW 4544   2.805   0.645   1.429  0.1231 -0.2983  0.2039
 1470SOL    HW1 4545   2.769   0.557   1.427  0.0769 -0.2949  0.8506
 1470SOL    HW2 4546   2.876   0.642   1.493  0.0420  0.1615  0.3237
 1471SOL     OW 4547   0.154   2.545   2.328  0.3390 -0.0731 -0.1667
 1471SOL    HW1 4548   0.159   2.507   2.240 -1.0054  1.9029 -1.1552
 1471SOL    HW2 4549   0.144   2.639   2.313  0.0091  0.3039  2.1105
 1472SOL     OW 4550   0.222   1.563   0.339  0.2727  0.4805  0.0582
 1472SOL    HW1 4551   0.287   1.608   0.394 -0.9561  2.4829 -0.0383
 1472SOL    HW2 4552   0.164   1.632   0.308 -1.6273 -1.1515 -0.2792
 1473SOL     OW 4553   2.103   2.946   1.247 -0.0104 -0.0853  0.0029
 1473SOL    HW1 4554   2.018   2.983   1.270 -0.8490 -0.4492 -2.2892
 1473SOL    HW2 4555   2.141   2.921   1.331 -1.6920  1.0511  1.1765
 1474SOL     OW 4556   1.101   3.326   2.902  0.4715 -0.7564  0.3859
 1474SOL    HW1 4557   1.020   3.289   2.939 -1.0240  1.0821 -0.8178
 1474SOL    HW2 4558   1.147   3.362   2.978 -1.1417  0.4362  0.8589
 1475SOL     OW 4559   1.107   0.732   1.772  0.1537  0.0071 -0.4266
 1475SOL    HW1 4560   1.132   0.742   1.680 -2.0919 -1.6221 -1.3092
 1475SOL    HW2 4561   1.085   0.639   1.781  0.4590  0.0804  1.8465
 1476SOL     OW 4562   2.016   3.578   3.394  0.6480 -0.1912  0.4643
 1476SOL    HW1 4563   2.107   3.605   3.397  0.0736  1.9164  0.6780
 1476SOL    HW2 4564   2.012   3.510   3.327  2.1415  0.6238 -0.4830
 1477SOL     OW 4565   2.123   3.935   1.164 -1.1925  0.1159  0.0545
 1477SOL    HW1 4566   2.140   4.023   1.128 -0.2979 -0.5676 -1.2816
 1477SOL    HW2 4567   2.207   3.890   1.159 -1.5676 -0.7333  1.0219
 1478SOL     OW 4568   1.205   2.481   0.494  0.1323 -0.0007  0.0291
 1478SOL    HW1 4569   1.126   2.522   0.530 -0.9159 -0.9430 -1.1048
 1478SOL    HW2 4570   1.277   2.536   0.527 -1.0174  1.2527  0.5849
 1479SOL     OW 4571   3.901   0.850   3.558  0.4002 -1.0283 -0.2357
 1479SOL    HW1 4572   3.886   0.941   3.583  0.7229 -0.8886 -0.5377
 1479SOL    HW2 4573   3.986   0.829   3.596  1.0823 -0.6932 -1.5006
 1480SOL     OW 4574   1.885   3.826   0.447 -0.7462 -0.3869  0.5290
 1480SOL    HW1 4575   1.844   3.829   0.361 -1.8899 -3.8008  0.7943
 1480SOL    HW2 4576   1.979   3.828   0.429 -0.9779 -0.1975 -0.7329
 1481SOL     OW 4577   3.470   3.674   1.888  0.4985  0.7334 -0.4177
 1481SOL    HW1 4578   3.561   3.703   1.889  0.7257  0.0379  0.2150
 1481SOL    HW2 4579   3.420   3.755   1.878  1.1573  1.2450  0.2253
 1482SOL     OW 4580   3.270   0.079   2.954  0.1100  0.4837 -0.5058
 1482SOL    HW1 4581   3.190   0.092   3.005 -0.6188  1.6197 -1.8700
 1482SOL    HW2 4582   3.310   0.166   2.950 -0.0441  0.5022 -2.1430
 1483SOL     OW 4583   2.322   0.093   3.115 -0.1320 -0.5148 -0.3789
 1483SOL    HW1 4584   2.305   0.122   3.205 -1.4509 -0.8365 -0.5023
 1483SOL    HW2 4585   2.273   0.011   3.107 -1.1168  0.1746 -1.7957
 1484SOL     OW 4586   0.090   0.631   2.385  0.5260 -0.2211  0.7026
 1484SOL    HW1 4587  -0.001   0.648   2.408  1.0338  0.1655  2.6183
 1484SOL    HW2 4588   0.096   0.536   2.377 -0.0873 -0.2345  0.3641
 1485SOL     OW 4589   0.702   3.062   2.505  0.1847 -0.5581  0.0460
 1485SOL    HW1 4590   0.701   3.083   2.412 -0.1633  0.2369  0.2237
 1485SOL    HW2 4591   0.786   3.097   2.537  1.0039 -2.1558 -0.2486
 1486SOL     OW 4592   0.933   0.571   2.031  0.8999  0.5697  1.0237
 1486SOL    HW1 4593   0.991   0.601   1.961  1.0454 -0.5479  0.6371
 1486SOL    HW2 4594   0.872   0.643   2.045  0.0698  0.3487 -1.1573
 1487SOL     OW 4595   2.480   3.829   2.519  0.2054  0.1099 -0.7471
 1487SOL    HW1 4596   2.387   3.853   2.518  0.5539  1.6768  0.4236
 1487SOL    HW2 4597   2.526   3.913   2.519  1.6438 -0.6491 -1.8262
 1488SOL     OW 4598   0.913   2.687   2.247  0.4393  0.2039  0.2032
 1488SOL    HW1 4599   0.946   2.621   2.308  1.4783 -0.6262 -1.1932
 1488SOL    HW2 4600   0.832   2.719   2.288  0.3266 -1.3629  1.2907
 1489SOL     OW 4601   1.269   2.373   1.021  0.0222 -0.9201 -0.0938
 1489SOL    HW1 4602   1.233   2.414   1.100  0.2904 -0.6806 -0.0923
 1489SOL    HW2 4603   1.197   2.321   0.986 -0.0753 -1.0933  0.3542
 1490SOL     OW 4604   0.193   0.271   2.720 -0.1173  0.1674  0.5831
 1490SOL    HW1 4605   0.284   0.248   2.700 -0.2447  0.2832 -0.1833
 1490SOL    HW2 4606   0.145   0.250   2.639 -0.4820  1.6931  0.3846
 1491SOL     OW 4607   2.391   3.470   1.914 -0.4264 -0.6250 -1.0295
 1491SOL    HW1 4608   2.334   3.542   1.889  0.3103  0.5956  0.5924
 1491SOL    HW2 4609   2.351   3.435   1.994  1.3983  0.7421  0.5714
 1492SOL     OW 4610   1.340   1.772   2.982  0.5336 -0.3504  0.4623
 1492SOL    HW1 4611   1.264   1.724   3.015 -0.9283 -0.1332 -2.2943
 1492SOL    HW2 4612   1.351   1.741   2.892  2.3281  1.2831  0.0417
 1493SOL     OW 4613   0.422   1.676   1.207  0.1609  0.2730 -0.0247
 1493SOL    HW1 4614   0.367   1.713   1.276 -3.0678 -1.5507 -1.3824
 1493SOL    HW2 4615   0.425   1.582   1.227  2.8719  0.2630 -0.0738
 1494SOL     OW 4616   3.730   2.753   3.768 -0.3000  0.1006 -0.6029
 1494SOL    HW1 4617   3.697   2.835   3.807 -0.2601 -0.0621 -0.2244
 1494SOL    HW2 4618   3.710   2.686   3.833  2.1738  0.2121  0.3611
 1495SOL     OW 4619   3.268   3.234   3.095 -0.2427 -0.1762 -0.0444
 1495SOL    HW1 4620   3.303   3.276   3.174 -3.1469  2.4028  0.0502
 1495SOL    HW2 4621   3.197   3.292   3.067 -1.4157 -2.7033 -2.7287
 1496SOL     OW 4622   2.266   3.661   1.443 -0.2898 -0.3418  0.2384
 1496SOL    HW1 4623   2.226   3.583   1.481 -0.4011  0.2483  1.3798
 1496SOL    HW2 4624   2.360   3.650   1.461  0.0530 -1.4420 -1.9160
 1497SOL     OW 4625   3.480   0.260   2.650  0.0049 -0.0565  0.5680
 1497SOL    HW1 4626   3.525   0.181   2.682 -0.1786 -0.3670  0.0789
 1497SOL    HW2 4627   3.529   0.333   2.688  0.5255 -0.3985  0.5717
 1498SOL     OW 4628   1.934   0.778   3.490  0.0869  0.3423 -0.0389
 1498SOL    HW1 4629   1.942   0.763   3.396  1.9846  0.6002  0.0502
 1498SOL    HW2 4630   1.932   0.691   3.528 -0.8382  0.2334 -0.3033
 1499SOL     OW 4631   2.435   2.021   3.539 -0.3161 -0.0626 -0.1500
 1499SOL    HW1 4632   2.352   2.016   3.587 -0.1148 -1.5448  0.1016
 1499SOL    HW2 4633   2.485   1.946   3.570  1.2328  0.9352 -0.1314
 1500SOL     OW 4634   1.301   2.457   0.224  0.6365  0.7604  0.5106
 1500SOL    HW1 4635   1.265   2.532   0.177 -0.5964 -0.2031 -0.1379
 1500SOL    HW2 4636   1.248   2.451   0.304 -1.9736 -1.6368 -1.1874
 1501SOL     OW 4637   0.358   0.073   1.268 -0.2607 -0.3613  0.0782
 1501SOL    HW1 4638   0.380   0.166   1.280  1.4725 -0.7627  0.3319
 1501SOL    HW2 4639   0.362   0.037   1.357 -0.9789 -0.6868 -0.0151
 1502SOL     OW 4640   3.770   0.335   3.777 -0.1563  0.0514  0.2419
 1502SOL    HW1 4641   3.763   0.382   3.860 -1.2971  2.5626 -1.1608
 1502SOL    HW2 4642   3.698   0.368   3.724 -0.3858 -2.5985 -1.2720
 1503SOL     OW 4643   3.949   0.369   0.327 -0.5701  0.2303  0.1897
 1503SOL    HW1 4644   3.942   0.442   0.388  0.4287 -1.5567  2.5854
 1503SOL    HW2 4645   4.043   0.349   0.324 -0.7162 -0.3931 -1.1393
 1504SOL     OW 4646   3.269   3.445   3.557 -0.7758  0.3420 -0.0095
 1504SOL    HW1 4647   3.329   3.388   3.509  0.2473  1.3160  0.0573
 1504SOL    HW2 4648   3.195   3.459   3.497 -0.4438 -0.0313 -0.5132
 1505SOL     OW 4649   3.678   3.484   2.060 -0.4258 -0.3471 -0.8879
 1505SOL    HW1 4650   3.656   3.550   2.126  2.0867  0.1388 -0.4605
 1505SOL    HW2 4651   3.627   3.407   2.085 -0.9559  0.4219  0.4966
 1506SOL     OW 4652   0.080   3.742   1.912  0.1698 -0.5570 -0.4135
 1506SOL    HW1 4653   0.117   3.696   1.988 -2.4346 -3.5580 -0.7644
 1506SOL    HW2 4654   0.062   3.831   1.945  2.2669 -0.7115  1.3684
 1507SOL     OW 4655   0.965   1.303   2.138  0.2445  0.3206 -0.0091
 1507SOL    HW1 4656   1.042   1.355   2.162  0.6926  0.6113 -1.9180
 1507SOL    HW2 4657   0.999   1.235   2.080 -0.6037 -1.0684  1.0665
 1508SOL     OW 4658   1.819   1.953   3.624  0.6136  0.1878  0.1383
 1508SOL    HW1 4659   1.737   1.982   3.663  0.5889 -0.9720  1.0239
 1508SOL    HW2 4660   1.833   1.865   3.661  1.3272 -0.3844 -1.3960
 1509SOL     OW 4661   3.525   3.719   0.756  0.2960 -0.0456  0.0705
 1509SOL    HW1 4662   3.595   3.740   0.696  0.6881 -0.3672  0.4035
 1509SOL    HW2 4663   3.561   3.738   0.843  0.0332 -0.3578  0.2523
 1510SOL     OW 4664   3.435   0.468   2.284  0.0226  0.3213 -0.7371
 1510SOL    HW1 4665   3.479   0.434   2.206  1.1234  0.5677 -0.2360
 1510SOL    HW2 4666   3.343   0.447   2.270  0.4795 -1.7426 -1.0374
 1511SOL     OW 4667   3.132   2.753   1.816 -0.3145 -0.0425 -0.8927
 1511SOL    HW1 4668   3.169   2.803   1.744  1.4760  0.4459  0.3014
 1511SOL    HW2 4669   3.108   2.819   1.881  0.7245 -0.5851  0.0899
 1512SOL     OW 4670   1.465   1.803   3.922 -0.8016 -0.5619  0.1575
 1512SOL    HW1 4671   1.482   1.718   3.962 -0.8753 -0.9491 -0.6229
 1512SOL    HW2 4672   1.385   1.834   3.965  0.1985 -0.0632  1.7284
 1513SOL     OW 4673   0.212   0.714   2.160  0.1580  0.7371 -0.4375
 1513SOL    HW1 4674   0.162   0.758   2.091 -1.2416 -1.2635 -0.7964
 1513SOL    HW2 4675   0.155   0.716   2.237 -0.4424 -1.3113 -0.7682
 1514SOL     OW 4676   0.788   3.062   3.940 -0.0661  0.1251 -0.3100
 1514SOL    HW1 4677   0.721   3.124   3.966 -0.4268  0.1428 -1.2634
 1514SOL    HW2 4678   0.751   2.976   3.960 -0.7510  0.0901 -1.6509
 1515SOL     OW 4679   3.827   3.383   2.778 -0.1554 -0.7063  1.2902
 1515SOL    HW1 4680   3.847   3.476   2.788  3.1515 -1.2768  1.1545
 1515SOL    HW2 4681   3.775   3.378   2.698 -0.6579  1.0138  1.4703
 1516SOL     OW 4682   3.450   0.254   3.399 -0.0467 -0.4971 -0.2784
 1516SOL    HW1 4683   3.502   0.230   3.323  0.6496 -2.5299  0.7592
 1516SOL    HW2 4684   3.511   0.299   3.457 -0.1419 -0.4990 -0.1769
 1517SOL     OW 4685   2.410   1.116   0.130 -0.2289  0.2506 -0.1127
 1517SOL    HW1 4686   2.451   1.049   0.075  0.0453 -0.7802  1.3006
 1517SOL    HW2 4687   2.364   1.173   0.068 -0.2933 -1.1065 -1.3694
 1518SOL     OW 4688   0.194   0.633   2.707 -0.0121 -0.7923  0.3217
 1518SOL    HW1 4689   0.174   0.727   2.700 -0.0708 -0.7028  1.4689
 1518SOL    HW2 4690   0.251   0.615   2.632 -2.3241 -0.5030 -1.6283
 1519SOL     OW 4691   1.060   0.262   0.519  0.4260  0.1717  0.4093
 1519SOL    HW1 4692   1.021   0.177   0.540  0.8658 -0.1186  0.0589
 1519SOL    HW2 4693   1.051   0.270   0.424  1.3337  0.0485  0.3080
 1520SOL     OW 4694   3.053   0.140   3.102 -0.0299 -0.3525  0.4483
 1520SOL    HW1 4695   2.987   0.207   3.122 -0.4343 -0.2366 -1.1216
 1520SOL    HW2 4696   3.078   0.105   3.187 -0.5981  1.0494  1.2260
 1521SOL     OW 4697   2.569   2.981   1.307 -0.0469  0.5035 -0.3292
 1521SOL    HW1 4698   2.584   2.893   1.341 -1.2431  0.8061  1.0973
 1521SOL    HW2 4699   2.622   3.038   1.362 -0.7023  0.8366 -0.0230
 1522SOL     OW 4700   2.628   0.177   3.833  0.0214  0.0279  0.1075
 1522SOL    HW1 4701   2.573   0.158   3.909 -1.8561  1.2532 -0.8608
 1522SOL    HW2 4702   2.622   0.099   3.778  2.1633 -1.2630  1.5628
 1523SOL     OW 4703   2.558   3.164   3.035 -0.2791 -0.6373  0.0266
 1523SOL    HW1 4704   2.561   3.069   3.043  0.1932 -0.5424  1.0904
 1523SOL    HW2 4705   2.483   3.191   3.088 -1.1556 -0.4847 -1.2281
 1524SOL     OW 4706   2.552   1.292   1.254 -0.2246 -0.4434  0.3972
 1524SOL    HW1 4707   2.621   1.344   1.294  2.2231 -0.7208 -3.0151
 1524SOL    HW2 4708   2.498   1.356   1.207 -1.9446 -0.3076  2.4510
 1525SOL     OW 4709   1.512   2.299   2.872 -0.0588  0.4073  0.9488
 1525SOL    HW1 4710   1.502   2.368   2.937  0.1950  0.6349  0.7500
 1525SOL    HW2 4711   1.424   2.260   2.864 -0.4938  1.4971  0.1962
 1526SOL     OW 4712   1.362   1.430   1.514  0.0312  0.0569 -0.1175
 1526SOL    HW1 4713   1.433   1.421   1.450 -0.1836  1.8722 -0.6448
 1526SOL    HW2 4714   1.377   1.358   1.575  0.8668 -1.0905 -1.5942
 1527SOL     OW 4715   1.100   3.751   0.824  0.3096 -0.3893 -0.3977
 1527SOL    HW1 4716   1.089   3.714   0.911 -1.6134 -0.0324 -0.4608
 1527SOL    HW2 4717   1.051   3.693   0.766  0.8408 -0.1311 -1.1283
 1528SOL     OW 4718   1.072   2.476   2.367 -0.0189  0.2643  0.2809
 1528SOL    HW1 4719   1.138   2.447   2.304  2.1493  0.8920  2.1680
 1528SOL    HW2 4720   1.033   2.395   2.399 -0.0711 -0.1225 -0.7189
 1529SOL     OW 4721   1.635   2.836   0.469 -0.6633  0.1673 -0.1839
 1529SOL    HW1 4722   1.592   2.865   0.549 -2.3079 -0.9193 -0.6119
 1529SOL    HW2 4723   1.565   2.836   0.404 -0.2428 -2.4873 -0.7309
 1530SOL     OW 4724   1.355   3.197   2.397 -0.3770 -0.2085  0.2754
 1530SOL    HW1 4725   1.357   3.147   2.479 -0.9049  0.5377  0.7654
 1530SOL    HW2 4726   1.410   3.148   2.337  0.3505 -0.5682  1.2050
 1531SOL     OW 4727   1.619   2.682   2.814 -0.6365 -0.3619 -0.1739
 1531SOL    HW1 4728   1.688   2.744   2.838 -0.5904 -0.2237 -0.6464
 1531SOL    HW2 4729   1.539   2.723   2.845 -0.5866 -0.1434 -0.3227
 1532SOL     OW 4730   3.071   3.432   3.087  0.2814 -0.2493 -0.2394
 1532SOL    HW1 4731   2.990   3.412   3.039  1.1447 -0.3161 -1.7480
 1532SOL    HW2 4732   3.047   3.423   3.179 -0.5954 -3.6938 -0.6688
 1533SOL     OW 4733   2.830   2.173   3.884  0.6001 -0.0107 -0.5181
 1533SOL    HW1 4734   2.797   2.146   3.969 -1.0840 -0.9467 -1.4209
 1533SOL    HW2 4735   2.881   2.252   3.902 -0.4484  0.3116  1.2502
 1534SOL     OW 4736   3.385   3.298   3.362 -0.1018  0.3932  0.4818
 1534SOL    HW1 4737   3.388   3.206   3.390 -0.6962  0.2178  0.0007
 1534SOL    HW2 4738   3.477   3.322   3.346  0.0215 -0.2683  0.1566
 1535SOL     OW 4739   0.216   3.645   1.718 -0.1783  0.4088 -0.1935
 1535SOL    HW1 4740   0.179   3.674   1.801  2.1838 -0.5647  1.3335
 1535SOL    HW2 4741   0.202   3.550   1.717  2.3757 -0.0591  0.6323
 1536SOL     OW 4742   3.800   2.883   2.394  0.2612 -0.1159 -1.0255
 1536SOL    HW1 4743   3.792   2.978   2.401 -1.3222 -0.3185  1.1404
 1536SOL    HW2 4744   3.769   2.863   2.306  0.4113  1.3542 -1.4352
 1537SOL     OW 4745   3.159   0.673   2.325 -0.6898 -0.3309  0.8732
 1537SOL    HW1 4746   3.145   0.767   2.315 -0.9104 -0.4639 -0.1322
 1537SOL    HW2 4747   3.233   0.666   2.386 -0.0391  0.5141  0.1874
 1538SOL     OW 4748   0.657   2.736   1.082 -0.3000 -0.2970  0.5248
 1538SOL    HW1 4749   0.564   2.714   1.072 -0.6336  0.1470  2.3107
 1538SOL    HW2 4750   0.658   2.827   1.112  0.7889  0.0632 -0.4818
 1539SOL     OW 4751   0.496   2.584   2.117  0.0719  0.1599  0.1268
 1539SOL    HW1 4752   0.418   2.531   2.100 -0.0842  0.0618  1.1014
 1539SOL    HW2 4753   0.561   2.521   2.149  0.1297  0.4373  0.5656
 1540SOL     OW 4754   1.472   3.263   1.852 -0.3932  0.2184  0.3496
 1540SOL    HW1 4755   1.399   3.321   1.831 -0.5884  0.3875  1.4480
 1540SOL    HW2 4756   1.521   3.256   1.771 -1.1112  0.8557 -0.1511
 1541SOL     OW 4757   2.000   1.110   2.311 -0.2225 -0.5210  0.0022
 1541SOL    HW1 4758   1.978   1.055   2.387 -0.5735  0.9602  1.0188
 1541SOL    HW2 4759   1.917   1.123   2.266 -0.6214  1.0333  1.0829
 1542SOL     OW 4760   0.450   3.570   1.626  0.2370 -0.4871 -0.1937
 1542SOL    HW1 4761   0.372   3.614   1.660  0.1221  0.2800 -1.3899
 1542SOL    HW2 4762   0.483   3.519   1.700  0.4947  1.7739  1.3336
 1543SOL     OW 4763   0.919   1.864   0.328 -0.0410  0.3544  0.2524
 1543SOL    HW1 4764   0.884   1.780   0.359 -2.1162  1.7532  1.9992
 1543SOL    HW2 4765   0.841   1.917   0.310  1.2200  2.1404 -0.2037
 1544SOL     OW 4766   2.841   1.931   1.385 -0.3740 -0.2866  0.4893
 1544SOL    HW1 4767   2.850   1.896   1.473 -1.1757  1.1602  1.1839
 1544SOL    HW2 4768   2.750   1.960   1.379 -0.1995  0.1054 -0.6242
 1545SOL     OW 4769   1.705   3.406   3.858  0.3003 -0.2325  0.3809
 1545SOL    HW1 4770   1.740   3.490   3.888  1.9553 -0.7895  0.0907
 1545SOL    HW2 4771   1.642   3.381   3.926 -1.1305  1.7837 -0.1181
 1546SOL     OW 4772   3.886   1.417   0.882  0.7476  0.0527  0.0527
 1546SOL    HW1 4773   3.875   1.460   0.967 -1.6707 -1.8605  0.8090
 1546SOL    HW2 4774   3.810   1.445   0.831  1.7061  0.4591 -1.2166
 1547SOL     OW 4775   1.533   2.294   2.305 -0.1238  0.7382 -0.1116
 1547SOL    HW1 4776   1.591   2.368   2.325 -0.0871  0.7491 -0.2574
 1547SOL    HW2 4777   1.452   2.335   2.277  0.1907  0.7270 -1.0526
 1548SOL     OW 4778   2.564   1.733   1.531  0.2382 -0.1204 -0.6890
 1548SOL    HW1 4779   2.579   1.728   1.626 -0.3031  0.7045 -0.5507
 1548SOL    HW2 4780   2.624   1.667   1.495  0.5198 -0.3896  0.2125
 1549SOL     OW 4781   1.777   2.765   3.064 -0.1587 -0.0242 -0.1934
 1549SOL    HW1 4782   1.861   2.728   3.093  0.1102  0.9325  0.2789
 1549SOL    HW2 4783   1.796   2.802   2.977 -0.7092 -1.9512 -1.2049
 1550SOL     OW 4784   3.111   3.810   0.397 -0.5311  0.2434  0.5334
 1550SOL    HW1 4785   3.130   3.850   0.311  1.6495 -0.8104  0.4752
 1550SOL    HW2 4786   3.027   3.849   0.422 -0.7456  1.3565 -1.6083
 1551SOL     OW 4787   0.663   0.434   1.023  0.1937 -0.1683  0.8570
 1551SOL    HW1 4788   0.687   0.453   1.114  1.8549  0.0754  0.4147
 1551SOL    HW2 4789   0.726   0.367   0.995 -1.3805 -1.5024  0.3777
 1552SOL     OW 4790   3.820   2.005   3.703 -0.1527 -0.4493 -0.4670
 1552SOL    HW1 4791   3.855   2.086   3.738 -0.4345 -0.3275 -0.4596
 1552SOL    HW2 4792   3.730   2.026   3.679 -0.4656 -0.9587  0.2312
 1553SOL     OW 4793   0.039   1.624   3.267 -0.4638  0.1738 -0.1663
 1553SOL    HW1 4794  -0.043   1.582   3.241  0.6477 -0.4697 -3.0157
 1553SOL    HW2 4795   0.058   1.685   3.196  1.4967  0.3434  0.4343
 1554SOL     OW 4796   1.683   3.493   3.567 -0.3750 -0.3380 -0.1717
 1554SOL    HW1 4797   1.708   3.461   3.654  0.8126  3.7293  1.2078
 1554SOL    HW2 4798   1.765   3.494   3.517  0.1327  2.3312  0.5648
 1555SOL     OW 4799   0.270   0.062   0.756 -0.1545 -0.3531  0.3665
 1555SOL    HW1 4800   0.188   0.111   0.764  0.3535  0.2525  2.1724
 1555SOL    HW2 4801   0.274   0.009   0.835  2.7120  2.0415  2.0225
 1556SOL     OW 4802   2.102   2.221   1.912 -0.1928  0.0311 -0.7780
 1556SOL    HW1 4803   2.148   2.284   1.856 -0.3203  0.0145 -0.9038
 1556SOL    HW2 4804   2.016   2.261   1.926 -0.1111  0.1058 -0.4683
 1557SOL     OW 4805   3.498   2.518   0.980  0.4555  0.8631  0.3980
 1557SOL    HW1 4806   3.482   2.480   1.067  0.5604 -1.3594 -0.4844
 1557SOL    HW2 4807   3.430   2.585   0.970  0.1140  0.7966  1.9745
 1558SOL     OW 4808   3.044   1.410   2.883  0.0514  0.2168 -0.8152
 1558SOL    HW1 4809   3.119   1.453   2.841  0.6813  2.0731  1.9459
 1558SOL    HW2 4810   3.079   1.327   2.916  0.8243  0.8363 -0.0011
 1559SOL     OW 4811   2.505   0.148   2.871 -0.2678  0.3392 -0.0320
 1559SOL    HW1 4812   2.532   0.084   2.936 -1.5719  1.3423  1.5480
 1559SOL    HW2 4813   2.574   0.215   2.874 -0.4342  0.4894  0.4729
 1560SOL     OW 4814   3.337   1.946   3.341 -0.0852 -0.1259  0.5339
 1560SOL    HW1 4815   3.381   1.862   3.329 -0.2019 -0.2028  0.6404
 1560SOL    HW2 4816   3.362   1.974   3.429 -1.5843 -0.9698  1.2706
 1561SOL     OW 4817   3.892   0.201   1.789 -0.1129  0.1463  0.1332
 1561SOL    HW1 4818   3.970   0.232   1.741 -0.9925  0.3350 -1.2502
 1561SOL    HW2 4819   3.869   0.119   1.746  0.0236 -0.5364  1.3389
 1562SOL     OW 4820   0.740   2.523   2.460  0.4461 -0.2891 -0.7385
 1562SOL    HW1 4821   0.708   2.613   2.455  0.6663 -0.1734 -0.2052
 1562SOL    HW2 4822   0.692   2.485   2.534  1.0587 -0.3080 -0.3378
 1563SOL     OW 4823   3.131   2.770   3.175  0.0480 -0.5469  0.6207
 1563SOL    HW1 4824   3.198   2.838   3.182 -0.6090  0.1084  0.6769
 1563SOL    HW2 4825   3.179   2.691   3.151  0.8900 -0.1798  1.0626
 1564SOL     OW 4826   1.967   2.420   3.535 -0.6414 -0.2044  0.5444
 1564SOL    HW1 4827   2.062   2.419   3.529 -0.6389  1.7406 -0.3343
 1564SOL    HW2 4828   1.937   2.375   3.456 -0.4569 -0.1899  0.4661
 1565SOL     OW 4829   3.166   3.390   1.569 -0.4781  0.2192 -0.2378
 1565SOL    HW1 4830   3.230   3.444   1.616 -2.1300  1.0629  1.1622
 1565SOL    HW2 4831   3.120   3.451   1.512 -0.5231 -0.2468 -0.7077
 1566SOL     OW 4832   1.822   3.331   0.965  0.1134 -0.3624 -0.0109
 1566SOL    HW1 4833   1.837   3.395   1.035  2.7953 -0.2868 -0.5277
 1566SOL    HW2 4834   1.847   3.247   1.003  0.9700 -0.4126 -0.6396
 1567SOL     OW 4835   2.592   0.424   0.818  0.5297 -0.3564  0.5868
 1567SOL    HW1 4836   2.643   0.493   0.859 -0.8608  0.3243  1.2391
 1567SOL    HW2 4837   2.563   0.460   0.735  0.8661 -0.6432  0.3391
 1568SOL     OW 4838   3.294   1.229   2.678 -0.9789 -0.0403  0.0217
 1568SOL    HW1 4839   3.316   1.317   2.708  2.6830 -0.0940 -1.9207
 1568SOL    HW2 4840   3.317   1.172   2.751  1.2552  0.3345 -0.3237
 1569SOL     OW 4841   3.720   2.385   1.146 -0.8107 -0.5222 -0.2784
 1569SOL    HW1 4842   3.773   2.455   1.108 -1.4287  0.1631  0.1060
 1569SOL    HW2 4843   3.677   2.344   1.070 -1.6260  0.4952 -0.3861
 1570SOL     OW 4844   3.168   2.200   0.947 -0.2123 -0.1929 -0.3177
 1570SOL    HW1 4845   3.102   2.247   0.896 -0.2716 -0.1662 -0.2180
 1570SOL    HW2 4846   3.197   2.263   1.013 -0.2791 -0.2920 -0.1942
 1571SOL     OW 4847   0.367   0.465   2.069  0.7112 -0.9490 -0.6105
 1571SOL    HW1 4848   0.316   0.428   1.997 -0.8106 -0.3028  0.0755
 1571SOL    HW2 4849   0.315   0.540   2.099  1.8211 -0.5762  0.4905
 1572SOL     OW 4850   3.046   0.567   1.298  0.4419 -0.0785  0.9607
 1572SOL    HW1 4851   3.056   0.499   1.232  1.7316  0.8593  0.1417
 1572SOL    HW2 4852   2.970   0.618   1.268  0.6100 -0.0616  0.5500
 1573SOL     OW 4853   2.976   2.132   2.355  0.1367  0.4468  0.5465
 1573SOL    HW1 4854   2.923   2.060   2.390  0.1433 -0.2596 -0.8173
 1573SOL    HW2 4855   3.066   2.107   2.377  0.0069  1.0635  1.8396
 1574SOL     OW 4856   0.011   0.232   2.177 -0.2715  0.1908 -0.1080
 1574SOL    HW1 4857  -0.070   0.186   2.199 -0.8611  1.9219  1.5931
 1574SOL    HW2 4858   0.023   0.295   2.248  2.9411 -0.4332  0.0475
 1575SOL     OW 4859   2.830   0.905   1.338 -0.4634  0.1717  0.1263
 1575SOL    HW1 4860   2.832   0.815   1.370 -1.1592  0.2221  0.3332
 1575SOL    HW2 4861   2.737   0.927   1.336 -0.3093  0.8051 -0.1502
 1576SOL     OW 4862   1.136   1.263   2.736  0.1032  0.4612 -0.4091
 1576SOL    HW1 4863   1.142   1.233   2.827  2.6613 -0.1767 -0.6917
 1576SOL    HW2 4864   1.120   1.183   2.686 -2.6646  0.9866 -0.4806
 1577SOL     OW 4865   2.854   0.313   3.166  0.9449  0.1077  0.0403
 1577SOL    HW1 4866   2.823   0.331   3.078  1.0130  1.3127  0.2401
 1577SOL    HW2 4867   2.794   0.362   3.223 -1.9677 -4.1241  1.0717
 1578SOL     OW 4868   2.970   2.399   2.976  0.7216  0.1638  0.6786
 1578SOL    HW1 4869   3.031   2.331   2.946 -0.9547 -1.3487  0.5428
 1578SOL    HW2 4870   2.924   2.359   3.050 -0.9609  0.7740  0.0169
 1579SOL     OW 4871   1.917   1.514   1.421  0.4723  0.5577 -0.3313
 1579SOL    HW1 4872   1.962   1.527   1.337 -0.8178 -0.1728 -1.1666
 1579SOL    HW2 4873   1.988   1.497   1.483  1.5949  3.0963 -0.8197
 1580SOL     OW 4874   0.604   3.823   1.903 -0.3605 -0.1536 -0.5107
 1580SOL    HW1 4875   0.697   3.800   1.915 -0.2708  0.5314  0.2127
 1580SOL    HW2 4876   0.601   3.868   1.819  0.5090  2.3820  0.6933
 1581SOL     OW 4877   0.848   3.857   2.034  0.0933 -0.3544  0.7395
 1581SOL    HW1 4878   0.816   3.907   2.109 -2.4190  0.4147 -0.7402
 1581SOL    HW2 4879   0.834   3.766   2.059 -0.6042 -0.1156  1.2697
 1582SOL     OW 4880   1.658   1.233   3.871  0.5978 -0.4091  0.4360
 1582SOL    HW1 4881   1.709   1.299   3.824  1.4030 -0.3397  1.3691
 1582SOL    HW2 4882   1.609   1.284   3.937  0.8769 -0.6832  0.8621
 1583SOL     OW 4883   3.073   3.874   2.784 -0.3220  0.2790  0.1226
 1583SOL    HW1 4884   3.116   3.934   2.845  2.2897 -1.8152  0.5485
 1583SOL    HW2 4885   3.102   3.787   2.812 -2.0256 -1.0136 -1.8832
 1584SOL     OW 4886   0.181   1.960   1.278  0.2473 -0.1411  0.3060
 1584SOL    HW1 4887   0.272   1.938   1.296  0.1416 -0.4948  0.4005
 1584SOL    HW2 4888   0.156   2.021   1.348  0.2158 -0.5407  0.6414
 1585SOL     OW 4889   0.843   1.236   2.684 -0.5208 -0.2240 -0.1054
 1585SOL    HW1 4890   0.850   1.321   2.641 -0.9520  0.5837  1.3769
 1585SOL    HW2 4891   0.926   1.193   2.665  0.6455  1.4361  1.0077
 1586SOL     OW 4892   1.492   2.629   1.236 -0.2615 -0.1216  0.1196
 1586SOL    HW1 4893   1.414   2.646   1.184  0.0522  0.3046 -0.2298
 1586SOL    HW2 4894   1.522   2.543   1.208  0.3397  0.4272 -0.9871
 1587SOL     OW 4895   0.552   3.601   2.235  0.1240 -0.4528  0.1557
 1587SOL    HW1 4896   0.463   3.638   2.236  0.2290 -0.0709 -1.3538
 1587SOL    HW2 4897   0.543   3.515   2.275 -0.8144 -0.1691  0.5853
 1588SOL     OW 4898   2.356   0.366   0.601 -0.1027 -0.7598  0.6439
 1588SOL    HW1 4899   2.288   0.422   0.638  0.9025 -0.9424  2.9504
 1588SOL    HW2 4900   2.371   0.298   0.668  1.4396 -1.4697 -0.3456
 1589SOL     OW 4901   0.695   3.787   3.249  0.0617 -0.2492 -0.0011
 1589SOL    HW1 4902   0.782   3.749   3.254 -0.7924 -2.1522  2.3897
 1589SOL    HW2 4903   0.697   3.861   3.310  0.9510  2.2035 -2.7236
 1590SOL     OW 4904   3.839   2.854   0.803 -0.2942 -0.3326  0.2560
 1590SOL    HW1 4905   3.861   2.856   0.710 -1.0468  1.2825  0.0765
 1590SOL    HW2 4906   3.801   2.941   0.821 -2.4705 -1.4360  1.4805
 1591SOL     OW 4907   3.410   2.434   0.192 -0.4473 -0.4728  0.2617
 1591SOL    HW1 4908   3.387   2.480   0.111 -0.7138 -0.9641  0.0542
 1591SOL    HW2 4909   3.505   2.425   0.188 -0.0809  1.9534  1.3229
 1592SOL     OW 4910   1.510   1.177   1.880 -0.2778  0.7543 -0.0932
 1592SOL    HW1 4911   1.568   1.248   1.909  1.9058 -0.1367 -1.9350
 1592SOL    HW2 4912   1.503   1.119   1.956  1.7575  0.6371  0.0774
 1593SOL     OW 4913   1.367   0.254   2.415  0.4496  0.2112 -0.5313
 1593SOL    HW1 4914   1.366   0.162   2.441 -1.1517 -0.0128 -1.2428
 1593SOL    HW2 4915   1.458   0.273   2.395  1.2219 -0.5446  1.8961
 1594SOL     OW 4916   3.754   1.265   3.122 -0.4725 -0.0669 -0.3391
 1594SOL    HW1 4917   3.730   1.241   3.211 -0.5243  1.3579  0.0510
 1594SOL    HW2 4918   3.847   1.243   3.115 -0.6127 -0.7375 -0.1428
 1595SOL     OW 4919   0.374   3.920   3.909  0.0274  0.5293 -0.0544
 1595SOL    HW1 4920   0.384   3.825   3.910  1.0494  0.6379  1.0741
 1595SOL    HW2 4921   0.454   3.952   3.866 -1.3374  0.8094 -2.6026
 1596SOL     OW 4922   1.440   2.185   0.318  0.9033  0.3860 -0.2306
 1596SOL    HW1 4923   1.444   2.237   0.238  1.3112  0.9141  0.1221
 1596SOL    HW2 4924   1.359   2.135   0.310  2.1688 -1.5366 -2.1348
 1597SOL     OW 4925   1.692   3.944   2.226  0.1886 -0.2683  0.4155
 1597SOL    HW1 4926   1.747   4.022   2.238  0.1979 -0.3040  0.6013
 1597SOL    HW2 4927   1.755   3.872   2.218  0.2806 -0.0234 -1.7108
 1598SOL     OW 4928   3.883   0.207   2.614 -0.0272 -0.3831 -0.6299
 1598SOL    HW1 4929   3.824   0.162   2.675  0.2086  1.2230  0.8485
 1598SOL    HW2 4930   3.853   0.298   2.613  0.4296 -0.2075 -2.3833
 1599SOL     OW 4931   1.294   1.589   2.221  0.4663  0.1304  0.7866
 1599SOL    HW1 4932   1.375   1.557   2.180  1.8211  1.7169  2.0624
 1599SOL    HW2 4933   1.318   1.675   2.256 -1.9438  0.8515  0.7841
 1600SOL     OW 4934   2.201   3.142   2.978 -0.2949  0.0574 -0.3683
 1600SOL    HW1 4935   2.267   3.187   2.926  0.1817  0.7845  0.8376
 1600SOL    HW2 4936   2.189   3.058   2.934  0.6452  0.3480 -1.2034
 1601SOL     OW 4937   2.943   1.199   2.611  1.0045 -0.1826  0.6359
 1601SOL    HW1 4938   2.868   1.251   2.638  1.1194 -0.4758  1.5506
 1601SOL    HW2 4939   2.961   1.142   2.686  3.7859  1.7003  1.5515
 1602SOL     OW 4940   0.983   2.227   3.207  0.0303 -0.6000  0.1867
 1602SOL    HW1 4941   1.031   2.295   3.161 -1.5162  1.2927  1.2538
 1602SOL    HW2 4942   0.944   2.174   3.138  0.7346 -0.0241 -0.6673
 1603SOL     OW 4943   2.202   1.260   0.636 -0.2106  0.7702 -0.3610
 1603SOL    HW1 4944   2.209   1.315   0.714  0.8904  0.5648 -0.3085
 1603SOL    HW2 4945   2.273   1.289   0.579  0.4660 -0.6542 -0.2878
 1604SOL     OW 4946   1.007   0.253   1.863  0.2212 -0.0804  0.0516
 1604SOL    HW1 4947   0.931   0.218   1.816  1.1313 -1.8349 -0.1592
 1604SOL    HW2 4948   1.050   0.177   1.901  1.4498  0.9606  0.8426
 1605SOL     OW 4949   3.847   0.021   1.089 -0.3168  0.4150 -0.7398
 1605SOL    HW1 4950   3.879   0.032   1.179  0.6670 -0.3420 -0.9748
 1605SOL    HW2 4951   3.863   0.105   1.047  2.9277 -0.3701 -1.2917
 1606SOL     OW 4952   1.239   1.936   0.074 -0.8032 -0.3388  0.2835
 1606SOL    HW1 4953   1.174   1.987   0.123  1.2035  0.4177  2.4109
 1606SOL    HW2 4954   1.220   1.954  -0.018 -3.2095  0.2594  0.8246
 1607SOL     OW 4955   0.089   0.641   3.785  0.4909  0.4299 -0.3501
 1607SOL    HW1 4956   0.103   0.628   3.878  0.6817 -3.1201 -0.7294
 1607SOL    HW2 4957   0.175   0.665   3.751  0.6577  0.7025  0.2547
 1608SOL     OW 4958   0.938   0.166   1.177 -0.5525 -0.1118 -0.2189
 1608SOL    HW1 4959   0.875   0.106   1.217 -2.9674  0.8180 -2.3507
 1608SOL    HW2 4960   0.905   0.253   1.197  0.9885  0.4537 -0.0294
 1609SOL     OW 4961   0.406   1.250   3.549 -0.1568  0.2235  0.5157
 1609SOL    HW1 4962   0.451   1.291   3.623 -1.1173  1.5209  0.4364
 1609SOL    HW2 4963   0.316   1.281   3.557 -1.4966 -3.4677  1.5465
 1610SOL     OW 4964   3.703   3.668   3.957 -0.0407  0.3357 -0.5771
 1610SOL    HW1 4965   3.724   3.746   3.905  0.4997  1.0156  0.6055
 1610SOL    HW2 4966   3.644   3.700   4.026 -0.3398 -0.4302 -0.4695
 1611SOL     OW 4967   2.732   1.944   0.845  0.7260 -0.7679  0.3989
 1611SOL    HW1 4968   2.659   2.004   0.861 -0.0393 -1.6843  0.4307
 1611SOL    HW2 4969   2.791   1.993   0.788  0.7367  0.4683  1.4492
 1612SOL     OW 4970   2.563   2.711   2.374 -0.0684  0.0990  0.1704
 1612SOL    HW1 4971   2.627   2.700   2.304 -0.2718 -0.4514  0.0598
 1612SOL    HW2 4972   2.496   2.644   2.355 -0.0560 -0.1434  0.9650
 1613SOL     OW 4973   3.874   1.913   2.521 -0.5699  0.0299 -0.2453
 1613SOL    HW1 4974   3.945   1.977   2.516 -0.0418 -0.6523 -1.8610
 1613SOL    HW2 4975   3.918   1.828   2.518 -1.4232 -0.4055 -1.1184
 1614SOL     OW 4976   2.574   0.965   1.309 -0.3592  0.3549 -0.0818
 1614SOL    HW1 4977   2.590   1.058   1.299  0.0701  0.1625 -1.2527
 1614SOL    HW2 4978   2.482   0.953   1.284  0.1537  0.1773 -2.0279
 1615SOL     OW 4979   0.140   0.415   3.548 -0.1265  0.0365 -0.3047
 1615SOL    HW1 4980   0.060   0.364   3.559  0.6212 -0.6619  3.5532
 1615SOL    HW2 4981   0.132   0.486   3.612  1.4416  1.2085 -1.3260
 1616SOL     OW 4982   0.521   1.405   0.411 -0.3536  0.0129 -0.5192
 1616SOL    HW1 4983   0.480   1.458   0.342 -2.5860 -0.2898  0.4875
 1616SOL    HW2 4984   0.578   1.466   0.457 -2.4950  1.5033  0.3213
 1617SOL     OW 4985   0.142   2.810   2.313  0.2464  0.1032 -0.0936
 1617SOL    HW1 4986   0.143   2.818   2.408 -1.2904  0.4606 -0.0743
 1617SOL    HW2 4987   0.067   2.863   2.285 -1.6469 -2.8395 -1.1548
 1618SOL     OW 4988   1.327   0.904   2.971 -0.2215 -0.0604 -0.2946
 1618SOL    HW1 4989   1.333   0.883   2.877  1.7818  1.1860 -0.4933
 1618SOL    HW2 4990   1.369   0.830   3.014  2.0131  0.8979 -0.6651
 1619SOL     OW 4991   1.990   3.472   3.009 -0.0653 -0.4067 -0.5254
 1619SOL    HW1 4992   1.975   3.565   3.025 -0.9567 -0.1902 -2.3655
 1619SOL    HW2 4993   2.060   3.470   2.944 -0.2959 -1.0254 -0.7541
 1620SOL     OW 4994   0.115   2.324   0.028 -0.4234 -0.3620  0.3021
 1620SOL    HW1 4995   0.167   2.244   0.036 -0.6687 -0.4496  1.0644
 1620SOL    HW2 4996   0.154   2.385   0.090 -2.3004 -1.0274  2.2413
 1621SOL     OW 4997   2.959   1.272   2.094 -0.3369  0.0149  0.0719
 1621SOL    HW1 4998   3.003   1.216   2.029  1.2800  2.0232 -0.6879
 1621SOL    HW2 4999   3.014   1.266   2.172 -1.6001 -1.4194  0.9112
 1622SOL     OW 5000   1.926   1.072   3.530 -0.6545 -0.4156 -0.2208
 1622SOL    HW1 5001   1.917   0.978   3.517 -1.3411 -0.7599  2.2665
 1622SOL    HW2 5002   1.993   1.080   3.597 -1.8297  0.7615  0.8551
 1623SOL     OW 5003   3.134   2.292   1.903  0.5337  0.0078  0.1671
 1623SOL    HW1 5004   3.110   2.219   1.961 -0.4716  1.1865  1.2818
 1623SOL    HW2 5005   3.077   2.282   1.827 -0.0309 -0.0356  0.5891
 1624SOL     OW 5006   2.400   0.914   3.186  0.3569 -0.0869  0.0747
 1624SOL    HW1 5007   2.432   0.854   3.253 -0.1524  1.5421  1.8619
 1624SOL    HW2 5008   2.477   0.963   3.158  0.6398 -1.0329 -0.8480
 1625SOL     OW 5009   2.585   3.576   0.588 -0.1471 -0.2555 -0.3013
 1625SOL    HW1 5010   2.534   3.496   0.577 -0.4077 -0.0342 -0.6943
 1625SOL    HW2 5011   2.658   3.566   0.527  0.8852 -1.0452  0.9883
 1626SOL     OW 5012   0.470   1.926   1.354  0.0540 -0.6635  0.1156
 1626SOL    HW1 5013   0.531   1.880   1.296  2.3463  0.4528  1.5213
 1626SOL    HW2 5014   0.441   1.860   1.417  1.4418 -0.7822  0.6580
 1627SOL     OW 5015   3.727   1.543   3.278  0.2339  0.1843 -0.2629
 1627SOL    HW1 5016   3.668   1.602   3.325 -0.9567 -1.9945  1.1649
 1627SOL    HW2 5017   3.678   1.517   3.200 -1.5581 -2.7716  1.6347
 1628SOL     OW 5018   1.221   3.745   2.588  0.5143  0.1601 -0.1760
 1628SOL    HW1 5019   1.202   3.657   2.553  0.2509  0.0763  0.1777
 1628SOL    HW2 5020   1.210   3.803   2.513  0.1218 -0.0401 -0.2775
 1629SOL     OW 5021   1.614   1.550   3.813  0.0677  0.3297  0.5280
 1629SOL    HW1 5022   1.558   1.551   3.891 -1.9100  1.9531 -0.8015
 1629SOL    HW2 5023   1.566   1.497   3.749  1.2754 -0.3176  0.1158
 1630SOL     OW 5024   3.673   0.441   3.249  0.4119  0.1014  0.0954
 1630SOL    HW1 5025   3.585   0.461   3.215  1.3173 -0.2082 -2.6305
 1630SOL    HW2 5026   3.695   0.516   3.305 -0.9379  0.9562 -0.4778
 1631SOL     OW 5027   1.208   2.164   0.468  0.1503 -0.0079 -0.4162
 1631SOL    HW1 5028   1.119   2.190   0.490  0.5063  1.3996 -0.5902
 1631SOL    HW2 5029   1.261   2.243   0.480  1.5298 -1.0080  0.4777
 1632SOL     OW 5030   2.995   1.901   3.745  0.3250 -0.1050 -0.8038
 1632SOL    HW1 5031   2.994   1.810   3.715 -0.8171 -1.1795  2.1900
 1632SOL    HW2 5032   2.904   1.922   3.763  0.4328  2.0567 -2.3490
 1633SOL     OW 5033   3.620   2.421   2.624 -0.7195  0.4625  0.3524
 1633SOL    HW1 5034   3.678   2.489   2.658  1.0846 -1.0662  0.4595
 1633SOL    HW2 5035   3.554   2.469   2.574  1.2761  2.2347 -0.7439
 1634SOL     OW 5036   1.546   3.243   3.621 -0.1764 -1.0726  0.4070
 1634SOL    HW1 5037   1.587   3.325   3.592 -0.0791  0.0030  3.2686
 1634SOL    HW2 5038   1.453   3.263   3.627 -0.7101 -2.3023 -2.1466
 1635SOL     OW 5039   2.598   0.620   3.612  0.2711 -0.0731  0.2595
 1635SOL    HW1 5040   2.669   0.679   3.636  0.2256 -0.1095  0.4863
 1635SOL    HW2 5041   2.577   0.574   3.693 -0.8140  0.7941  0.4966
 1636SOL     OW 5042   2.612   2.999   2.447  0.2021 -0.5343 -0.0547
 1636SOL    HW1 5043   2.575   2.922   2.403 -0.1087 -0.2779 -0.2413
 1636SOL    HW2 5044   2.631   2.968   2.536 -1.3691 -0.4305  0.3603
 1637SOL     OW 5045   0.578   1.924   2.944  0.0883  0.5724  0.0162
 1637SOL    HW1 5046   0.606   2.002   2.896 -0.0743  0.6047 -0.0267
 1637SOL    HW2 5047   0.660   1.879   2.967  0.1848 -1.5669 -3.7118
 1638SOL     OW 5048   1.300   0.973   0.419  0.0365  0.0104 -0.2100
 1638SOL    HW1 5049   1.232   0.945   0.359 -0.1694 -0.9393  0.4446
 1638SOL    HW2 5050   1.301   1.069   0.412  0.1812 -0.0910 -1.8739
 1639SOL     OW 5051   2.348   2.422   2.633  0.4001 -0.6332 -0.7862
 1639SOL    HW1 5052   2.287   2.417   2.707 -0.0841 -1.5122 -1.2316
 1639SOL    HW2 5053   2.421   2.365   2.658  1.9452  1.7099  0.5048
 1640SOL     OW 5054   1.841   2.866   2.843  0.2082 -0.4742  0.6715
 1640SOL    HW1 5055   1.900   2.838   2.773  0.5656  0.8756  0.4025
 1640SOL    HW2 5056   1.868   2.955   2.863 -2.5271  0.7351 -0.3772
 1641SOL     OW 5057   3.654   1.545   0.774 -0.3968 -0.6768  0.2670
 1641SOL    HW1 5058   3.616   1.633   0.779  0.2239 -0.4689  2.8462
 1641SOL    HW2 5059   3.586   1.493   0.731 -0.3043  1.2118 -2.4451
 1642SOL     OW 5060   1.022   0.636   2.994 -0.2764 -0.3176  0.0405
 1642SOL    HW1 5061   0.981   0.718   2.966  0.0750 -0.0582  0.2568
 1642SOL    HW2 5062   1.076   0.609   2.920  2.7747  1.7746  1.2555
 1643SOL     OW 5063   0.826   1.970   3.924  0.2008 -0.5698 -0.1103
 1643SOL    HW1 5064   0.785   1.887   3.946  0.1282 -0.8382 -1.2131
 1643SOL    HW2 5065   0.866   1.955   3.838  4.0238 -0.8600  1.5107
 1644SOL     OW 5066   0.223   3.445   1.139  0.0400  0.6473 -0.0224
 1644SOL    HW1 5067   0.290   3.406   1.084  1.8386  1.4371  1.5159
 1644SOL    HW2 5068   0.150   3.383   1.136  2.2586 -2.2145  1.2567
 1645SOL     OW 5069   0.379   2.741   3.062 -0.0195 -0.1006 -0.4668
 1645SOL    HW1 5070   0.438   2.710   2.993  0.1373  0.4197 -0.5661
 1645SOL    HW2 5071   0.318   2.800   3.017  0.6853  1.0086  0.0016
 1646SOL     OW 5072   3.516   3.692   3.411  0.7997 -0.3993  0.1597
 1646SOL    HW1 5073   3.454   3.738   3.468  0.6664  0.4215 -0.6244
 1646SOL    HW2 5074   3.558   3.629   3.469 -1.5367 -1.7724  0.5100
 1647SOL     OW 5075   2.360   3.133   3.641  0.0538 -0.8075  0.2315
 1647SOL    HW1 5076   2.354   3.042   3.613  1.8204 -0.6408 -0.8484
 1647SOL    HW2 5077   2.332   3.133   3.732  0.1429 -2.4409  0.2760
 1648SOL     OW 5078   1.499   2.831   3.053  0.3081  0.5468 -0.0682
 1648SOL    HW1 5079   1.471   2.808   3.142 -1.7803  0.5766 -0.6593
 1648SOL    HW2 5080   1.592   2.851   3.061  0.8057 -2.0346  1.6189
 1649SOL     OW 5081   0.448   2.001   2.012 -0.6128 -1.0614  0.1072
 1649SOL    HW1 5082   0.521   1.951   2.045  1.7284  2.6526  1.1555
 1649SOL    HW2 5083   0.477   2.033   1.926 -1.9503 -1.3470 -0.4831
 1650SOL     OW 5084   2.390   0.159   0.801  0.2885  0.6091 -0.1817
 1650SOL    HW1 5085   2.459   0.116   0.851 -0.0348  1.0298  0.6429
 1650SOL    HW2 5086   2.310   0.113   0.826  0.0202  1.3072  0.2727
 1651SOL     OW 5087   2.196   2.097   0.707 -0.1916 -0.6736 -0.5322
 1651SOL    HW1 5088   2.135   2.169   0.720  2.0043  1.0843  0.6108
 1651SOL    HW2 5089   2.202   2.088   0.612 -0.5642  0.5918 -0.6930
 1652SOL     OW 5090   1.329   3.252   0.473  0.0619 -0.0070 -0.5296
 1652SOL    HW1 5091   1.289   3.309   0.538 -1.2957 -3.1517  1.5844
 1652SOL    HW2 5092   1.417   3.234   0.507  0.0847 -0.0629 -0.6174
 1653SOL     OW 5093   3.335   2.804   2.829 -0.0497 -0.8062 -0.2523
 1653SOL    HW1 5094   3.410   2.863   2.836 -0.6309 -0.0588 -0.2519
 1653SOL    HW2 5095   3.337   2.773   2.738 -2.1680  2.5675 -1.6476
 1654SOL     OW 5096   2.284   3.394   2.164  0.3999 -0.1370 -0.3177
 1654SOL    HW1 5097   2.333   3.446   2.227 -1.8874  0.9662  0.6822
 1654SOL    HW2 5098   2.337   3.315   2.150  2.5273  1.0884  0.4205
 1655SOL     OW 5099   0.596   3.826   1.608  0.5009 -0.0251 -0.8166
 1655SOL    HW1 5100   0.548   3.742   1.610  0.7188 -0.1792  2.1009
 1655SOL    HW2 5101   0.542   3.882   1.553 -1.8640 -0.9138  0.4178
 1656SOL     OW 5102   3.329   0.574   3.529 -0.3580  0.0263  0.0663
 1656SOL    HW1 5103   3.333   0.643   3.462 -0.8208 -0.4274 -0.4373
 1656SOL    HW2 5104   3.237   0.546   3.529 -0.1174 -0.7728  0.0912
 1657SOL     OW 5105   0.741   0.519   0.326  0.7516  0.0007  0.3261
 1657SOL    HW1 5106   0.754   0.614   0.326  1.0985 -0.0448 -0.1301
 1657SOL    HW2 5107   0.788   0.488   0.248 -0.4127 -0.4004 -0.2430
 1658SOL     OW 5108   3.618   2.742   2.225 -0.0987 -0.6442  0.3532
 1658SOL    HW1 5109   3.676   2.666   2.215  0.9290  0.4137 -3.5984
 1658SOL    HW2 5110   3.551   2.730   2.158 -0.7180  1.2252  0.5909
 1659SOL     OW 5111   3.285   2.966   0.880 -0.6977 -0.1402  0.7698
 1659SOL    HW1 5112   3.333   2.883   0.877  0.7848  0.5943  2.2700
 1659SOL    HW2 5113   3.346   3.030   0.841 -1.6927  0.3349 -0.0684
 1660SOL     OW 5114   3.146   3.702   1.048 -0.5430  0.4288 -0.1548
 1660SOL    HW1 5115   3.128   3.754   0.969  2.3736  1.0935 -0.4824
 1660SOL    HW2 5116   3.153   3.612   1.017  2.3753  0.8723 -1.1305
 1661SOL     OW 5117   3.273   3.712   2.894 -0.3641  0.1033 -0.2140
 1661SOL    HW1 5118   3.302   3.622   2.904 -0.3811  0.1308  0.0739
 1661SOL    HW2 5119   3.297   3.755   2.976 -1.3055  0.1070  0.0642
 1662SOL     OW 5120   2.607   2.669   2.687  0.2373 -0.2137  0.0295
 1662SOL    HW1 5121   2.619   2.661   2.592  0.3466  3.0238 -0.3355
 1662SOL    HW2 5122   2.694   2.652   2.723  0.9164  1.2834 -0.7678
 1663SOL     OW 5123   1.933   2.656   1.883  0.9930  1.2705 -0.1067
 1663SOL    HW1 5124   1.851   2.706   1.889  1.2512  1.8709 -1.3089
 1663SOL    HW2 5125   1.905   2.565   1.870  0.5242  1.2435  0.9917
 1664SOL     OW 5126   1.245   1.510   0.679 -0.1273 -0.8181  0.1652
 1664SOL    HW1 5127   1.213   1.490   0.767  2.2135  0.7915  1.4924
 1664SOL    HW2 5128   1.330   1.466   0.673  0.4456  0.3280 -0.6726
 1665SOL     OW 5129   1.648   1.731   3.499 -0.1059 -0.4327 -0.2028
 1665SOL    HW1 5130   1.573   1.728   3.440  0.5104 -0.4062 -0.9950
 1665SOL    HW2 5131   1.658   1.823   3.522 -0.1284 -0.3999 -0.3292
 1666SOL     OW 5132   1.119   3.134   0.317 -0.8769  0.2151  0.0344
 1666SOL    HW1 5133   1.196   3.191   0.318 -0.5638 -0.1328  2.6129
 1666SOL    HW2 5134   1.155   3.046   0.322 -1.4230 -0.1043 -1.2870
 1667SOL     OW 5135   1.876   0.032   1.555  0.3932 -0.8134  0.1464
 1667SOL    HW1 5136   1.880   0.049   1.649  0.3775 -1.1681  0.2132
 1667SOL    HW2 5137   1.939   0.092   1.516 -1.0521  0.8123  0.1802
 1668SOL     OW 5138   2.240   3.498   0.730  0.1394  0.3103  0.0859
 1668SOL    HW1 5139   2.221   3.528   0.819 -0.9008 -0.9574  0.3231
 1668SOL    HW2 5140   2.278   3.411   0.741 -0.2686  0.0202 -0.7241
 1669SOL     OW 5141   2.642   3.237   2.613 -0.2742 -0.1563 -0.1956
 1669SOL    HW1 5142   2.655   3.254   2.520 -0.4917 -0.9075 -0.3764
 1669SOL    HW2 5143   2.712   3.176   2.636  1.2509  1.8500  0.7301
 1670SOL     OW 5144   0.890   0.036   0.509  0.2209 -0.3312 -0.6290
 1670SOL    HW1 5145   0.848  -0.050   0.513 -0.5629  0.0118 -1.2833
 1670SOL    HW2 5146   0.818   0.098   0.497  0.8588  0.3247 -1.1816
 1671SOL     OW 5147   2.526   3.661   1.520  0.0302  0.0559 -0.4266
 1671SOL    HW1 5148   2.617   3.654   1.547 -0.0685 -0.3745 -0.1991
 1671SOL    HW2 5149   2.476   3.658   1.601 -0.3360 -2.2892 -0.6794
 1672SOL     OW 5150   0.588   0.692   0.531 -0.3586  0.5820 -0.4457
 1672SOL    HW1 5151   0.493   0.699   0.536 -0.4153  1.2241 -2.0173
 1672SOL    HW2 5152   0.612   0.637   0.606 -1.9586  0.3507 -0.0737
 1673SOL     OW 5153   2.977   2.658   3.736  0.2567 -0.0476 -0.4354
 1673SOL    HW1 5154   2.931   2.606   3.802 -1.8469  0.2368 -1.5758
 1673SOL    HW2 5155   2.914   2.726   3.711  1.6159  0.8733 -1.5380
 1674SOL     OW 5156   3.939   1.651   0.245  0.0391  0.0537 -0.0528
 1674SOL    HW1 5157   3.888   1.729   0.269  0.6544  0.7145 -0.8080
 1674SOL    HW2 5158   3.900   1.622   0.163  1.6218  1.3216 -1.3192
 1675SOL     OW 5159   0.649   3.155   0.564 -0.6627 -0.1382 -0.1980
 1675SOL    HW1 5160   0.623   3.228   0.508 -0.5778  0.4061  0.4628
 1675SOL    HW2 5161   0.615   3.178   0.651 -1.9037 -1.5623 -0.2616
 1676SOL     OW 5162   1.962   2.872   1.669  0.5570 -0.3347  0.0794
 1676SOL    HW1 5163   1.892   2.933   1.692  1.0457 -0.0967  0.9784
 1676SOL    HW2 5164   1.941   2.792   1.717  0.8198 -0.3090  0.2394
 1677SOL     OW 5165   2.700   3.719   3.167  0.1456 -0.0973  0.4415
 1677SOL    HW1 5166   2.795   3.730   3.161  0.1160  0.3946  0.8108
 1677SOL    HW2 5167   2.686   3.681   3.254 -0.0117  0.0231  0.4695
 1678SOL     OW 5168   1.341   0.523   0.354  0.8260 -0.2610  0.7288
 1678SOL    HW1 5169   1.414   0.523   0.416  1.8428  1.3393 -0.3630
 1678SOL    HW2 5170   1.366   0.460   0.287  1.7063  0.9332 -0.1176
 1679SOL     OW 5171   0.628   2.847   0.597  0.4945 -0.0624 -0.5646
 1679SOL    HW1 5172   0.580   2.849   0.679  1.4314 -0.1933  0.0025
 1679SOL    HW2 5173   0.676   2.930   0.596  2.3813 -1.0835  0.2117
 1680SOL     OW 5174   1.555   2.147   0.859 -0.2820 -0.0707  0.1947
 1680SOL    HW1 5175   1.573   2.091   0.783 -0.7094  2.1231 -1.6083
 1680SOL    HW2 5176   1.459   2.152   0.863 -0.2525  1.0193 -0.0948
 1681SOL     OW 5177   3.342   1.509   2.726  0.6027 -0.0053 -0.4949
 1681SOL    HW1 5178   3.413   1.546   2.778  0.0727  1.4517 -0.7725
 1681SOL    HW2 5179   3.269   1.570   2.736 -0.3732 -1.0672 -0.8381
 1682SOL     OW 5180   0.115   0.286   3.080 -0.0048  0.2837 -0.8519
 1682SOL    HW1 5181   0.170   0.360   3.055 -0.3857  0.9791  0.2709
 1682SOL    HW2 5182   0.177   0.213   3.092  0.2339  0.0051 -3.2732
 1683SOL     OW 5183   3.483   1.311   1.889  0.4707 -0.1576 -0.8413
 1683SOL    HW1 5184   3.454   1.221   1.874  0.2124  0.2254 -2.9473
 1683SOL    HW2 5185   3.462   1.328   1.981 -3.1228 -0.9738 -1.3740
 1684SOL     OW 5186   3.428   1.069   3.393  0.5120  0.1365 -0.4063
 1684SOL    HW1 5187   3.358   1.017   3.433 -0.5966  1.4742 -0.5129
 1684SOL    HW2 5188   3.493   1.005   3.366 -1.2322 -1.3125 -1.4354
 1685SOL     OW 5189   3.778   3.562   3.191  0.1073 -0.0952 -0.5442
 1685SOL    HW1 5190   3.792   3.646   3.236  0.1051 -0.5079  0.2461
 1685SOL    HW2 5191   3.825   3.571   3.108  1.6993  0.0034  0.3303
 1686SOL     OW 5192   2.408   2.587   3.562  0.3323  0.0912  0.1133
 1686SOL    HW1 5193   2.380   2.524   3.496 -2.0515 -0.5565  1.6098
 1686SOL    HW2 5194   2.331   2.642   3.576  1.7065  2.1048  0.3228
 1687SOL     OW 5195   3.053   0.967   2.278  0.1984 -0.5244  0.8074
 1687SOL    HW1 5196   3.044   1.060   2.299 -0.0841 -0.5322  0.7307
 1687SOL    HW2 5197   2.964   0.939   2.254  0.5638 -0.4375 -0.7245
 1688SOL     OW 5198   2.135   0.609   1.279  0.1149 -0.2190  0.4201
 1688SOL    HW1 5199   2.093   0.529   1.312  0.6374  0.2027  2.2228
 1688SOL    HW2 5200   2.075   0.679   1.305 -1.5174 -0.0849 -3.1318
 1689SOL     OW 5201   0.625   1.668   2.169 -0.3264  0.2494  0.2321
 1689SOL    HW1 5202   0.573   1.726   2.224  0.4156 -0.6639  1.9859
 1689SOL    HW2 5203   0.561   1.622   2.114 -1.2433  0.2527  1.2645
 1690SOL     OW 5204   2.210   1.585   2.612 -0.1272  0.4000 -0.0009
 1690SOL    HW1 5205   2.257   1.572   2.529  0.3060  0.7761  0.1788
 1690SOL    HW2 5206   2.137   1.642   2.589  0.8571  1.7564  0.1445
 1691SOL     OW 5207   1.568   3.632   3.366  0.9633 -0.2771 -0.0983
 1691SOL    HW1 5208   1.594   3.597   3.451  0.8201 -2.1223 -0.7605
 1691SOL    HW2 5209   1.498   3.573   3.337  0.9976  0.3320 -1.4917
 1692SOL     OW 5210   0.628   0.293   1.594  0.6266  0.0628 -0.5867
 1692SOL    HW1 5211   0.557   0.251   1.545 -2.2169  3.1580  0.4359
 1692SOL    HW2 5212   0.624   0.385   1.567  1.5500  1.1131  2.4100
 1693SOL     OW 5213   3.633   2.203   0.892  0.3522 -0.0678 -0.1805
 1693SOL    HW1 5214   3.623   2.264   0.819  2.4937  0.7161  0.1135
 1693SOL    HW2 5215   3.698   2.140   0.863  1.2331  0.2550  1.0100
 1694SOL     OW 5216   3.424   3.684   3.121  0.1795 -0.4837  0.2693
 1694SOL    HW1 5217   3.351   3.678   3.183 -0.4018 -1.9302 -0.5139
 1694SOL    HW2 5218   3.503   3.682   3.176 -0.3372  0.6405  1.0956
 1695SOL     OW 5219   3.775   1.246   0.503  0.0160 -0.0821 -0.3534
 1695SOL    HW1 5220   3.775   1.259   0.597  0.4482  2.7900 -0.6609
 1695SOL    HW2 5221   3.724   1.166   0.489  0.1363 -0.6957  2.2830
 1696SOL     OW 5222   1.410   2.627   1.534  0.5381 -0.3389  0.8056
 1696SOL    HW1 5223   1.328   2.608   1.579 -0.0907  0.0504 -0.1677
 1696SOL    HW2 5224   1.410   2.570   1.457  1.3794 -0.6399  1.0168
 1697SOL     OW 5225   3.032   3.098   3.654 -0.4583  0.1273 -0.2501
 1697SOL    HW1 5226   3.063   3.105   3.563 -0.3586  0.1543 -0.2142
 1697SOL    HW2 5227   2.990   3.012   3.658 -0.8207  0.2943 -0.4316
 1698SOL     OW 5228   3.552   0.944   3.067  0.2989  0.0040  0.2093
 1698SOL    HW1 5229   3.552   0.948   3.162 -1.4099 -1.4359  0.3391
 1698SOL    HW2 5230   3.602   0.865   3.046 -1.1817 -0.9450  0.0817
 1699SOL     OW 5231   0.981   2.149   2.259  0.1834  0.0228  0.0443
 1699SOL    HW1 5232   0.950   2.178   2.344 -0.0596 -0.0152 -0.0311
 1699SOL    HW2 5233   1.037   2.074   2.278  0.2001  0.0696  0.1766
 1700SOL     OW 5234   3.133   3.918   0.128  0.4425 -0.0259 -0.5263
 1700SOL    HW1 5235   3.120   4.013   0.123 -1.5085 -0.2323 -0.1170
 1700SOL    HW2 5236   3.064   3.881   0.073  2.5104 -1.2068 -2.5191
 1701SOL     OW 5237   2.682   1.630   0.502  0.7806 -0.0609 -0.1653
 1701SOL    HW1 5238   2.650   1.717   0.524  2.2052  0.8671 -1.5282
 1701SOL    HW2 5239   2.762   1.646   0.451  1.2595 -2.1697 -0.1694
 1702SOL     OW 5240   1.983   1.039   0.130  0.0018  0.3476 -0.7374
 1702SOL    HW1 5241   1.933   1.118   0.109 -0.7114 -0.0905 -0.7311
 1702SOL    HW2 5242   2.002   0.999   0.045  3.4738  2.3030 -1.0917
 1703SOL     OW 5243   3.137   2.636   2.715 -0.3073  0.0446  0.0379
 1703SOL    HW1 5244   3.053   2.651   2.759 -0.1817 -1.4103  0.8191
 1703SOL    HW2 5245   3.203   2.668   2.777 -0.2078 -0.4364  0.1830
 1704SOL     OW 5246   0.007   0.312   1.329  0.5465 -0.3643 -0.2956
 1704SOL    HW1 5247  -0.075   0.350   1.297  2.7616  2.2407 -3.5667
 1704SOL    HW2 5248   0.038   0.374   1.395  0.4438 -0.7312  0.1010
 1705SOL     OW 5249   1.221   1.594   3.840 -0.4195  0.4698  0.3971
 1705SOL    HW1 5250   1.262   1.514   3.872  1.1053  0.8917 -0.4358
 1705SOL    HW2 5251   1.242   1.596   3.747 -0.3025  1.9172  0.4445
 1706SOL     OW 5252   2.454   0.857   1.616 -0.0053 -0.1362 -0.6962
 1706SOL    HW1 5253   2.447   0.767   1.585 -2.3255  0.0933 -0.9690
 1706SOL    HW2 5254   2.385   0.904   1.570 -0.4749  1.2486  1.3013
 1707SOL     OW 5255   3.270   1.812   1.811 -0.5664  0.2983  0.1181
 1707SOL    HW1 5256   3.227   1.799   1.727 -1.1123 -0.5427  0.5090
 1707SOL    HW2 5257   3.360   1.835   1.789 -1.2551  2.4402 -0.7393
 1708SOL     OW 5258   2.978   2.525   0.788  1.0137 -0.1781  0.2485
 1708SOL    HW1 5259   3.032   2.578   0.729  0.6152 -1.1085 -0.9995
 1708SOL    HW2 5260   2.989   2.566   0.874  2.2990  0.7052 -0.3008
 1709SOL     OW 5261   3.176   2.086   3.821  0.1146 -0.1876 -0.0887
 1709SOL    HW1 5262   3.123   2.024   3.770  1.2185 -0.0432 -1.4869
 1709SOL    HW2 5263   3.154   2.067   3.912  0.0363 -2.2973 -0.4995
 1710SOL     OW 5264   1.653   2.925   1.197 -0.8509  0.4985  0.3357
 1710SOL    HW1 5265   1.648   2.915   1.292 -0.5564  0.3024  0.3295
 1710SOL    HW2 5266   1.581   2.871   1.164  0.1734 -0.9209  0.3500
 1711SOL     OW 5267   1.883   2.361   1.792  0.1999 -0.8801  0.1281
 1711SOL    HW1 5268   1.825   2.296   1.832 -1.5782  0.2032 -0.5817
 1711SOL    HW2 5269   1.884   2.337   1.699 -3.4404  2.0026 -0.9142
 1712SOL     OW 5270   1.795   3.208   0.725 -0.4692 -0.5366  0.1185
 1712SOL    HW1 5271   1.772   3.253   0.806 -0.7104 -0.9297  0.2716
 1712SOL    HW2 5272   1.854   3.138   0.753  0.3028 -0.0211 -0.1761
 1713SOL     OW 5273   0.201   1.457   0.630 -0.4587 -0.4462  0.0798
 1713SOL    HW1 5274   0.194   1.361   0.636 -0.0340 -0.4328  1.1970
 1713SOL    HW2 5275   0.167   1.478   0.543 -2.0406 -1.4679  0.3877
 1714SOL     OW 5276   2.088   1.758   3.822  0.2183  0.3579 -0.4824
 1714SOL    HW1 5277   2.091   1.760   3.917  1.6675 -0.4799 -0.4862
 1714SOL    HW2 5278   1.994   1.765   3.801 -0.3877 -1.9086  1.0788
 1715SOL     OW 5279   3.858   3.424   3.489  0.2874  0.2710 -0.1157
 1715SOL    HW1 5280   3.953   3.434   3.485  0.4723 -0.6364  1.1687
 1715SOL    HW2 5281   3.839   3.346   3.436  0.1734  0.8065 -0.8779
 1716SOL     OW 5282   3.104   2.109   2.119  0.4736 -0.5204  0.2588
 1716SOL    HW1 5283   3.020   2.085   2.157 -0.9410  0.2718 -2.1301
 1716SOL    HW2 5284   3.132   2.186   2.169 -0.7687 -0.1427  0.3909
 1717SOL     OW 5285   2.437   3.897   3.509  0.1850  0.1909  0.1637
 1717SOL    HW1 5286   2.345   3.875   3.502  0.6592 -2.2413  0.7661
 1717SOL    HW2 5287   2.483   3.820   3.475  2.0148  1.8912 -1.4510
 1718SOL     OW 5288   2.251   2.229   1.463 -0.0723 -0.6140 -0.3524
 1718SOL    HW1 5289   2.268   2.307   1.411 -0.6615  1.2243  2.0443
 1718SOL    HW2 5290   2.229   2.161   1.399  1.6993  0.8039 -2.5910
 1719SOL     OW 5291   1.872   2.597   0.081 -0.0781 -0.2762  0.4232
 1719SOL    HW1 5292   1.783   2.577   0.109 -0.6527  2.2452  0.5981
 1719SOL    HW2 5293   1.877   2.564  -0.009 -1.2509 -0.2264  0.3271
 1720SOL     OW 5294   2.170   3.119   1.553  0.0038 -0.5712 -0.4226
 1720SOL    HW1 5295   2.212   3.034   1.543  0.6367 -0.1841 -1.2241
 1720SOL    HW2 5296   2.144   3.123   1.645  0.4302 -1.4125 -0.2559
 1721SOL     OW 5297   0.532   1.535   3.909 -0.0559 -0.1786 -0.6032
 1721SOL    HW1 5298   0.571   1.476   3.845  0.3034  0.0601 -0.6047
 1721SOL    HW2 5299   0.475   1.593   3.858 -0.2517 -0.3898 -0.6268
 1722SOL     OW 5300   0.031   3.022   2.127  0.1688 -1.0924 -0.2262
 1722SOL    HW1 5301   0.048   2.940   2.080  0.8699 -0.8733 -0.3791
 1722SOL    HW2 5302   0.118   3.050   2.157  0.0808  0.0821 -1.0101
 1723SOL     OW 5303   3.480   2.232   1.965 -0.0082 -0.8210 -0.2841
 1723SOL    HW1 5304   3.414   2.297   1.940 -0.3572 -0.4392  1.5083
 1723SOL    HW2 5305   3.430   2.156   1.995  0.3554 -0.8457  0.2780
 1724SOL     OW 5306   3.844   2.254   0.591 -0.4294 -0.0069  0.2818
 1724SOL    HW1 5307   3.788   2.188   0.550  1.5427 -0.3673 -2.0374
 1724SOL    HW2 5308   3.912   2.204   0.635  1.4142  0.3368 -1.9746
 1725SOL     OW 5309   3.637   2.959   3.500  0.3855 -0.4252  0.7821
 1725SOL    HW1 5310   3.611   2.881   3.547  1.0077 -0.3563  1.2658
 1725SOL    HW2 5311   3.558   2.990   3.456  0.0748 -1.1549  0.8304
 1726SOL     OW 5312   1.527   3.792   2.410  0.0226 -0.2079  0.0530
 1726SOL    HW1 5313   1.566   3.798   2.323  0.6278 -1.4207  0.2134
 1726SOL    HW2 5314   1.538   3.700   2.435  0.0021  0.1532  1.4810
 1727SOL     OW 5315   2.192   1.091   3.256 -0.4488  0.5317 -0.3839
 1727SOL    HW1 5316   2.165   1.046   3.175 -0.6480 -1.8619  0.9315
 1727SOL    HW2 5317   2.249   1.028   3.300  1.1075  2.4979  0.5412
 1728SOL     OW 5318   1.863   1.017   2.795 -0.4913 -0.2373 -0.5080
 1728SOL    HW1 5319   1.768   1.028   2.800 -0.3908  0.4466  0.1113
 1728SOL    HW2 5320   1.898   1.085   2.853  0.4099  0.1529 -1.4842
 1729SOL     OW 5321   3.436   2.658   3.520  0.3540  0.3836  0.0161
 1729SOL    HW1 5322   3.426   2.588   3.584 -0.7843  0.2600 -0.2803
 1729SOL    HW2 5323   3.363   2.717   3.537  0.3397  0.6263 -0.8276
 1730SOL     OW 5324   0.673   1.575   1.732 -0.4962  0.6207  0.2906
 1730SOL    HW1 5325   0.727   1.566   1.812 -0.3476 -0.9249  0.0494
 1730SOL    HW2 5326   0.734   1.610   1.667 -0.9016  2.9985  1.1128
 1731SOL     OW 5327   2.450   2.198   3.092  0.4995  0.1610 -0.0048
 1731SOL    HW1 5328   2.376   2.139   3.106  0.0513  0.9349  1.1102
 1731SOL    HW2 5329   2.438   2.232   3.003  0.5174 -1.0678 -0.4821
 1732SOL     OW 5330   0.232   1.928   2.156  0.2927 -0.1703 -0.1883
 1732SOL    HW1 5331   0.296   1.951   2.088 -1.6342  1.8883 -1.4265
 1732SOL    HW2 5332   0.148   1.957   2.122 -0.7648  1.3788  3.2180
 1733SOL     OW 5333   0.252   0.943   1.282  0.3275  0.2174  0.1215
 1733SOL    HW1 5334   0.209   0.994   1.213  0.2507  1.3014  0.9246
 1733SOL    HW2 5335   0.180   0.903   1.331  0.3201  0.2910  0.1735
 1734SOL     OW 5336   2.388   2.647   1.781 -0.6450 -0.0228  0.5385
 1734SOL    HW1 5337   2.475   2.684   1.791  0.1748 -1.5258 -0.6528
 1734SOL    HW2 5338   2.378   2.631   1.687 -1.5427 -1.3643  0.8250
 1735SOL     OW 5339   0.697   2.434   0.272 -0.0496 -0.3273 -0.0410
 1735SOL    HW1 5340   0.705   2.507   0.333  0.3451  1.4988 -2.1349
 1735SOL    HW2 5341   0.783   2.391   0.275  0.4340  0.5843 -0.2758
 1736SOL     OW 5342   1.258   3.786   1.869  0.4114  0.0645 -0.0976
 1736SOL    HW1 5343   1.277   3.799   1.776 -1.7529 -0.2866 -0.6298
 1736SOL    HW2 5344   1.342   3.759   1.907  1.9497  2.5388 -1.4358
 1737SOL     OW 5345   0.448   2.377   3.138  0.2468  0.1365  0.0476
 1737SOL    HW1 5346   0.501   2.370   3.217  0.9597  2.3369 -0.1420
 1737SOL    HW2 5347   0.382   2.443   3.159 -1.2522 -1.1752 -0.3620
 1738SOL     OW 5348   0.518   1.607   0.211  1.1444  0.3814 -0.3455
 1738SOL    HW1 5349   0.521   1.588   0.118 -1.9464 -2.2550 -0.0644
 1738SOL    HW2 5350   0.481   1.696   0.216  0.4172  0.1750 -1.6285
 1739SOL     OW 5351   2.569   2.841   1.629  0.3070 -0.0722  0.1981
 1739SOL    HW1 5352   2.613   2.921   1.658 -0.9785 -0.2456  3.0925
 1739SOL    HW2 5353   2.626   2.804   1.563  1.8480  2.2979  0.0847
 1740SOL     OW 5354   1.182   0.752   2.523 -0.4881 -0.0399 -0.6559
 1740SOL    HW1 5355   1.223   0.673   2.487  0.2478  0.1437 -0.2534
 1740SOL    HW2 5356   1.119   0.779   2.456  0.0087 -0.3658 -1.2705
 1741SOL     OW 5357   1.973   3.578   1.759  0.5632 -0.2724 -0.0601
 1741SOL    HW1 5358   1.976   3.562   1.664  0.5560  0.2789 -0.1553
 1741SOL    HW2 5359   1.909   3.515   1.792  1.4082 -1.2647 -0.2543
 1742SOL     OW 5360   1.905   2.894   0.427  0.4721  0.5588 -0.0096
 1742SOL    HW1 5361   1.812   2.903   0.446  0.8930  0.7893  2.2721
 1742SOL    HW2 5362   1.917   2.940   0.344 -1.0266  2.8529  0.9304
 1743SOL     OW 5363   1.434   3.130   3.906  0.0241  0.2699 -0.3909
 1743SOL    HW1 5364   1.505   3.077   3.870  0.6288 -1.1504  2.6384
 1743SOL    HW2 5365   1.469   3.167   3.986 -2.4979 -0.1713  1.0206
 1744SOL     OW 5366   1.076   1.667   3.311  0.0065  0.5378 -0.3300
 1744SOL    HW1 5367   1.075   1.638   3.220  0.3380 -1.1650  0.1564
 1744SOL    HW2 5368   1.067   1.762   3.307 -1.1207  0.3931 -2.0748
 1745SOL     OW 5369   0.315   3.058   0.689  0.4302 -0.2929  0.6312
 1745SOL    HW1 5370   0.275   3.018   0.611 -3.0764  2.8588  0.5374
 1745SOL    HW2 5371   0.352   3.140   0.657 -0.0976  0.5453  2.0912
 1746SOL     OW 5372   1.576   0.533   2.391 -0.5338 -1.0794 -0.0670
 1746SOL    HW1 5373   1.516   0.604   2.368  0.2436 -0.5609 -0.5445
 1746SOL    HW2 5374   1.647   0.577   2.440  0.7416 -1.2499 -1.6890
 1747SOL     OW 5375   1.497   0.144   3.230  0.0367  0.2250 -0.1105
 1747SOL    HW1 5376   1.407   0.173   3.245  0.3814  1.6621 -0.6963
 1747SOL    HW2 5377   1.543   0.168   3.311  0.0230 -0.0324 -0.0231
 1748SOL     OW 5378   2.241   3.464   2.871  0.2996 -0.4974 -0.1777
 1748SOL    HW1 5379   2.264   3.550   2.833 -1.0048 -0.0966 -0.1125
 1748SOL    HW2 5380   2.325   3.417   2.876  0.9136  0.4531 -1.0131
 1749SOL     OW 5381   0.658   3.339   3.293  0.3028 -0.2596  0.2286
 1749SOL    HW1 5382   0.694   3.408   3.348  0.8932  0.4329 -0.9771
 1749SOL    HW2 5383   0.600   3.384   3.232 -0.7698 -1.0760  0.5994
 1750SOL     OW 5384   0.626   1.610   3.309 -0.1732  0.2287  0.0131
 1750SOL    HW1 5385   0.539   1.594   3.347 -0.1746 -2.9311 -0.9815
 1750SOL    HW2 5386   0.616   1.588   3.216  1.5637  0.3203 -0.2320
 1751SOL     OW 5387   0.947   0.178   3.482 -0.1898  0.1547  0.2777
 1751SOL    HW1 5388   1.034   0.180   3.442 -0.0960 -0.6617  0.4245
 1751SOL    HW2 5389   0.888   0.200   3.410  0.1619  1.3204  0.3115
 1752SOL     OW 5390   0.267   1.445   1.899  0.8234 -0.3893 -0.5605
 1752SOL    HW1 5391   0.193   1.433   1.959 -0.7998  0.9106 -2.2140
 1752SOL    HW2 5392   0.328   1.374   1.922 -0.7239 -1.2493  1.1197
 1753SOL     OW 5393   3.238   2.862   3.585 -0.6252 -0.1571 -0.3769
 1753SOL    HW1 5394   3.228   2.907   3.669 -2.0059  1.3054 -1.2685
 1753SOL    HW2 5395   3.160   2.807   3.578  0.1260 -1.3017 -0.1572
 1754SOL     OW 5396   3.831   2.212   3.014  0.3391 -0.5313  0.5421
 1754SOL    HW1 5397   3.738   2.234   3.017  0.4971  0.0779  1.5548
 1754SOL    HW2 5398   3.841   2.161   2.934 -1.3409 -2.7369  1.6292
 1755SOL     OW 5399   1.512   1.426   3.594 -0.2008  0.3551 -0.3370
 1755SOL    HW1 5400   1.536   1.481   3.520  0.0251 -0.0580 -0.5730
 1755SOL    HW2 5401   1.528   1.337   3.564  0.2358  0.2024  0.3289
 1756SOL     OW 5402   0.739   2.604   0.025  0.4507  0.2742  0.1478
 1756SOL    HW1 5403   0.666   2.554   0.062  0.2537  1.2872  1.1655
 1756SOL    HW2 5404   0.724   2.694   0.054  2.3439  0.4250  0.7956
 1757SOL     OW 5405   0.736   2.840   1.520  0.4033  0.0817  0.0949
 1757SOL    HW1 5406   0.791   2.876   1.451  1.7254 -0.0812  1.0353
 1757SOL    HW2 5407   0.665   2.903   1.529  0.1798  0.0944 -1.4110
 1758SOL     OW 5408   1.814   3.220   0.416  0.2054 -0.6307  0.0766
 1758SOL    HW1 5409   1.884   3.231   0.480 -0.5867  1.5627  0.6422
 1758SOL    HW2 5410   1.779   3.308   0.403 -2.0593 -1.5740 -0.6581
 1759SOL     OW 5411   3.332   2.766   2.292  0.0809  0.5742  0.3541
 1759SOL    HW1 5412   3.390   2.803   2.224  0.7706 -0.1655  0.5295
 1759SOL    HW2 5413   3.246   2.763   2.250  0.6659 -0.7709 -0.8631
 1760SOL     OW 5414   3.775   0.688   0.011 -0.5656 -0.4026 -0.0652
 1760SOL    HW1 5415   3.803   0.618   0.070 -1.5655 -1.1100 -0.3905
 1760SOL    HW2 5416   3.740   0.642  -0.066 -0.5966  0.4677 -0.5892
 1761SOL     OW 5417   3.409   1.050   0.662 -0.4330  0.2659  0.5312
 1761SOL    HW1 5418   3.453   1.095   0.589  0.4917 -0.1275  0.8295
 1761SOL    HW2 5419   3.393   0.962   0.629  0.1579  0.0312  0.8596
 1762SOL     OW 5420   0.048   2.249   0.990 -0.4174 -0.8006  0.2631
 1762SOL    HW1 5421  -0.030   2.270   0.938  0.8666 -0.4959 -1.6280
 1762SOL    HW2 5422   0.084   2.334   1.015 -1.0385 -0.9447  1.7383
 1763SOL     OW 5423   2.128   2.450   2.798 -1.1142 -0.4206  0.4168
 1763SOL    HW1 5424   2.078   2.446   2.880 -3.3976 -0.1337 -0.8606
 1763SOL    HW2 5425   2.086   2.385   2.742  0.6554 -0.8764 -0.4503
 1764SOL     OW 5426   2.450   1.833   2.990 -0.2181  0.0913  0.0828
 1764SOL    HW1 5427   2.543   1.831   2.967 -0.2469 -0.2019 -0.0187
 1764SOL    HW2 5428   2.446   1.798   3.079 -0.5982 -3.8366 -1.2528
 1765SOL     OW 5429   1.969   2.246   1.044  0.7869  0.5352 -0.1912
 1765SOL    HW1 5430   1.921   2.249   1.127 -0.9098 -3.9548 -0.7056
 1765SOL    HW2 5431   1.903   2.261   0.977  0.6327 -2.1948 -0.7908
 1766SOL     OW 5432   1.590   1.011   3.467  0.1725 -0.1486 -0.3624
 1766SOL    HW1 5433   1.644   1.090   3.462 -0.1958  0.4107  2.7395
 1766SOL    HW2 5434   1.578   0.985   3.376  3.6498  1.0362 -1.3296
 1767SOL     OW 5435   3.657   1.716   3.777  0.3460  0.2517 -0.1480
 1767SOL    HW1 5436   3.667   1.803   3.738 -1.3291  0.7144  0.4036
 1767SOL    HW2 5437   3.600   1.669   3.717  1.2890 -0.5161 -0.4710
 1768SOL     OW 5438   3.127   0.216   3.874 -0.1890 -0.2556  0.1201
 1768SOL    HW1 5439   3.166   0.295   3.837 -1.0355 -0.2859 -0.8702
 1768SOL    HW2 5440   3.129   0.230   3.969 -0.8317  1.2018 -0.0630
 1769SOL     OW 5441   2.411   1.067   2.788  0.0284 -0.1174  0.1641
 1769SOL    HW1 5442   2.476   1.005   2.823 -0.4624 -0.6720  0.1121
 1769SOL    HW2 5443   2.362   1.016   2.723  1.3218  1.0498 -1.8576
 1770SOL     OW 5444   2.167   0.012   0.873  0.0538 -0.1139  0.0193
 1770SOL    HW1 5445   2.156  -0.051   0.944 -0.9009 -0.8444 -0.7461
 1770SOL    HW2 5446   2.104  -0.015   0.807  1.7543 -0.2294 -1.6637
 1771SOL     OW 5447   0.715   2.608   0.470 -0.7327  0.2171  0.6769
 1771SOL    HW1 5448   0.670   2.547   0.529 -1.9476 -0.8470 -1.2382
 1771SOL    HW2 5449   0.683   2.694   0.496 -1.6645 -0.2862  1.2560
 1772SOL     OW 5450   0.944   0.771   2.416 -0.0621  0.0909 -0.1356
 1772SOL    HW1 5451   0.910   0.849   2.459  1.3887  0.1442  0.9869
 1772SOL    HW2 5452   0.878   0.704   2.430 -0.2269  0.4821  1.0124
 1773SOL     OW 5453   2.356   2.811   0.020  0.2185 -0.0853  0.0932
 1773SOL    HW1 5454   2.400   2.880  -0.030  1.2985 -0.0624  1.0497
 1773SOL    HW2 5455   2.274   2.851   0.050 -0.4058 -0.0609 -1.5318
 1774SOL     OW 5456   3.235   0.974   3.057 -0.2679 -1.0302  0.4574
 1774SOL    HW1 5457   3.194   0.899   3.098  0.4676 -2.3580 -1.1294
 1774SOL    HW2 5458   3.329   0.956   3.061 -0.0530 -0.0287  0.3529
 1775SOL     OW 5459   0.054   2.382   2.817  0.1353  0.0874  0.3394
 1775SOL    HW1 5460   0.020   2.310   2.870 -1.7182 -0.3481 -1.3147
 1775SOL    HW2 5461   0.062   2.345   2.729  2.1562  1.0651  0.0619
 1776SOL     OW 5462   1.918   0.988   0.391  0.2935 -0.9967  0.2527
 1776SOL    HW1 5463   1.951   0.992   0.301  1.0401 -0.1398  0.5602
 1776SOL    HW2 5464   1.904   0.894   0.406 -0.3118 -1.1190 -0.9177
 1777SOL     OW 5465   1.507   2.492   3.082 -0.0454  0.4613  0.2616
 1777SOL    HW1 5466   1.473   2.508   3.170 -0.4741 -1.7249  0.5627
 1777SOL    HW2 5467   1.585   2.546   3.076  0.6943 -0.2530  2.4803
 1778SOL     OW 5468   0.772   3.805   0.097 -0.2581 -0.0444 -0.4673
 1778SOL    HW1 5469   0.752   3.822   0.190 -1.4770  0.8035 -0.8586
 1778SOL    HW2 5470   0.733   3.719   0.080 -1.1927  0.3778 -0.5139
 1779SOL     OW 5471   3.827   3.176   3.402 -0.0506 -0.7213 -0.3237
 1779SOL    HW1 5472   3.887   3.154   3.330 -0.4198 -1.9093 -0.3013
 1779SOL    HW2 5473   3.753   3.116   3.390 -0.8624  0.1626  0.1275
 1780SOL     OW 5474   2.564   1.978   1.345  0.1656 -0.3098  0.1023
 1780SOL    HW1 5475   2.521   1.896   1.371  2.7270 -1.2643  1.7216
 1780SOL    HW2 5476   2.552   1.981   1.250 -0.6959 -2.1432  0.0948
 1781SOL     OW 5477   0.991   1.118   3.547  0.9813 -0.4899 -0.2327
 1781SOL    HW1 5478   0.972   1.212   3.545  2.0007 -0.2409  0.8650
 1781SOL    HW2 5479   0.910   1.077   3.517  0.4186  0.7160 -0.4351
 1782SOL     OW 5480   3.041   3.233   1.749  0.3244 -0.2314 -0.5139
 1782SOL    HW1 5481   3.093   3.288   1.691  1.3340  0.1794  0.7275
 1782SOL    HW2 5482   2.969   3.289   1.777 -0.3786 -0.5533 -1.6415
 1783SOL     OW 5483   0.016   0.028   1.365  0.6336  0.0297  0.0356
 1783SOL    HW1 5484   0.045   0.019   1.455  0.8486  1.3658  0.1295
 1783SOL    HW2 5485   0.025   0.122   1.346 -0.3728 -0.0548 -1.0397
 1784SOL     OW 5486   1.868   1.803   0.913  0.4429  0.0425  0.4819
 1784SOL    HW1 5487   1.828   1.867   0.973  0.7307 -0.4853  1.2557
 1784SOL    HW2 5488   1.796   1.748   0.884  0.5286 -0.6807  1.5860
 1785SOL     OW 5489   2.485   1.862   3.287 -0.1821 -0.0126 -0.4893
 1785SOL    HW1 5490   2.494   1.871   3.382 -0.3905 -0.3452 -0.4346
 1785SOL    HW2 5491   2.544   1.928   3.251  0.8391 -0.7003 -0.1391
 1786SOL     OW 5492   0.427   1.417   2.548 -0.0775 -0.4955  0.8998
 1786SOL    HW1 5493   0.499   1.356   2.535  0.4709  0.1058  1.0551
 1786SOL    HW2 5494   0.387   1.426   2.461  0.7694  0.0661  0.5569
 1787SOL     OW 5495   2.618   2.413   0.093  0.2110 -0.1039 -0.4515
 1787SOL    HW1 5496   2.616   2.427  -0.002  2.5582 -1.1812 -0.7384
 1787SOL    HW2 5497   2.626   2.318   0.102  2.3843  0.1123  0.6804
 1788SOL     OW 5498   1.781   1.152   2.140  0.1842  0.4656 -0.3879
 1788SOL    HW1 5499   1.773   1.221   2.074 -2.3868 -0.4920 -1.2114
 1788SOL    HW2 5500   1.729   1.080   2.105  1.4701 -1.3270  1.1870
 1789SOL     OW 5501   2.343   2.544   2.390 -0.0531 -0.0681 -0.1266
 1789SOL    HW1 5502   2.364   2.510   2.477 -0.1777 -0.0770 -0.0994
 1789SOL    HW2 5503   2.249   2.563   2.394  0.3565  2.0673  0.4704
 1790SOL     OW 5504   0.844   1.798   3.381  0.0309  0.0317  0.0616
 1790SOL    HW1 5505   0.923   1.744   3.392  0.7158  1.1181  0.7173
 1790SOL    HW2 5506   0.774   1.735   3.365  1.2192 -0.9160 -1.7287
 1791SOL     OW 5507   2.222   3.581   1.197  0.5388 -0.0075  0.5025
 1791SOL    HW1 5508   2.212   3.634   1.276  1.0162 -0.6524  1.0022
 1791SOL    HW2 5509   2.278   3.508   1.223 -1.2070 -1.5129  0.1842
 1792SOL     OW 5510   1.933   3.938   2.593  0.1702 -0.0564 -0.7614
 1792SOL    HW1 5511   1.963   4.026   2.569  0.4485 -0.4249 -1.8568
 1792SOL    HW2 5512   1.838   3.946   2.597  0.1444  0.1554 -1.5295
 1793SOL     OW 5513   3.346   1.831   2.261 -1.0782 -0.5132 -0.1557
 1793SOL    HW1 5514   3.294   1.892   2.314 -0.9756 -0.7113  0.1819
 1793SOL    HW2 5515   3.388   1.886   2.195 -0.3113 -0.0728  0.6598
 1794SOL     OW 5516   1.117   1.884   2.079  0.0234 -0.7090  0.4463
 1794SOL    HW1 5517   1.137   1.882   2.173  0.0964  1.5520  0.5351
 1794SOL    HW2 5518   1.202   1.901   2.037 -0.4844  1.7954  0.2880
 1795SOL     OW 5519   1.244   0.438   2.065 -0.4244  0.1499 -0.0758
 1795SOL    HW1 5520   1.229   0.375   2.135 -1.4798  0.5209  0.0534
 1795SOL    HW2 5521   1.171   0.499   2.072  0.6650  1.5042 -0.0711
 1796SOL     OW 5522   2.731   1.267   3.385  0.8393 -0.2279  0.3366
 1796SOL    HW1 5523   2.809   1.236   3.431  1.1270  1.6073  1.1749
 1796SOL    HW2 5524   2.765   1.313   3.308  0.5830  0.2824  0.5207
 1797SOL     OW 5525   0.154   1.163   2.840 -0.4612 -0.6014 -0.1351
 1797SOL    HW1 5526   0.080   1.221   2.855  0.9438  0.9359  1.1941
 1797SOL    HW2 5527   0.230   1.221   2.831  0.6544 -2.1278 -1.1944
 1798SOL     OW 5528   0.910   0.422   1.264 -0.0770  0.4253  0.3173
 1798SOL    HW1 5529   0.849   0.473   1.317 -1.6199  0.1249 -1.0505
 1798SOL    HW2 5530   0.997   0.455   1.287 -0.7930  1.2830  1.9185
 1799SOL     OW 5531   1.170   0.550   0.609  1.3283  0.5494 -0.0042
 1799SOL    HW1 5532   1.193   0.615   0.543 -0.8902  0.3074 -1.1173
 1799SOL    HW2 5533   1.175   0.466   0.563 -0.2046  0.3768  0.0903
 1800SOL     OW 5534   0.892   3.560   3.207 -0.5898  0.4211 -0.1283
 1800SOL    HW1 5535   0.932   3.598   3.129  1.3830 -1.5545 -0.1843
 1800SOL    HW2 5536   0.958   3.571   3.276 -1.5517  0.5113  0.8038
 1801SOL     OW 5537   2.001   2.306   0.609 -0.4715  0.4307 -0.1078
 1801SOL    HW1 5538   1.966   2.252   0.680 -0.7424  0.3535 -0.3016
 1801SOL    HW2 5539   1.941   2.292   0.536  0.8490 -0.9987 -0.9886
 1802SOL     OW 5540   2.119   2.221   0.264 -0.4033 -0.3458 -0.4656
 1802SOL    HW1 5541   2.183   2.160   0.227  1.5505  0.6570  1.0692
 1802SOL    HW2 5542   2.164   2.305   0.264 -1.8305  0.4603  0.4533
 1803SOL     OW 5543   1.033   0.147   3.143 -0.4031  0.1386 -0.0011
 1803SOL    HW1 5544   1.004   0.060   3.114 -1.9279 -0.2999  2.4791
 1803SOL    HW2 5545   0.952   0.196   3.155  0.0483  0.3625  2.9129
 1804SOL     OW 5546   0.506   3.272   0.801  0.3321 -0.6714 -0.0911
 1804SOL    HW1 5547   0.511   3.363   0.771 -0.8453 -0.3518  0.6358
 1804SOL    HW2 5548   0.435   3.271   0.865  0.3984 -2.0859 -0.0021
 1805SOL     OW 5549   2.231   0.941   1.490 -0.0468 -0.2164  0.5969
 1805SOL    HW1 5550   2.193   0.881   1.426 -3.0956  0.8676  1.2477
 1805SOL    HW2 5551   2.262   1.015   1.437  0.8369 -0.9198  0.0956
 1806SOL     OW 5552   0.456   0.327   1.355 -0.1193 -0.1765  0.0588
 1806SOL    HW1 5553   0.411   0.388   1.413  0.5410  0.5987 -0.2215
 1806SOL    HW2 5554   0.454   0.369   1.269  1.1428 -0.0973  0.0477
 1807SOL     OW 5555   1.368   3.147   3.186  0.7214 -0.2168  0.9780
 1807SOL    HW1 5556   1.388   3.074   3.244  1.5536 -1.3995 -0.7149
 1807SOL    HW2 5557   1.274   3.141   3.170  0.5494 -0.0901  1.8926
 1808SOL     OW 5558   0.744   0.298   2.743 -0.1091 -0.2406 -0.3818
 1808SOL    HW1 5559   0.833   0.280   2.772 -1.4444 -0.9088  4.1052
 1808SOL    HW2 5560   0.704   0.212   2.731 -0.7826 -0.0121  0.1328
 1809SOL     OW 5561   3.118   0.242   0.179  0.3547 -0.0303 -0.1614
 1809SOL    HW1 5562   3.159   0.325   0.203  0.0060 -0.1744  0.9870
 1809SOL    HW2 5563   3.051   0.228   0.245 -2.1672  0.5810 -2.3836
 1810SOL     OW 5564   2.653   0.399   0.192  0.4729  0.0928  0.2763
 1810SOL    HW1 5565   2.620   0.314   0.162 -0.7289  0.7332 -0.2968
 1810SOL    HW2 5566   2.580   0.437   0.241  1.5567  0.1191  1.9183
 1811SOL     OW 5567   1.041   2.292   0.882  0.2386 -0.1568 -0.4491
 1811SOL    HW1 5568   1.055   2.355   0.811  0.0555 -1.1633 -1.4021
 1811SOL    HW2 5569   0.959   2.248   0.860 -0.1136 -0.1144  0.6910
 1812SOL     OW 5570   2.992   2.828   0.089 -0.4910  0.9045 -0.3498
 1812SOL    HW1 5571   3.008   2.736   0.069  0.9020  0.6871  1.4724
 1812SOL    HW2 5572   2.900   2.832   0.116 -0.4072 -0.0941  0.1225
 1813SOL     OW 5573   0.652   0.818   2.839 -0.5582  0.1803  0.1998
 1813SOL    HW1 5574   0.656   0.852   2.750  0.3363  0.5900  0.3861
 1813SOL    HW2 5575   0.740   0.829   2.873 -0.7157 -0.6248  0.9054
 1814SOL     OW 5576   1.757   1.842   1.281 -0.5020  0.1579 -0.2719
 1814SOL    HW1 5577   1.722   1.926   1.252  0.8820 -0.4121 -4.3532
 1814SOL    HW2 5578   1.835   1.864   1.332 -1.1199  1.3403  0.1918
 1815SOL     OW 5579   1.655   3.710   0.220  0.6957 -0.5537 -0.3887
 1815SOL    HW1 5580   1.564   3.688   0.202  0.5752  0.3902 -0.9750
 1815SOL    HW2 5581   1.681   3.767   0.148  1.7070 -0.6882 -0.1464
 1816SOL     OW 5582   0.817   3.284   2.844 -0.8607  0.4789  0.5184
 1816SOL    HW1 5583   0.808   3.315   2.935  0.1586  0.0131  0.7985
 1816SOL    HW2 5584   0.798   3.190   2.849  0.8337  0.0967  0.5904
 1817SOL     OW 5585   2.244   0.240   1.092 -0.0487  1.5792 -0.4367
 1817SOL    HW1 5586   2.248   0.324   1.138  2.2823  1.1613  0.2851
 1817SOL    HW2 5587   2.335   0.220   1.072 -0.2191 -1.7611  1.3585
 1818SOL     OW 5588   2.538   3.875   3.774 -0.0365 -0.0982  0.2191
 1818SOL    HW1 5589   2.505   3.901   3.688  2.6034  0.3385 -0.7357
 1818SOL    HW2 5590   2.575   3.788   3.760  0.2559 -0.0988  0.9704
 1819SOL     OW 5591   0.643   1.053   2.336 -0.4403 -0.3336 -0.1513
 1819SOL    HW1 5592   0.668   1.013   2.253 -0.0229  0.5605 -0.4562
 1819SOL    HW2 5593   0.662   1.146   2.326  0.2422 -0.3047  1.1796
 1820SOL     OW 5594   3.711   0.398   1.261 -0.3403  0.3341  0.2395
 1820SOL    HW1 5595   3.724   0.413   1.167  3.3088  1.7978  0.8085
 1820SOL    HW2 5596   3.620   0.424   1.276 -1.7039 -1.7999 -3.1242
 1821SOL     OW 5597   1.686   2.772   1.800 -0.5463  0.7088  0.8756
 1821SOL    HW1 5598   1.633   2.833   1.852 -1.2000  0.3723  0.6068
 1821SOL    HW2 5599   1.623   2.710   1.763 -0.0858  0.9231 -0.3020
 1822SOL     OW 5600   2.233   3.237   2.476  0.9336 -0.4161 -0.5569
 1822SOL    HW1 5601   2.166   3.230   2.407 -1.5590 -0.7688  1.7211
 1822SOL    HW2 5602   2.244   3.147   2.507  1.4477 -0.1578  0.0186
 1823SOL     OW 5603   0.103   3.207   0.422  0.5627  0.4233  0.1710
 1823SOL    HW1 5604   0.184   3.187   0.375  0.9974 -1.1914  1.5274
 1823SOL    HW2 5605   0.033   3.176   0.364  1.0193  0.0005 -0.1602
 1824SOL     OW 5606   0.494   1.146   0.288  0.3310  0.2591 -0.3229
 1824SOL    HW1 5607   0.412   1.103   0.312  0.4294  0.3835  0.2539
 1824SOL    HW2 5608   0.489   1.232   0.330  1.4237 -0.3039  1.0032
 1825SOL     OW 5609   3.351   3.566   0.347 -0.1900  0.1599 -0.2375
 1825SOL    HW1 5610   3.367   3.539   0.438 -0.7578  3.0308  0.8425
 1825SOL    HW2 5611   3.257   3.586   0.344 -0.2735 -0.3446 -1.6009
 1826SOL     OW 5612   1.224   1.196   3.746  0.4617 -0.2533  0.2769
 1826SOL    HW1 5613   1.188   1.255   3.681 -1.9150  0.0934  1.7734
 1826SOL    HW2 5614   1.270   1.129   3.696 -0.0698  0.7630 -1.6486
 1827SOL     OW 5615   3.800   1.241   2.836  0.0334  0.6146  0.0358
 1827SOL    HW1 5616   3.811   1.326   2.879 -1.6172 -0.7933  3.7328
 1827SOL    HW2 5617   3.736   1.256   2.767 -0.0156  2.3935  0.4219
 1828SOL     OW 5618   0.579   3.087   1.567 -0.1808  0.1406  0.7253
 1828SOL    HW1 5619   0.575   3.119   1.657  3.6680  0.3734  0.9797
 1828SOL    HW2 5620   0.580   3.166   1.513  0.0818  0.1189  0.6937
 1829SOL     OW 5621   3.572   2.062   3.631 -0.2292 -0.4127  0.0720
 1829SOL    HW1 5622   3.514   2.093   3.701  0.5513 -0.2486  0.6525
 1829SOL    HW2 5623   3.565   2.128   3.562 -1.6961 -1.0205 -0.4060
 1830SOL     OW 5624   3.396   0.544   1.708 -0.2856 -0.5526  0.5700
 1830SOL    HW1 5625   3.449   0.498   1.644 -1.9686 -0.3015 -1.1152
 1830SOL    HW2 5626   3.317   0.490   1.718 -0.2274 -0.4102  2.2078
 1831SOL     OW 5627   2.147   3.011   3.459  0.2725 -0.0823  0.0692
 1831SOL    HW1 5628   2.095   3.069   3.515  0.7833 -1.1549  1.7141
 1831SOL    HW2 5629   2.083   2.972   3.399 -0.2394  1.3105 -0.3474
 1832SOL     OW 5630   2.714   2.780   1.080  0.5724 -0.4368 -0.8626
 1832SOL    HW1 5631   2.698   2.836   1.156  0.4403 -0.7937 -0.6224
 1832SOL    HW2 5632   2.748   2.839   1.013 -1.9960  0.4371 -1.4962
 1833SOL     OW 5633   0.761   3.775   2.289  0.2343  0.1241  0.4287
 1833SOL    HW1 5634   0.686   3.717   2.277 -0.5652  1.3392 -0.7538
 1833SOL    HW2 5635   0.836   3.716   2.298 -0.6751 -1.0983  0.3012
 1834SOL     OW 5636   3.677   2.609   0.313 -0.0633  0.4817  0.1144
 1834SOL    HW1 5637   3.757   2.558   0.326  0.2445  0.7929 -0.5104
 1834SOL    HW2 5638   3.639   2.574   0.233 -2.1191 -1.6591  1.8633
 1835SOL     OW 5639   3.361   0.193   2.036 -0.0618 -0.5465  0.6971
 1835SOL    HW1 5640   3.414   0.268   2.008  2.3920 -2.6308 -0.7937
 1835SOL    HW2 5641   3.384   0.180   2.128  0.0182  0.1298  0.7731
 1836SOL     OW 5642   1.411   0.066   2.156 -0.6485  0.4004  0.1805
 1836SOL    HW1 5643   1.495   0.063   2.109 -1.6271  1.4858 -1.7140
 1836SOL    HW2 5644   1.407   0.154   2.192 -1.1609  0.5026 -0.1173
 1837SOL     OW 5645   3.247   0.242   2.503  0.4195 -0.2287 -0.5755
 1837SOL    HW1 5646   3.209   0.330   2.504 -1.9915 -1.1639  0.4750
 1837SOL    HW2 5647   3.327   0.249   2.555  0.5213  1.4199 -0.9090
 1838SOL     OW 5648   3.454   1.176   0.423  0.2244  0.4772  0.3558
 1838SOL    HW1 5649   3.543   1.142   0.429  0.2942  0.4965 -0.5140
 1838SOL    HW2 5650   3.413   1.124   0.353 -0.5816  0.1662  1.0343
 1839SOL     OW 5651   0.905   3.242   1.684 -0.3162 -0.5067  0.7053
 1839SOL    HW1 5652   0.818   3.237   1.645 -0.2291 -1.1538  0.5802
 1839SOL    HW2 5653   0.917   3.334   1.707 -0.5090 -0.1817 -0.4568
 1840SOL     OW 5654   1.441   3.829   3.191  0.5526  0.2622 -0.3815
 1840SOL    HW1 5655   1.458   3.923   3.200  2.1297  0.2986 -2.8583
 1840SOL    HW2 5656   1.500   3.788   3.253 -0.0033  0.8597  0.5728
 1841SOL     OW 5657   3.197   2.534   3.717 -0.2357 -0.1419  0.4065
 1841SOL    HW1 5658   3.201   2.503   3.626  0.2326 -0.1826  0.4384
 1841SOL    HW2 5659   3.128   2.599   3.717 -1.4492 -1.3793  0.3874
 1842SOL     OW 5660   0.676   1.549   3.649 -0.1116 -0.0625 -0.4371
 1842SOL    HW1 5661   0.667   1.522   3.557  0.4960  1.7536 -1.0659
 1842SOL    HW2 5662   0.658   1.643   3.649  2.3570  0.5011  0.8702
 1843SOL     OW 5663   2.493   3.100   0.331  0.1283 -0.1113 -0.2842
 1843SOL    HW1 5664   2.582   3.108   0.364  0.5272  1.0057 -1.5953
 1843SOL    HW2 5665   2.458   3.022   0.376  1.3555  0.1080  1.1034
 1844SOL     OW 5666   3.664   0.922   3.379  0.1531 -0.5487  0.0065
 1844SOL    HW1 5667   3.705   0.864   3.442  0.8043  1.4679  1.5473
 1844SOL    HW2 5668   3.733   0.983   3.353 -0.5092 -0.3902 -1.4972
 1845SOL     OW 5669   2.449   0.765   0.278 -0.2091 -0.2223  0.0485
 1845SOL    HW1 5670   2.446   0.705   0.352 -1.1792  0.2009  0.3739
 1845SOL    HW2 5671   2.445   0.853   0.317  1.9130  0.1157 -0.3789
 1846SOL     OW 5672   3.110   2.442   2.515 -0.0111  0.8241 -0.5921
 1846SOL    HW1 5673   3.169   2.372   2.543  1.2180  1.6410 -1.0286
 1846SOL    HW2 5674   3.150   2.522   2.551  0.5572  1.6838 -2.9519
 1847SOL     OW 5675   1.931   2.308   2.691  0.8355  0.4534 -0.1449
 1847SOL    HW1 5676   1.856   2.365   2.672  0.0971 -0.2298  0.6014
 1847SOL    HW2 5677   1.902   2.221   2.665  0.9458  0.0038  1.1408
 1848SOL     OW 5678   0.774   2.294   1.530  0.0187 -0.0160 -0.1204
 1848SOL    HW1 5679   0.731   2.380   1.524  1.5230  0.6977 -1.7128
 1848SOL    HW2 5680   0.792   2.283   1.623 -1.4406  0.7476  0.2841
 1849SOL     OW 5681   0.673   0.908   3.719  0.1676 -0.0440  0.3041
 1849SOL    HW1 5682   0.652   0.955   3.638 -2.0294  0.1198  0.9155
 1849SOL    HW2 5683   0.766   0.888   3.711  0.1957  0.6710 -1.8982
 1850SOL     OW 5684   0.245   0.335   0.359 -0.1566 -0.1509  0.1606
 1850SOL    HW1 5685   0.327   0.383   0.350 -0.0436 -0.7047 -2.3667
 1850SOL    HW2 5686   0.263   0.249   0.322 -2.2099  0.1823 -1.8656
 1851SOL     OW 5687   3.637   2.577   0.030 -0.2617  0.7672  0.0312
 1851SOL    HW1 5688   3.687   2.500   0.005  0.2866  0.6457  1.3870
 1851SOL    HW2 5689   3.546   2.554   0.011 -0.0422  0.0214 -0.1315
 1852SOL     OW 5690   3.295   0.752   2.845  0.4402 -0.3463  0.1260
 1852SOL    HW1 5691   3.350   0.675   2.846  3.4694  1.6200  2.0004
 1852SOL    HW2 5692   3.262   0.759   2.935  2.0389  1.5905  0.6454
 1853SOL     OW 5693   3.058   2.872   2.914  0.0835  0.2037  0.5463
 1853SOL    HW1 5694   3.150   2.857   2.890 -0.9429 -4.3197 -1.5159
 1853SOL    HW2 5695   3.053   2.843   3.006  1.1173  3.1867  1.6469
 1854SOL     OW 5696   2.730   2.783   0.165 -0.2154  0.3673  0.1426
 1854SOL    HW1 5697   2.699   2.873   0.174  0.5276  0.5840  0.6562
 1854SOL    HW2 5698   2.730   2.749   0.255  2.1359  0.7777  0.3722
 1855SOL     OW 5699   0.127   1.697   2.959  0.3095  0.2112 -0.1683
 1855SOL    HW1 5700   0.103   1.788   2.942  0.0716  0.3274  0.7345
 1855SOL    HW2 5701   0.214   1.687   2.920 -0.1559  0.4790 -1.3130
 1856SOL     OW 5702   2.923   3.723   0.089  0.3508 -0.2002 -0.0881
 1856SOL    HW1 5703   2.839   3.769   0.093  0.9152  0.8098  3.0003
 1856SOL    HW2 5704   2.916   3.656   0.156  1.8728 -0.3135 -0.0149
 1857SOL     OW 5705   2.479   0.593   2.679  0.5732 -0.3233  0.1075
 1857SOL    HW1 5706   2.519   0.648   2.612 -0.9359  0.7634  0.0358
 1857SOL    HW2 5707   2.385   0.595   2.659  0.3778 -2.2777  0.6096
 1858SOL     OW 5708   0.660   2.023   2.201  0.1831  0.0527  0.1581
 1858SOL    HW1 5709   0.734   2.068   2.162  1.3069 -2.4375 -0.8429
 1858SOL    HW2 5710   0.625   2.084   2.265  3.5637  1.0758  1.2303
 1859SOL     OW 5711   1.243   3.443   3.092 -0.5197 -0.8149  0.0592
 1859SOL    HW1 5712   1.244   3.538   3.101  0.8581 -0.5849 -1.9432
 1859SOL    HW2 5713   1.317   3.413   3.146  0.1296 -0.5782 -0.6908
 1860SOL     OW 5714   1.353   1.061   2.419  0.6623  0.2140 -0.0075
 1860SOL    HW1 5715   1.368   1.141   2.470  1.4303 -0.2363  0.4859
 1860SOL    HW2 5716   1.434   1.012   2.427  0.9590  0.3085 -2.0382
 1861SOL     OW 5717   0.311   1.736   1.479 -0.5839  0.0471 -0.0525
 1861SOL    HW1 5718   0.358   1.680   1.541 -1.0961 -1.4754 -0.9767
 1861SOL    HW2 5719   0.220   1.734   1.508 -0.6996 -0.0742 -0.4114
 1862SOL     OW 5720   0.211   3.721   0.206  0.3451 -0.1196 -0.1584
 1862SOL    HW1 5721   0.182   3.746   0.118 -0.6508  0.2621  0.2557
 1862SOL    HW2 5722   0.133   3.732   0.261  0.7370 -1.0936  0.6387
 1863SOL     OW 5723   3.764   1.675   2.641 -0.6917  0.0043  0.1098
 1863SOL    HW1 5724   3.799   1.759   2.669 -0.5857  0.3806 -1.0918
 1863SOL    HW2 5725   3.832   1.612   2.665 -0.4745  0.3453  0.4088
 1864SOL     OW 5726   3.590   2.914   1.817  0.1277 -0.0176 -0.1638
 1864SOL    HW1 5727   3.677   2.887   1.787 -0.2074 -0.9596 -0.3081
 1864SOL    HW2 5728   3.559   2.974   1.749 -0.2058 -1.3547 -1.2452
 1865SOL     OW 5729   0.306   0.430   2.926 -0.2616  0.1734 -0.1959
 1865SOL    HW1 5730   0.365   0.470   2.861 -2.4359  0.3754 -2.1535
 1865SOL    HW2 5731   0.251   0.371   2.875 -1.3790 -0.4539  1.6590
 1866SOL     OW 5732   3.019   0.722   3.526  0.1517  0.6168 -0.0993
 1866SOL    HW1 5733   2.976   0.749   3.607  1.0010  1.0374  0.2213
 1866SOL    HW2 5734   2.962   0.755   3.456 -1.5269 -1.2585  0.2923
 1867SOL     OW 5735   3.361   2.155   0.173 -0.6231  0.7212 -0.4586
 1867SOL    HW1 5736   3.349   2.249   0.158  1.2674  0.9688 -0.7099
 1867SOL    HW2 5737   3.281   2.127   0.218 -1.2255  2.4364 -0.3905
 1868SOL     OW 5738   2.569   0.721   0.040  0.1606 -0.2897  0.0593
 1868SOL    HW1 5739   2.517   0.644   0.018 -0.1924  0.0672 -0.3762
 1868SOL    HW2 5740   2.553   0.735   0.133  1.1104 -1.3987  0.4194
 1869SOL     OW 5741   1.108   0.839   1.280  0.5219  0.3655 -0.4447
 1869SOL    HW1 5742   1.063   0.811   1.201  0.1878 -2.3872  0.6194
 1869SOL    HW2 5743   1.068   0.923   1.302 -1.8441 -0.4535 -1.3097
 1870SOL     OW 5744   1.824   1.718   0.635  0.4071  0.4816  0.7435
 1870SOL    HW1 5745   1.860   1.798   0.675  1.1803  0.8923 -0.7230
 1870SOL    HW2 5746   1.894   1.653   0.645  0.2097  0.2988  0.9441
 1871SOL     OW 5747   0.703   3.023   2.857  0.5005 -0.0437  0.2072
 1871SOL    HW1 5748   0.668   2.948   2.810 -0.9882  0.9707 -0.3810
 1871SOL    HW2 5749   0.665   3.016   2.945 -2.0259  1.4978 -0.6614
 1872SOL     OW 5750   3.469   1.563   3.613 -0.2781  0.0003 -0.9739
 1872SOL    HW1 5751   3.384   1.557   3.568 -1.3553  1.2019  0.7653
 1872SOL    HW2 5752   3.448   1.544   3.705  1.3606  0.2564 -0.5298
 1873SOL     OW 5753   1.915   1.240   3.273 -0.9291  0.1060 -0.5784
 1873SOL    HW1 5754   1.926   1.175   3.342  1.2522  0.9315 -0.0727
 1873SOL    HW2 5755   2.002   1.278   3.261 -2.4225  4.5594  0.7582
 1874SOL     OW 5756   2.620   1.076   3.146 -0.1003  0.7189 -0.0640
 1874SOL    HW1 5757   2.636   1.150   3.204  0.6477  0.7463 -0.2878
 1874SOL    HW2 5758   2.694   1.017   3.162 -1.0770 -0.3393  0.6661
 1875SOL     OW 5759   3.722   0.118   3.366 -0.2482  0.1254 -0.5652
 1875SOL    HW1 5760   3.684   0.037   3.398  0.7188 -0.7735 -1.6107
 1875SOL    HW2 5761   3.766   0.156   3.443 -0.8874 -0.2218 -0.0219
 1876SOL     OW 5762   1.197   3.279   2.196  0.0420  0.0944 -0.0595
 1876SOL    HW1 5763   1.169   3.192   2.166  0.3700 -1.0111  2.5814
 1876SOL    HW2 5764   1.252   3.261   2.272  0.9281  2.6063 -0.0362
 1877SOL     OW 5765   1.539   3.665   1.673 -0.2410  0.7927 -0.1148
 1877SOL    HW1 5766   1.586   3.592   1.632 -2.5024 -0.3763 -0.7662
 1877SOL    HW2 5767   1.553   3.653   1.767 -1.1749 -0.9780 -0.1597
 1878SOL     OW 5768   2.210   1.534   3.741 -0.5189  0.2039  0.1494
 1878SOL    HW1 5769   2.202   1.569   3.652 -1.0936 -0.4164 -0.0487
 1878SOL    HW2 5770   2.175   1.602   3.798 -1.1597  0.1658 -0.1931
 1879SOL     OW 5771   1.751   3.056   1.704  0.2306 -0.5180  0.1277
 1879SOL    HW1 5772   1.700   3.053   1.785 -0.2719 -2.0235 -0.2263
 1879SOL    HW2 5773   1.697   3.107   1.644  1.2773  1.9469  1.1397
 1880SOL     OW 5774   0.960   2.942   0.783 -0.2246  0.4756 -0.0298
 1880SOL    HW1 5775   1.004   2.863   0.752 -0.4648  0.4736 -0.3847
 1880SOL    HW2 5776   0.955   2.998   0.705 -0.5545  0.6096  0.0875
 1881SOL     OW 5777   1.636   2.624   0.728 -0.3164 -0.3361 -0.1392
 1881SOL    HW1 5778   1.618   2.715   0.752  0.7914 -0.0987 -0.1783
 1881SOL    HW2 5779   1.706   2.630   0.663  2.2796 -1.3598  2.4110
 1882SOL     OW 5780   3.634   0.673   3.731 -1.0012 -0.8294  0.2649
 1882SOL    HW1 5781   3.686   0.730   3.673  2.7330 -0.8408  3.2267
 1882SOL    HW2 5782   3.608   0.600   3.675 -1.1464  1.0214 -2.3043
 1883SOL     OW 5783   3.891   3.806   2.309  0.2788  0.1874 -0.1134
 1883SOL    HW1 5784   3.840   3.851   2.241  0.0043  1.3350  0.8414
 1883SOL    HW2 5785   3.831   3.740   2.344 -0.7009  1.7126  1.1935
 1884SOL     OW 5786   1.761   0.271   3.045 -0.2575 -0.3284 -0.2113
 1884SOL    HW1 5787   1.697   0.229   2.988 -1.0055  1.3663 -0.6904
 1884SOL    HW2 5788   1.789   0.202   3.105 -0.4140 -1.8234 -1.7941
 1885SOL     OW 5789   1.865   1.992   0.681 -0.0481 -0.6449 -0.5277
 1885SOL    HW1 5790   1.774   1.970   0.661  0.2494 -2.0219 -0.4062
 1885SOL    HW2 5791   1.870   1.988   0.777 -0.0651  0.3290 -0.4720
 1886SOL     OW 5792   1.746   2.021   1.033 -0.0936  0.0383 -0.1698
 1886SOL    HW1 5793   1.679   2.072   0.987  1.8238  0.2280 -3.0074
 1886SOL    HW2 5794   1.771   2.076   1.107 -1.3534  1.0466 -0.4584
 1887SOL     OW 5795   2.819   1.094   1.106  0.2621  0.7538 -0.7754
 1887SOL    HW1 5796   2.837   1.187   1.112 -0.9982  0.9437  0.6614
 1887SOL    HW2 5797   2.847   1.059   1.191 -1.7629  0.3366 -0.2108
 1888SOL     OW 5798   1.689   3.484   0.399 -0.6571 -0.2585  0.1020
 1888SOL    HW1 5799   1.656   3.539   0.327 -1.1228 -0.0508  0.4725
 1888SOL    HW2 5800   1.631   3.503   0.472  2.3254  2.8283  1.9365
 1889SOL     OW 5801   0.614   2.675   3.244  0.3379  0.2345 -0.3091
 1889SOL    HW1 5802   0.559   2.634   3.177 -0.7397  2.1371 -0.6741
 1889SOL    HW2 5803   0.559   2.744   3.281  1.6272  0.5422  1.1299
 1890SOL     OW 5804   3.426   2.802   2.003  0.2048 -0.1248 -0.1881
 1890SOL    HW1 5805   3.434   2.846   1.918 -0.7467 -0.0351 -0.2464
 1890SOL    HW2 5806   3.376   2.722   1.983  1.0240 -0.7201  0.0911
 1891SOL     OW 5807   0.092   3.277   2.972 -0.2671  0.2656 -0.3481
 1891SOL    HW1 5808   0.007   3.296   2.932  0.2968  2.2930 -0.7146
 1891SOL    HW2 5809   0.154   3.279   2.899  0.2631  0.0848  0.0884
 1892SOL     OW 5810   1.156   0.616   0.164  0.0820  0.0850  0.0935
 1892SOL    HW1 5811   1.218   0.572   0.222  0.9385 -0.0626 -0.9022
 1892SOL    HW2 5812   1.149   0.705   0.200  0.2040 -0.1492  0.7087
 1893SOL     OW 5813   1.955   2.840   3.664  0.1000  0.0559 -0.5864
 1893SOL    HW1 5814   1.974   2.839   3.758 -1.7692 -1.4129 -0.1629
 1893SOL    HW2 5815   1.921   2.927   3.647 -1.6031 -0.3287  0.6063
 1894SOL     OW 5816   0.856   2.517   2.021  0.5726  0.6772 -0.4653
 1894SOL    HW1 5817   0.782   2.478   2.067  0.7104 -2.2627 -2.4536
 1894SOL    HW2 5818   0.901   2.568   2.088 -1.0541 -0.6462  1.7933
 1895SOL     OW 5819   1.557   3.508   2.762 -0.2603 -0.1355  0.4173
 1895SOL    HW1 5820   1.539   3.586   2.814 -0.2096 -0.2111  0.5491
 1895SOL    HW2 5821   1.471   3.473   2.739 -0.2822  0.1512  0.0729
 1896SOL     OW 5822   2.686   1.668   1.764  0.9509 -1.2563 -0.0248
 1896SOL    HW1 5823   2.683   1.589   1.818 -0.3651 -1.2708 -0.0894
 1896SOL    HW2 5824   2.722   1.735   1.822 -0.8879 -1.1499  1.0899
 1897SOL     OW 5825   2.585   3.485   3.953 -0.0184  0.0703 -0.5578
 1897SOL    HW1 5826   2.620   3.483   4.042  1.3326 -1.3673 -1.0686
 1897SOL    HW2 5827   2.504   3.434   3.958  1.9315 -3.3674 -0.7817
 1898SOL     OW 5828   1.397   1.362   3.938 -0.2360  0.5227  0.0342
 1898SOL    HW1 5829   1.438   1.294   3.993 -1.2816  1.5627  2.2309
 1898SOL    HW2 5830   1.352   1.314   3.870 -0.4490 -0.9865  1.1883
 1899SOL     OW 5831   0.321   0.691   3.675 -0.2891 -0.0046  0.7927
 1899SOL    HW1 5832   0.416   0.680   3.674 -0.5123 -2.2798 -0.1936
 1899SOL    HW2 5833   0.304   0.757   3.608  0.3832 -2.4092 -1.9441
 1900SOL     OW 5834   3.164   1.543   0.740 -0.0147  0.0005  0.4244
 1900SOL    HW1 5835   3.079   1.509   0.770 -0.3449 -0.6950 -1.1798
 1900SOL    HW2 5836   3.141   1.619   0.686  0.0986 -1.6838 -2.1691
 1901SOL     OW 5837   1.797   3.821   1.376 -0.6319 -0.0243  0.2400
 1901SOL    HW1 5838   1.829   3.890   1.434 -1.0675 -0.3629  0.8934
 1901SOL    HW2 5839   1.796   3.861   1.289 -0.3519  0.6156  0.5286
 1902SOL     OW 5840   1.026   2.678   1.457  0.3456  0.2379 -0.2332
 1902SOL    HW1 5841   0.970   2.696   1.532  0.3686 -0.7182  0.0222
 1902SOL    HW2 5842   0.968   2.637   1.393  0.5546  0.0874 -0.3290
 1903SOL     OW 5843   3.292   2.785   1.356  0.1338  0.0780 -0.1836
 1903SOL    HW1 5844   3.227   2.817   1.418 -1.4122  0.9852 -2.1719
 1903SOL    HW2 5845   3.330   2.708   1.398 -1.4998  0.1048  1.4515
 1904SOL     OW 5846   3.274   1.435   1.070 -0.6124  0.2078  0.0576
 1904SOL    HW1 5847   3.253   1.469   0.983 -1.8634  0.9480  0.6158
 1904SOL    HW2 5848   3.232   1.349   1.073  1.0057 -0.6453 -0.7052
 1905SOL     OW 5849   0.356   2.255   0.715  0.2709 -0.3086  0.3353
 1905SOL    HW1 5850   0.306   2.315   0.770  0.6871  0.1217  0.2506
 1905SOL    HW2 5851   0.365   2.176   0.768  0.1897 -0.0989  0.6670
 1906SOL     OW 5852   3.835   2.467   3.159 -0.3080 -0.1635  0.3807
 1906SOL    HW1 5853   3.881   2.488   3.078  2.0605  1.1283  1.9372
 1906SOL    HW2 5854   3.817   2.373   3.153 -1.3621  0.1292 -2.1190
 1907SOL     OW 5855   1.379   3.614   0.286 -0.8539  0.6923 -0.0632
 1907SOL    HW1 5856   1.329   3.533   0.272  0.4747 -0.2069  0.1859
 1907SOL    HW2 5857   1.384   3.623   0.381 -0.1412  0.5056 -0.0799
 1908SOL     OW 5858   1.025   0.207   0.271  0.0288  0.4261 -0.8011
 1908SOL    HW1 5859   0.978   0.125   0.284  0.1261  0.1876 -1.8527
 1908SOL    HW2 5860   1.088   0.188   0.201  0.8825  1.0637 -0.2216
 1909SOL     OW 5861   1.810   1.630   0.336 -0.4045  0.0095  0.0530
 1909SOL    HW1 5862   1.903   1.648   0.347 -0.2347 -0.9234  0.2335
 1909SOL    HW2 5863   1.775   1.628   0.425 -0.8559  1.6145 -0.0723
 1910SOL     OW 5864   2.128   3.907   3.542 -0.2721  0.2333 -0.5267
 1910SOL    HW1 5865   2.085   3.946   3.466  1.5365  1.8712 -0.7848
 1910SOL    HW2 5866   2.107   3.966   3.614 -0.4014 -0.2537 -0.1666
 1911SOL     OW 5867   0.155   1.724   1.921 -0.3426 -0.5222  0.5060
 1911SOL    HW1 5868   0.229   1.683   1.966 -1.6789  0.0877  3.5255
 1911SOL    HW2 5869   0.079   1.672   1.947 -1.3719  0.6826  0.0419
 1912SOL     OW 5870   1.137   2.790   1.765 -0.1780 -0.1510 -0.5087
 1912SOL    HW1 5871   1.043   2.811   1.769  0.2899  2.6237 -1.5252
 1912SOL    HW2 5872   1.147   2.713   1.821 -2.9055  0.0531  0.4242
 1913SOL     OW 5873   0.366   3.512   3.452  0.0026 -0.4227 -0.0891
 1913SOL    HW1 5874   0.393   3.438   3.507 -2.8114 -0.0280  1.9966
 1913SOL    HW2 5875   0.420   3.585   3.482 -1.2286 -0.3096  1.9758
 1914SOL     OW 5876   0.509   0.024   2.146 -0.6030  0.1603 -0.7714
 1914SOL    HW1 5877   0.540  -0.017   2.065 -1.1261 -0.5207 -0.6378
 1914SOL    HW2 5878   0.521   0.118   2.131 -1.7899  0.1448 -2.1157
 1915SOL     OW 5879   0.161   0.543   0.070  0.0088 -0.5121  0.2549
 1915SOL    HW1 5880   0.244   0.591   0.075 -0.4752  0.2629  0.9862
 1915SOL    HW2 5881   0.116   0.564   0.151 -2.0058  1.1046 -1.1811
 1916SOL     OW 5882   3.070   1.129   1.892  0.0984  0.5086 -0.0589
 1916SOL    HW1 5883   3.111   1.143   1.807 -0.1841 -2.0258 -0.7123
 1916SOL    HW2 5884   3.121   1.059   1.933 -0.5069  0.8344  1.3364
 1917SOL     OW 5885   0.395   1.569   1.675 -0.0691 -0.4692 -0.1975
 1917SOL    HW1 5886   0.490   1.576   1.689  0.0191 -1.6468 -0.0635
 1917SOL    HW2 5887   0.365   1.512   1.746 -1.1885  1.3387  0.8588
 1918NA      NA 5888   2.973   1.869   0.517 -0.2548  0.3156  0.3387
 1919NA      NA 5889   0.819   0.976   0.857  0.4330 -0.0491  0.4892
   3.96100   3.96100   3.96100
