Generated with MDTraj, t= 1294100.0
 5889
    1TYR    N      1   0.609   2.268   2.763
    1TYR    H1     2   0.696   2.296   2.811
    1TYR    H2     3   0.560   2.347   2.715
    1TYR    H3     4   0.554   2.235   2.844
    1TYR    CA     5   0.640   2.156   2.663
    1TYR    HA     6   0.688   2.215   2.586
    1TYR    CB     7   0.739   2.052   2.718
    1TYR    HB1    8   0.705   2.008   2.814
    1TYR    HB2    9   0.755   1.977   2.638
    1TYR    CG    10   0.873   2.106   2.724
    1TYR    CD1   11   0.933   2.111   2.849
    1TYR    HD1   12   0.872   2.090   2.936
    1TYR    CE1   13   1.062   2.159   2.854
    1TYR    HE1   14   1.110   2.168   2.951
    1TYR    CZ    15   1.139   2.185   2.735
    1TYR    OH    16   1.269   2.236   2.768
    1TYR    HH    17   1.319   2.230   2.686
    1TYR    CD2   18   0.938   2.147   2.610
    1TYR    HD2   19   0.889   2.154   2.514
    1TYR    CE2   20   1.073   2.187   2.617
    1TYR    HE2   21   1.121   2.228   2.529
    1TYR    C     22   0.515   2.099   2.597
    1TYR    O     23   0.506   2.113   2.471
    2TYR    N     24   0.422   2.032   2.675
    2TYR    HN    25   0.428   2.024   2.774
    2TYR    CA    26   0.288   1.992   2.625
    2TYR    HA    27   0.309   1.951   2.528
    2TYR    CB    28   0.220   1.891   2.724
    2TYR    HB1   29   0.291   1.809   2.750
    2TYR    HB2   30   0.199   1.934   2.824
    2TYR    CG    31   0.095   1.819   2.672
    2TYR    CD1   32   3.922   1.867   2.702
    2TYR    HD1   33   3.916   1.939   2.782
    2TYR    CE1   34   3.808   1.800   2.652
    2TYR    HE1   35   3.707   1.827   2.680
    2TYR    CZ    36   3.828   1.688   2.577
    2TYR    OH    37   3.729   1.593   2.555
    2TYR    HH    38   3.670   1.592   2.631
    2TYR    CD2   39   0.106   1.716   2.588
    2TYR    HD2   40   0.205   1.679   2.566
    2TYR    CE2   41   3.956   1.638   2.554
    2TYR    HE2   42   3.953   1.539   2.511
    2TYR    C     43   0.195   2.107   2.607
    2TYR    O     44   0.174   2.177   2.706
    3ASP    N     45   0.161   2.137   2.480
    3ASP    HN    46   0.187   2.080   2.402
    3ASP    CA    47   0.057   2.238   2.445
    3ASP    HA    48   0.063   2.317   2.518
    3ASP    CB    49   0.112   2.300   2.314
    3ASP    HB1   50   0.211   2.348   2.328
    3ASP    HB2   51   0.121   2.231   2.228
    3ASP    CG    52   0.020   2.415   2.263
    3ASP    OD1   53   3.957   2.415   2.141
    3ASP    OD2   54   3.927   2.494   2.343
    3ASP    C     55   3.882   2.169   2.431
    3ASP    O     56   3.862   2.074   2.357
    4PRO    N     57   3.781   2.214   2.506
    4PRO    CD    58   3.786   2.306   2.622
    4PRO    HD1   59   3.795   2.407   2.576
    4PRO    HD2   60   3.883   2.290   2.675
    4PRO    CA    61   3.652   2.140   2.493
    4PRO    HA    62   3.675   2.039   2.522
    4PRO    CB    63   3.558   2.215   2.593
    4PRO    HB1   64   3.481   2.282   2.549
    4PRO    HB2   65   3.500   2.143   2.655
    4PRO    CG    66   3.651   2.289   2.694
    4PRO    HG1   67   3.594   2.379   2.725
    4PRO    HG2   68   3.659   2.218   2.780
    4PRO    C     69   3.587   2.132   2.355
    4PRO    O     70   3.509   2.038   2.330
    5GLU    N     71   3.615   2.223   2.259
    5GLU    HN    72   3.683   2.293   2.275
    5GLU    CA    73   3.558   2.235   2.131
    5GLU    HA    74   3.457   2.198   2.121
    5GLU    CB    75   3.556   2.390   2.092
    5GLU    HB1   76   3.514   2.446   2.178
    5GLU    HB2   77   3.658   2.435   2.092
    5GLU    CG    78   3.486   2.421   1.960
    5GLU    HG1   79   3.524   2.353   1.880
    5GLU    HG2   80   3.380   2.387   1.964
    5GLU    CD    81   3.490   2.563   1.914
    5GLU    OE1   82   3.418   2.645   1.981
    5GLU    OE2   83   3.568   2.600   1.823
    5GLU    C     84   3.647   2.161   2.027
    5GLU    O     85   3.605   2.123   1.916
    6THR    N     86   3.778   2.145   2.069
    6THR    HN    87   3.802   2.186   2.156
    6THR    CA    88   3.877   2.100   1.967
    6THR    HA    89   3.821   2.055   1.886
    6THR    CB    90   0.012   2.206   1.919
    6THR    HB    91   0.092   2.226   1.994
    6THR    OG1   92   3.916   2.334   1.902
    6THR    HG1   93   3.926   2.375   1.988
    6THR    CG2   94   0.080   2.169   1.789
    6THR   HG21   95   0.144   2.080   1.808
    6THR   HG22   96   0.013   2.140   1.705
    6THR   HG23   97   0.151   2.249   1.761
    6THR    C     98   3.961   1.984   2.004
    6THR    O     99   0.041   1.912   1.917
    7GLY    N    100   0.018   1.948   2.134
    7GLY    HN   101   3.945   2.004   2.210
    7GLY    CA   102   0.118   1.851   2.174
    7GLY    HA1  103   0.087   1.796   2.262
    7GLY    HA2  104   0.139   1.782   2.094
    7GLY    C    105   0.246   1.917   2.191
    7GLY    O    106   0.259   2.035   2.199
    8THR    N    107   0.351   1.838   2.200
    8THR    HN   108   0.345   1.741   2.179
    8THR    CA   109   0.481   1.878   2.253
    8THR    HA   110   0.467   1.955   2.327
    8THR    CB   111   0.553   1.766   2.325
    8THR    HB   112   0.601   1.693   2.256
    8THR    OG1  113   0.461   1.683   2.404
    8THR    HG1  114   0.423   1.627   2.337
    8THR    CG2  115   0.650   1.826   2.427
    8THR   HG21  116   0.729   1.889   2.381
    8THR   HG22  117   0.598   1.872   2.513
    8THR   HG23  118   0.709   1.741   2.468
    8THR    C    119   0.583   1.932   2.150
    8THR    O    120   0.638   1.870   2.054
    9TRP    N    121   0.615   2.059   2.169
    9TRP    HN   122   0.566   2.120   2.230
    9TRP    CA   123   0.712   2.127   2.091
    9TRP    HA   124   0.708   2.096   1.988
    9TRP    CB   125   0.686   2.282   2.081
    9TRP    HB1  126   0.692   2.329   2.181
    9TRP    HB2  127   0.766   2.330   2.021
    9TRP    CG   128   0.548   2.325   2.032
    9TRP    CD1  129   0.423   2.303   2.090
    9TRP    HD1  130   0.414   2.233   2.172
    9TRP    NE1  131   0.326   2.368   2.019
    9TRP    HE1  132   0.231   2.368   2.041
    9TRP    CE2  133   0.386   2.448   1.923
    9TRP    CD2  134   0.526   2.423   1.934
    9TRP    CE3  135   0.613   2.499   1.867
    9TRP    HE3  136   0.720   2.510   1.884
    9TRP    CZ3  137   0.562   2.593   1.777
    9TRP    HZ3  138   0.628   2.648   1.711
    9TRP    CZ2  139   0.330   2.537   1.836
    9TRP    HZ2  140   0.223   2.547   1.844
    9TRP    CH2  141   0.422   2.610   1.754
    9TRP    HH2  142   0.382   2.681   1.683
    9TRP    C    143   0.852   2.110   2.160
    9TRP    O    144   0.864   2.099   2.282
   10TYR    N    145   0.965   2.126   2.087
   10TYR    HN   146   0.959   2.131   1.987
   10TYR    CA   147   1.100   2.143   2.134
   10TYR    HA   148   1.091   2.202   2.224
   10TYR    CB   149   1.181   2.009   2.151
   10TYR    HB1  150   1.182   1.961   2.051
   10TYR    HB2  151   1.281   2.034   2.191
   10TYR    CG   152   1.120   1.922   2.261
   10TYR    CD1  153   1.046   1.806   2.245
   10TYR    HD1  154   1.027   1.778   2.143
   10TYR    CE1  155   1.008   1.731   2.349
   10TYR    HE1  156   0.964   1.635   2.324
   10TYR    CZ   157   1.046   1.758   2.484
   10TYR    OH   158   1.001   1.672   2.587
   10TYR    HH   159   1.017   1.723   2.667
   10TYR    CD2  160   1.156   1.957   2.393
   10TYR    HD2  161   1.209   2.050   2.409
   10TYR    CE2  162   1.113   1.873   2.502
   10TYR    HE2  163   1.155   1.898   2.598
   10TYR    C    164   1.165   2.243   2.036
   10TYR    OT1  165   1.201   2.355   2.084
   10TYR    OT2  166   1.176   2.211   1.914
   11HOH    OW   167   3.296   0.185   3.219
   11HOH    HW1  168   3.260   0.175   3.131
   11HOH    HW2  169   3.259   0.267   3.251
   12HOH    OW   170   0.299   3.375   1.778
   12HOH    HW1  171   0.327   3.283   1.771
   12HOH    HW2  172   0.307   3.409   1.689
   13HOH    OW   173   3.056   2.127   1.176
   13HOH    HW1  174   3.013   2.169   1.102
   13HOH    HW2  175   3.133   2.182   1.193
   14HOH    OW   176   1.597   0.874   0.260
   14HOH    HW1  177   1.584   0.856   0.353
   14HOH    HW2  178   1.672   0.934   0.258
   15HOH    OW   179   2.620   3.041   0.597
   15HOH    HW1  180   2.569   3.010   0.672
   15HOH    HW2  181   2.688   2.975   0.585
   16HOH    OW   182   2.716   0.340   3.274
   16HOH    HW1  183   2.786   0.277   3.288
   16HOH    HW2  184   2.682   0.358   3.362
   17HOH    OW   185   2.191   2.011   1.034
   17HOH    HW1  186   2.146   1.928   1.015
   17HOH    HW2  187   2.163   2.034   1.123
   18HOH    OW   188   0.907   1.937   0.019
   18HOH    HW1  189   0.879   1.974   3.896
   18HOH    HW2  190   0.843   1.868   0.037
   19HOH    OW   191   3.368   1.712   3.873
   19HOH    HW1  192   3.392   1.622   3.897
   19HOH    HW2  193   3.297   1.702   3.809
   20HOH    OW   194   2.421   0.403   0.905
   20HOH    HW1  195   2.509   0.366   0.915
   20HOH    HW2  196   2.414   0.420   0.811
   21HOH    OW   197   3.881   0.094   2.556
   21HOH    HW1  198   0.013   0.094   2.535
   21HOH    HW2  199   3.871   0.030   2.626
   22HOH    OW   200   2.117   2.363   3.874
   22HOH    HW1  201   2.125   2.316   3.791
   22HOH    HW2  202   2.027   2.396   3.874
   23HOH    OW   203   3.039   3.802   2.243
   23HOH    HW1  204   3.033   3.852   2.162
   23HOH    HW2  205   3.126   3.824   2.277
   24HOH    OW   206   0.339   2.998   2.286
   24HOH    HW1  207   0.270   2.955   2.336
   24HOH    HW2  208   0.420   2.962   2.321
   25HOH    OW   209   3.035   3.660   3.945
   25HOH    HW1  210   3.001   3.595   0.045
   25HOH    HW2  211   3.123   3.680   0.018
   26HOH    OW   212   3.791   3.313   1.454
   26HOH    HW1  213   3.764   3.247   1.518
   26HOH    HW2  214   3.755   3.395   1.487
   27HOH    OW   215   2.583   3.818   0.005
   27HOH    HW1  216   2.629   3.819   3.883
   27HOH    HW2  217   2.499   3.776   3.946
   28HOH    OW   218   3.800   2.947   0.204
   28HOH    HW1  219   3.876   3.000   0.181
   28HOH    HW2  220   3.824   2.857   0.179
   29HOH    OW   221   2.047   0.832   3.030
   29HOH    HW1  222   1.954   0.854   3.022
   29HOH    HW2  223   2.092   0.906   2.988
   30HOH    OW   224   3.912   1.035   3.482
   30HOH    HW1  225   3.920   1.109   3.423
   30HOH    HW2  226   3.948   1.066   3.565
   31HOH    OW   227   2.230   0.591   2.892
   31HOH    HW1  228   2.263   0.665   2.840
   31HOH    HW2  229   2.148   0.623   2.929
   32HOH    OW   230   1.285   3.859   0.439
   32HOH    HW1  231   1.371   3.900   0.424
   32HOH    HW2  232   1.305   3.767   0.455
   33HOH    OW   233   1.776   2.816   0.888
   33HOH    HW1  234   1.732   2.733   0.867
   33HOH    HW2  235   1.714   2.883   0.860
   34HOH    OW   236   0.180   0.002   0.212
   34HOH    HW1  237   0.234   3.936   0.286
   34HOH    HW2  238   0.090   3.950   0.241
   35HOH    OW   239   3.078   3.921   3.153
   35HOH    HW1  240   3.052   3.831   3.174
   35HOH    HW2  241   3.146   3.942   3.217
   36HOH    OW   242   0.978   0.138   3.103
   36HOH    HW1  243   0.959   0.199   3.175
   36HOH    HW2  244   0.903   0.078   3.103
   37HOH    OW   245   1.413   0.432   1.739
   37HOH    HW1  246   1.402   0.390   1.825
   37HOH    HW2  247   1.497   0.400   1.708
   38HOH    OW   248   2.086   3.494   3.386
   38HOH    HW1  249   2.145   3.429   3.347
   38HOH    HW2  250   2.076   3.562   3.319
   39HOH    OW   251   0.041   3.137   0.170
   39HOH    HW1  252   0.131   3.125   0.142
   39HOH    HW2  253   0.018   3.224   0.139
   40HOH    OW   254   2.765   1.147   2.259
   40HOH    HW1  255   2.806   1.153   2.345
   40HOH    HW2  256   2.786   1.230   2.217
   41HOH    OW   257   3.789   3.091   1.640
   41HOH    HW1  258   3.794   3.004   1.600
   41HOH    HW2  259   3.878   3.108   1.671
   42HOH    OW   260   3.252   0.080   1.292
   42HOH    HW1  261   3.304   0.149   1.251
   42HOH    HW2  262   3.243   0.013   1.224
   43HOH    OW   263   2.683   1.446   2.601
   43HOH    HW1  264   2.617   1.379   2.584
   43HOH    HW2  265   2.732   1.451   2.519
   44HOH    OW   266   0.081   3.355   0.008
   44HOH    HW1  267   0.151   3.400   0.056
   44HOH    HW2  268   0.121   3.330   3.886
   45HOH    OW   269   1.510   1.738   2.064
   45HOH    HW1  270   1.553   1.654   2.080
   45HOH    HW2  271   1.560   1.800   2.118
   46HOH    OW   272   0.347   1.615   1.612
   46HOH    HW1  273   0.419   1.593   1.671
   46HOH    HW2  274   0.301   1.687   1.656
   47HOH    OW   275   3.443   1.016   2.556
   47HOH    HW1  276   3.481   0.930   2.535
   47HOH    HW2  277   3.436   1.016   2.652
   48HOH    OW   278   2.102   2.993   3.227
   48HOH    HW1  279   2.189   2.997   3.268
   48HOH    HW2  280   2.120   2.991   3.133
   49HOH    OW   281   0.118   1.058   0.242
   49HOH    HW1  282   0.062   0.992   0.200
   49HOH    HW2  283   0.158   1.011   0.316
   50HOH    OW   284   3.514   2.886   0.722
   50HOH    HW1  285   3.493   2.914   0.811
   50HOH    HW2  286   3.609   2.891   0.717
   51HOH    OW   287   0.606   2.971   0.738
   51HOH    HW1  288   0.538   3.038   0.727
   51HOH    HW2  289   0.628   2.945   0.649
   52HOH    OW   290   1.919   3.292   1.512
   52HOH    HW1  291   1.951   3.202   1.519
   52HOH    HW2  292   1.850   3.299   1.578
   53HOH    OW   293   1.444   0.155   3.556
   53HOH    HW1  294   1.353   0.173   3.532
   53HOH    HW2  295   1.443   0.153   3.652
   54HOH    OW   296   0.884   3.524   1.260
   54HOH    HW1  297   0.943   3.575   1.205
   54HOH    HW2  298   0.797   3.555   1.238
   55HOH    OW   299   1.354   0.773   1.873
   55HOH    HW1  300   1.297   0.810   1.941
   55HOH    HW2  301   1.316   0.687   1.854
   56HOH    OW   302   0.662   3.110   2.694
   56HOH    HW1  303   0.634   3.201   2.695
   56HOH    HW2  304   0.609   3.068   2.762
   57HOH    OW   305   2.442   1.673   1.851
   57HOH    HW1  306   2.515   1.708   1.902
   57HOH    HW2  307   2.482   1.610   1.791
   58HOH    OW   308   0.308   1.106   1.225
   58HOH    HW1  309   0.357   1.168   1.279
   58HOH    HW2  310   0.235   1.156   1.190
   59HOH    OW   311   3.193   0.529   1.210
   59HOH    HW1  312   3.141   0.493   1.138
   59HOH    HW2  313   3.278   0.487   1.202
   60HOH    OW   314   1.527   3.932   2.541
   60HOH    HW1  315   1.523   3.837   2.545
   60HOH    HW2  316   1.444   0.000   2.579
   61HOH    OW   317   0.553   0.207   2.943
   61HOH    HW1  318   0.547   0.220   3.038
   61HOH    HW2  319   0.515   0.120   2.928
   62HOH    OW   320   0.300   0.435   0.944
   62HOH    HW1  321   0.263   0.418   0.858
   62HOH    HW2  322   0.230   0.412   1.005
   63HOH    OW   323   2.341   3.392   1.589
   63HOH    HW1  324   2.414   3.384   1.527
   63HOH    HW2  325   2.343   3.483   1.617
   64HOH    OW   326   1.384   1.029   1.274
   64HOH    HW1  327   1.472   1.016   1.308
   64HOH    HW2  328   1.392   1.103   1.214
   65HOH    OW   329   1.186   1.502   2.110
   65HOH    HW1  330   1.164   1.594   2.095
   65HOH    HW2  331   1.117   1.454   2.065
   66HOH    OW   332   3.463   0.192   2.972
   66HOH    HW1  333   3.505   0.267   3.015
   66HOH    HW2  334   3.370   0.211   2.976
   67HOH    OW   335   3.056   3.660   3.264
   67HOH    HW1  336   3.035   3.567   3.270
   67HOH    HW2  337   3.152   3.663   3.260
   68HOH    OW   338   2.709   0.740   1.962
   68HOH    HW1  339   2.630   0.688   1.949
   68HOH    HW2  340   2.718   0.746   2.058
   69HOH    OW   341   3.493   2.809   3.514
   69HOH    HW1  342   3.521   2.897   3.486
   69HOH    HW2  343   3.517   2.752   3.440
   70HOH    OW   344   2.027   0.775   3.637
   70HOH    HW1  345   2.070   0.857   3.613
   70HOH    HW2  346   1.957   0.764   3.572
   71HOH    OW   347   3.776   3.805   0.593
   71HOH    HW1  348   3.802   3.805   0.685
   71HOH    HW2  349   3.680   3.811   0.595
   72HOH    OW   350   1.787   2.381   3.499
   72HOH    HW1  351   1.880   2.372   3.519
   72HOH    HW2  352   1.770   2.318   3.429
   73HOH    OW   353   2.151   0.983   0.449
   73HOH    HW1  354   2.145   0.898   0.492
   73HOH    HW2  355   2.238   0.982   0.407
   74HOH    OW   356   2.442   2.708   3.040
   74HOH    HW1  357   2.400   2.731   2.957
   74HOH    HW2  358   2.456   2.613   3.034
   75HOH    OW   359   3.732   3.829   2.695
   75HOH    HW1  360   3.660   3.867   2.745
   75HOH    HW2  361   3.805   3.825   2.757
   76HOH    OW   362   0.618   0.428   0.154
   76HOH    HW1  363   0.594   0.407   0.064
   76HOH    HW2  364   0.676   0.504   0.147
   77HOH    OW   365   0.460   0.268   1.870
   77HOH    HW1  366   0.463   0.194   1.931
   77HOH    HW2  367   0.550   0.277   1.838
   78HOH    OW   368   1.796   3.655   3.067
   78HOH    HW1  369   1.728   3.612   3.015
   78HOH    HW2  370   1.844   3.710   3.004
   79HOH    OW   371   0.176   3.874   0.607
   79HOH    HW1  372   0.217   3.852   0.523
   79HOH    HW2  373   0.123   3.951   0.588
   80HOH    OW   374   2.111   1.024   3.322
   80HOH    HW1  375   2.057   0.945   3.312
   80HOH    HW2  376   2.094   1.075   3.242
   81HOH    OW   377   0.656   3.566   0.300
   81HOH    HW1  378   0.711   3.506   0.250
   81HOH    HW2  379   0.715   3.604   0.365
   82HOH    OW   380   1.535   3.809   0.718
   82HOH    HW1  381   1.562   3.721   0.694
   82HOH    HW2  382   1.497   3.800   0.805
   83HOH    OW   383   0.081   2.803   2.357
   83HOH    HW1  384   0.060   2.858   2.281
   83HOH    HW2  385   0.004   2.748   2.369
   84HOH    OW   386   0.895   0.688   1.432
   84HOH    HW1  387   0.924   0.694   1.341
   84HOH    HW2  388   0.851   0.771   1.449
   85HOH    OW   389   2.531   2.322   3.380
   85HOH    HW1  390   2.504   2.302   3.470
   85HOH    HW2  391   2.624   2.344   3.388
   86HOH    OW   392   3.404   3.166   3.735
   86HOH    HW1  393   3.455   3.108   3.680
   86HOH    HW2  394   3.446   3.162   3.821
   87HOH    OW   395   0.916   1.995   1.480
   87HOH    HW1  396   0.831   2.039   1.477
   87HOH    HW2  397   0.895   1.902   1.484
   88HOH    OW   398   2.970   0.551   2.263
   88HOH    HW1  399   3.015   0.479   2.219
   88HOH    HW2  400   3.040   0.597   2.310
   89HOH    OW   401   2.455   1.767   0.424
   89HOH    HW1  402   2.404   1.847   0.413
   89HOH    HW2  403   2.480   1.767   0.516
   90HOH    OW   404   1.603   2.755   2.727
   90HOH    HW1  405   1.692   2.779   2.701
   90HOH    HW2  406   1.612   2.728   2.818
   91HOH    OW   407   3.952   0.569   3.483
   91HOH    HW1  408   3.934   0.477   3.462
   91HOH    HW2  409   3.871   0.602   3.521
   92HOH    OW   410   2.009   2.672   0.812
   92HOH    HW1  411   1.950   2.657   0.886
   92HOH    HW2  412   2.091   2.701   0.851
   93HOH    OW   413   3.769   0.006   3.794
   93HOH    HW1  414   3.772   3.880   3.835
   93HOH    HW2  415   3.735   0.063   3.863
   94HOH    OW   416   1.959   3.202   2.186
   94HOH    HW1  417   1.984   3.112   2.162
   94HOH    HW2  418   1.882   3.191   2.242
   95HOH    OW   419   2.468   1.108   0.687
   95HOH    HW1  420   2.538   1.152   0.735
   95HOH    HW2  421   2.388   1.136   0.730
   96HOH    OW   422   1.568   3.550   2.946
   96HOH    HW1  423   1.476   3.537   2.969
   96HOH    HW2  424   1.587   3.483   2.881
   97HOH    OW   425   0.063   1.460   0.750
   97HOH    HW1  426   0.126   1.398   0.786
   97HOH    HW2  427   0.091   1.546   0.782
   98HOH    OW   428   2.360   1.605   3.535
   98HOH    HW1  429   2.307   1.530   3.508
   98HOH    HW2  430   2.424   1.615   3.464
   99HOH    OW   431   3.798   1.451   1.252
   99HOH    HW1  432   3.796   1.518   1.184
   99HOH    HW2  433   3.722   1.471   1.307
  100HOH    OW   434   2.419   1.911   2.892
  100HOH    HW1  435   2.450   1.820   2.901
  100HOH    HW2  436   2.497   1.964   2.907
  101HOH    OW   437   3.750   1.030   2.127
  101HOH    HW1  438   3.775   1.118   2.098
  101HOH    HW2  439   3.739   1.039   2.222
  102HOH    OW   440   0.882   0.319   1.200
  102HOH    HW1  441   0.806   0.375   1.184
  102HOH    HW2  442   0.870   0.246   1.139
  103HOH    OW   443   0.777   1.806   3.020
  103HOH    HW1  444   0.683   1.792   3.013
  103HOH    HW2  445   0.816   1.730   2.977
  104HOH    OW   446   2.495   0.160   1.236
  104HOH    HW1  447   2.556   0.186   1.305
  104HOH    HW2  448   2.551   0.137   1.161
  105HOH    OW   449   0.836   2.088   3.768
  105HOH    HW1  450   0.768   2.144   3.804
  105HOH    HW2  451   0.897   2.147   3.725
  106HOH    OW   452   1.356   3.500   0.308
  106HOH    HW1  453   1.411   3.574   0.280
  106HOH    HW2  454   1.389   3.426   0.257
  107HOH    OW   455   3.016   1.657   1.353
  107HOH    HW1  456   3.009   1.742   1.309
  107HOH    HW2  457   3.038   1.595   1.283
  108HOH    OW   458   2.453   3.098   2.934
  108HOH    HW1  459   2.500   3.033   2.883
  108HOH    HW2  460   2.399   3.144   2.870
  109HOH    OW   461   3.583   0.932   2.902
  109HOH    HW1  462   3.613   0.943   2.993
  109HOH    HW2  463   3.624   0.850   2.874
  110HOH    OW   464   1.292   0.019   0.097
  110HOH    HW1  465   1.220   0.075   0.124
  110HOH    HW2  466   1.266   3.892   0.125
  111HOH    OW   467   1.741   0.060   2.423
  111HOH    HW1  468   1.777   3.936   2.395
  111HOH    HW2  469   1.661   0.037   2.470
  112HOH    OW   470   2.277   1.607   2.481
  112HOH    HW1  471   2.343   1.614   2.412
  112HOH    HW2  472   2.282   1.690   2.528
  113HOH    OW   473   1.430   3.139   1.312
  113HOH    HW1  474   1.501   3.120   1.252
  113HOH    HW2  475   1.358   3.169   1.256
  114HOH    OW   476   0.343   2.448   0.222
  114HOH    HW1  477   0.377   2.366   0.189
  114HOH    HW2  478   0.324   2.500   0.144
  115HOH    OW   479   1.285   2.483   0.195
  115HOH    HW1  480   1.258   2.547   0.130
  115HOH    HW2  481   1.285   2.531   0.278
  116HOH    OW   482   2.979   1.350   1.280
  116HOH    HW1  483   2.900   1.339   1.333
  116HOH    HW2  484   3.051   1.346   1.343
  117HOH    OW   485   2.497   0.023   3.476
  117HOH    HW1  486   2.406   3.960   3.460
  117HOH    HW2  487   2.499   0.119   3.470
  118HOH    OW   488   1.137   3.556   2.300
  118HOH    HW1  489   1.152   3.496   2.372
  118HOH    HW2  490   1.220   3.604   2.291
  119HOH    OW   491   3.217   3.441   2.490
  119HOH    HW1  492   3.254   3.524   2.461
  119HOH    HW2  493   3.239   3.379   2.420
  120HOH    OW   494   3.207   0.106   2.705
  120HOH    HW1  495   3.167   0.022   2.727
  120HOH    HW2  496   3.172   0.126   2.618
  121HOH    OW   497   1.582   3.641   3.650
  121HOH    HW1  498   1.633   3.563   3.630
  121HOH    HW2  499   1.597   3.699   3.575
  122HOH    OW   500   3.276   1.272   2.002
  122HOH    HW1  501   3.286   1.205   2.070
  122HOH    HW2  502   3.184   1.268   1.978
  123HOH    OW   503   3.709   1.826   0.259
  123HOH    HW1  504   3.753   1.798   0.179
  123HOH    HW2  505   3.722   1.921   0.261
  124HOH    OW   506   3.397   2.120   1.733
  124HOH    HW1  507   3.472   2.095   1.788
  124HOH    HW2  508   3.369   2.038   1.692
  125HOH    OW   509   1.029   1.875   1.749
  125HOH    HW1  510   0.993   1.803   1.801
  125HOH    HW2  511   0.973   1.880   1.672
  126HOH    OW   512   3.826   0.306   0.708
  126HOH    HW1  513   3.900   0.354   0.744
  126HOH    HW2  514   3.791   0.257   0.783
  127HOH    OW   515   1.491   1.283   1.590
  127HOH    HW1  516   1.451   1.353   1.643
  127HOH    HW2  517   1.546   1.330   1.527
  128HOH    OW   518   1.988   3.398   2.701
  128HOH    HW1  519   2.003   3.445   2.783
  128HOH    HW2  520   2.017   3.309   2.718
  129HOH    OW   521   0.975   0.841   0.350
  129HOH    HW1  522   0.946   0.848   0.259
  129HOH    HW2  523   0.915   0.898   0.399
  130HOH    OW   524   2.778   2.071   0.635
  130HOH    HW1  525   2.833   2.149   0.636
  130HOH    HW2  526   2.835   2.002   0.600
  131HOH    OW   527   1.895   3.903   1.560
  131HOH    HW1  528   1.988   3.926   1.557
  131HOH    HW2  529   1.879   3.856   1.478
  132HOH    OW   530   0.461   3.016   1.797
  132HOH    HW1  531   0.475   2.964   1.876
  132HOH    HW2  532   0.544   3.060   1.781
  133HOH    OW   533   1.317   3.261   2.214
  133HOH    HW1  534   1.376   3.320   2.168
  133HOH    HW2  535   1.280   3.206   2.145
  134HOH    OW   536   2.351   1.477   0.602
  134HOH    HW1  537   2.333   1.393   0.559
  134HOH    HW2  538   2.425   1.459   0.660
  135HOH    OW   539   1.877   2.623   3.724
  135HOH    HW1  540   1.851   2.634   3.815
  135HOH    HW2  541   1.948   2.687   3.711
  136HOH    OW   542   2.705   2.009   0.186
  136HOH    HW1  543   2.639   1.944   0.162
  136HOH    HW2  544   2.691   2.023   0.280
  137HOH    OW   545   2.586   1.175   1.951
  137HOH    HW1  546   2.602   1.270   1.953
  137HOH    HW2  547   2.491   1.167   1.950
  138HOH    OW   548   1.553   2.439   2.747
  138HOH    HW1  549   1.553   2.366   2.808
  138HOH    HW2  550   1.637   2.482   2.761
  139HOH    OW   551   0.527   1.825   1.812
  139HOH    HW1  552   0.564   1.847   1.898
  139HOH    HW2  553   0.521   1.909   1.766
  140HOH    OW   554   0.896   3.616   0.505
  140HOH    HW1  555   0.920   3.703   0.535
  140HOH    HW2  556   0.923   3.558   0.576
  141HOH    OW   557   3.321   1.496   1.258
  141HOH    HW1  558   3.367   1.563   1.207
  141HOH    HW2  559   3.305   1.538   1.343
  142HOH    OW   560   3.534   2.149   3.821
  142HOH    HW1  561   3.499   2.225   3.776
  142HOH    HW2  562   3.628   2.167   3.831
  143HOH    OW   563   2.505   1.172   1.541
  143HOH    HW1  564   2.445   1.218   1.482
  143HOH    HW2  565   2.450   1.144   1.614
  144HOH    OW   566   2.117   0.369   2.149
  144HOH    HW1  567   2.200   0.412   2.167
  144HOH    HW2  568   2.080   0.416   2.075
  145HOH    OW   569   3.238   2.944   1.121
  145HOH    HW1  570   3.316   2.963   1.070
  145HOH    HW2  571   3.263   2.870   1.177
  146HOH    OW   572   2.386   3.643   0.306
  146HOH    HW1  573   2.381   3.707   0.377
  146HOH    HW2  574   2.463   3.590   0.328
  147HOH    OW   575   0.500   2.306   0.064
  147HOH    HW1  576   0.539   2.342   3.945
  147HOH    HW2  577   0.506   2.211   0.052
  148HOH    OW   578   0.554   1.036   3.918
  148HOH    HW1  579   0.468   1.076   3.904
  148HOH    HW2  580   0.572   1.049   0.050
  149HOH    OW   581   1.994   3.846   0.854
  149HOH    HW1  582   1.951   3.763   0.836
  149HOH    HW2  583   1.922   3.907   0.874
  150HOH    OW   584   1.115   0.637   0.436
  150HOH    HW1  585   1.070   0.558   0.405
  150HOH    HW2  586   1.055   0.709   0.416
  151HOH    OW   587   1.648   3.925   1.242
  151HOH    HW1  588   1.739   3.946   1.218
  151HOH    HW2  589   1.611   0.048   1.270
  152HOH    OW   590   0.652   1.797   0.133
  152HOH    HW1  591   0.562   1.783   0.162
  152HOH    HW2  592   0.697   1.714   0.150
  153HOH    OW   593   2.141   0.549   1.423
  153HOH    HW1  594   2.199   0.489   1.470
  153HOH    HW2  595   2.087   0.588   1.492
  154HOH    OW   596   3.357   2.516   0.381
  154HOH    HW1  597   3.318   2.439   0.422
  154HOH    HW2  598   3.411   2.555   0.450
  155HOH    OW   599   1.746   0.055   0.867
  155HOH    HW1  600   1.766   0.144   0.896
  155HOH    HW2  601   1.691   0.067   0.789
  156HOH    OW   602   0.879   2.787   2.269
  156HOH    HW1  603   0.934   2.724   2.224
  156HOH    HW2  604   0.804   2.799   2.211
  157HOH    OW   605   1.487   2.964   3.845
  157HOH    HW1  606   1.546   2.951   3.919
  157HOH    HW2  607   1.412   3.011   3.882
  158HOH    OW   608   2.999   0.378   1.395
  158HOH    HW1  609   3.074   0.437   1.402
  158HOH    HW2  610   3.007   0.321   1.472
  159HOH    OW   611   0.601   3.530   2.327
  159HOH    HW1  612   0.681   3.582   2.317
  159HOH    HW2  613   0.604   3.468   2.254
  160HOH    OW   614   3.354   0.377   1.472
  160HOH    HW1  615   3.263   0.350   1.483
  160HOH    HW2  616   3.404   0.296   1.485
  161HOH    OW   617   2.896   2.317   0.658
  161HOH    HW1  618   2.983   2.315   0.698
  161HOH    HW2  619   2.863   2.405   0.678
  162HOH    OW   620   0.043   2.498   3.817
  162HOH    HW1  621   0.070   2.516   3.907
  162HOH    HW2  622   3.926   2.551   3.803
  163HOH    OW   623   3.505   0.162   1.457
  163HOH    HW1  624   3.589   0.139   1.419
  163HOH    HW2  625   3.451   0.083   1.447
  164HOH    OW   626   3.144   1.417   2.392
  164HOH    HW1  627   3.234   1.443   2.413
  164HOH    HW2  628   3.149   1.321   2.383
  165HOH    OW   629   2.423   0.873   1.893
  165HOH    HW1  630   2.419   0.906   1.983
  165HOH    HW2  631   2.413   0.778   1.901
  166HOH    OW   632   2.144   3.758   1.062
  166HOH    HW1  633   2.093   3.770   0.981
  166HOH    HW2  634   2.182   3.844   1.079
  167HOH    OW   635   0.456   0.850   2.921
  167HOH    HW1  636   0.501   0.895   2.850
  167HOH    HW2  637   0.397   0.788   2.878
  168HOH    OW   638   3.073   0.103   2.450
  168HOH    HW1  639   3.058   0.100   2.355
  168HOH    HW2  640   2.989   0.079   2.488
  169HOH    OW   641   0.693   3.287   3.794
  169HOH    HW1  642   0.780   3.290   3.834
  169HOH    HW2  643   0.646   3.361   3.833
  170HOH    OW   644   0.451   2.490   1.063
  170HOH    HW1  645   0.507   2.476   1.139
  170HOH    HW2  646   0.373   2.437   1.080
  171HOH    OW   647   3.300   3.592   3.141
  171HOH    HW1  648   3.242   3.558   3.073
  171HOH    HW2  649   3.377   3.623   3.094
  172HOH    OW   650   3.649   2.611   3.255
  172HOH    HW1  651   3.566   2.562   3.257
  172HOH    HW2  652   3.704   2.566   3.318
  173HOH    OW   653   3.355   2.123   1.319
  173HOH    HW1  654   3.286   2.121   1.386
  173HOH    HW2  655   3.436   2.132   1.369
  174HOH    OW   656   0.133   3.638   1.774
  174HOH    HW1  657   0.123   3.682   1.690
  174HOH    HW2  658   0.223   3.657   1.800
  175HOH    OW   659   1.076   1.258   2.299
  175HOH    HW1  660   1.064   1.320   2.371
  175HOH    HW2  661   1.150   1.293   2.249
  176HOH    OW   662   2.765   0.886   1.154
  176HOH    HW1  663   2.819   0.846   1.222
  176HOH    HW2  664   2.815   0.963   1.126
  177HOH    OW   665   2.873   2.245   1.385
  177HOH    HW1  666   2.863   2.207   1.473
  177HOH    HW2  667   2.922   2.179   1.336
  178HOH    OW   668   1.588   2.478   3.137
  178HOH    HW1  669   1.562   2.392   3.103
  178HOH    HW2  670   1.682   2.469   3.156
  179HOH    OW   671   1.838   3.461   3.811
  179HOH    HW1  672   1.763   3.403   3.825
  179HOH    HW2  673   1.913   3.402   3.804
  180HOH    OW   674   3.453   3.368   1.215
  180HOH    HW1  675   3.395   3.409   1.151
  180HOH    HW2  676   3.452   3.427   1.290
  181HOH    OW   677   1.344   3.435   3.586
  181HOH    HW1  678   1.355   3.343   3.563
  181HOH    HW2  679   1.431   3.473   3.575
  182HOH    OW   680   0.123   2.922   2.592
  182HOH    HW1  681   0.035   2.895   2.618
  182HOH    HW2  682   0.125   2.910   2.497
  183HOH    OW   683   3.605   3.252   0.283
  183HOH    HW1  684   3.571   3.222   0.199
  183HOH    HW2  685   3.621   3.171   0.333
  184HOH    OW   686   0.274   3.228   0.416
  184HOH    HW1  687   0.333   3.168   0.370
  184HOH    HW2  688   0.186   3.198   0.391
  185HOH    OW   689   2.981   0.366   1.955
  185HOH    HW1  690   2.993   0.281   1.912
  185HOH    HW2  691   2.888   0.370   1.975
  186HOH    OW   692   0.438   0.739   3.405
  186HOH    HW1  693   0.507   0.784   3.452
  186HOH    HW2  694   0.417   0.796   3.331
  187HOH    OW   695   2.157   1.300   2.135
  187HOH    HW1  696   2.212   1.259   2.068
  187HOH    HW2  697   2.213   1.302   2.213
  188HOH    OW   698   1.174   3.839   1.789
  188HOH    HW1  699   1.174   3.795   1.703
  188HOH    HW2  700   1.125   3.780   1.846
  189HOH    OW   701   2.601   1.197   2.555
  189HOH    HW1  702   2.554   1.121   2.587
  189HOH    HW2  703   2.666   1.162   2.494
  190HOH    OW   704   0.044   1.260   3.627
  190HOH    HW1  705   0.040   1.355   3.637
  190HOH    HW2  706   0.138   1.240   3.622
  191HOH    OW   707   2.635   1.556   1.183
  191HOH    HW1  708   2.674   1.629   1.135
  191HOH    HW2  709   2.670   1.565   1.272
  192HOH    OW   710   2.459   3.046   1.342
  192HOH    HW1  711   2.382   3.059   1.397
  192HOH    HW2  712   2.461   2.951   1.326
  193HOH    OW   713   1.737   0.107   3.709
  193HOH    HW1  714   1.666   0.058   3.751
  193HOH    HW2  715   1.753   0.058   3.627
  194HOH    OW   716   1.779   0.014   2.039
  194HOH    HW1  717   1.865   0.047   2.067
  194HOH    HW2  718   1.753   0.074   1.969
  195HOH    OW   719   1.436   1.760   2.508
  195HOH    HW1  720   1.482   1.706   2.572
  195HOH    HW2  721   1.410   1.700   2.439
  196HOH    OW   722   1.389   3.739   0.933
  196HOH    HW1  723   1.300   3.746   0.900
  196HOH    HW2  724   1.412   3.647   0.920
  197HOH    OW   725   3.035   2.348   3.207
  197HOH    HW1  726   3.022   2.265   3.253
  197HOH    HW2  727   3.053   2.324   3.117
  198HOH    OW   728   0.993   1.222   1.451
  198HOH    HW1  729   1.057   1.151   1.464
  198HOH    HW2  730   1.041   1.302   1.473
  199HOH    OW   731   1.155   2.459   3.220
  199HOH    HW1  732   1.226   2.467   3.283
  199HOH    HW2  733   1.075   2.457   3.273
  200HOH    OW   734   0.801   2.602   2.653
  200HOH    HW1  735   0.846   2.570   2.731
  200HOH    HW2  736   0.708   2.603   2.677
  201HOH    OW   737   0.202   3.101   1.518
  201HOH    HW1  738   0.188   3.054   1.436
  201HOH    HW2  739   0.294   3.127   1.516
  202HOH    OW   740   3.232   3.419   3.514
  202HOH    HW1  741   3.155   3.396   3.462
  202HOH    HW2  742   3.197   3.453   3.596
  203HOH    OW   743   0.071   1.398   3.160
  203HOH    HW1  744   0.065   1.317   3.109
  203HOH    HW2  745   0.161   1.401   3.190
  204HOH    OW   746   1.189   2.302   3.946
  204HOH    HW1  747   1.236   2.348   3.878
  204HOH    HW2  748   1.221   2.341   0.067
  205HOH    OW   749   1.933   1.918   0.351
  205HOH    HW1  750   1.897   1.865   0.421
  205HOH    HW2  751   1.969   1.855   0.289
  206HOH    OW   752   0.216   3.337   3.714
  206HOH    HW1  753   0.183   3.319   3.626
  206HOH    HW2  754   0.246   3.428   3.710
  207HOH    OW   755   0.843   1.065   0.470
  207HOH    HW1  756   0.890   1.062   0.553
  207HOH    HW2  757   0.773   1.000   0.480
  208HOH    OW   758   0.734   1.245   1.543
  208HOH    HW1  759   0.811   1.222   1.491
  208HOH    HW2  760   0.660   1.226   1.486
  209HOH    OW   761   3.162   1.252   1.504
  209HOH    HW1  762   3.249   1.227   1.535
  209HOH    HW2  763   3.108   1.174   1.519
  210HOH    OW   764   1.086   1.646   3.648
  210HOH    HW1  765   1.053   1.722   3.697
  210HOH    HW2  766   1.173   1.630   3.684
  211HOH    OW   767   3.286   3.862   3.329
  211HOH    HW1  768   3.273   3.953   3.354
  211HOH    HW2  769   3.344   3.866   3.253
  212HOH    OW   770   1.751   0.900   2.993
  212HOH    HW1  771   1.667   0.862   3.019
  212HOH    HW2  772   1.728   0.982   2.949
  213HOH    OW   773   1.109   0.048   2.497
  213HOH    HW1  774   1.163   0.034   2.575
  213HOH    HW2  775   1.115   0.142   2.479
  214HOH    OW   776   1.239   3.690   2.935
  214HOH    HW1  777   1.217   3.681   3.027
  214HOH    HW2  778   1.154   3.689   2.890
  215HOH    OW   779   1.298   3.509   2.529
  215HOH    HW1  780   1.353   3.431   2.531
  215HOH    HW2  781   1.357   3.580   2.505
  216HOH    OW   782   0.082   0.911   3.065
  216HOH    HW1  783   0.028   0.857   3.007
  216HOH    HW2  784   0.026   0.984   3.090
  217HOH    OW   785   2.527   2.064   1.316
  217HOH    HW1  786   2.519   2.112   1.233
  217HOH    HW2  787   2.620   2.041   1.321
  218HOH    OW   788   0.266   0.047   3.691
  218HOH    HW1  789   0.176   0.076   3.676
  218HOH    HW2  790   0.257   3.924   3.736
  219HOH    OW   791   0.884   3.903   1.265
  219HOH    HW1  792   0.817   3.924   1.200
  219HOH    HW2  793   0.928   3.825   1.231
  220HOH    OW   794   2.687   0.521   1.400
  220HOH    HW1  795   2.704   0.585   1.470
  220HOH    HW2  796   2.754   0.539   1.334
  221HOH    OW   797   3.124   3.169   2.652
  221HOH    HW1  798   3.089   3.088   2.615
  221HOH    HW2  799   3.067   3.238   2.617
  222HOH    OW   800   2.054   1.900   2.958
  222HOH    HW1  801   2.095   1.900   2.872
  222HOH    HW2  802   1.963   1.921   2.941
  223HOH    OW   803   2.227   1.224   0.828
  223HOH    HW1  804   2.185   1.165   0.764
  223HOH    HW2  805   2.153   1.268   0.871
  224HOH    OW   806   3.286   2.356   1.625
  224HOH    HW1  807   3.350   2.425   1.641
  224HOH    HW2  808   3.322   2.279   1.670
  225HOH    OW   809   0.062   1.776   3.879
  225HOH    HW1  810   0.128   1.821   3.931
  225HOH    HW2  811   3.940   1.814   3.908
  226HOH    OW   812   3.057   3.627   2.787
  226HOH    HW1  813   3.096   3.656   2.705
  226HOH    HW2  814   2.964   3.618   2.767
  227HOH    OW   815   3.772   2.782   0.551
  227HOH    HW1  816   3.822   2.836   0.490
  227HOH    HW2  817   3.836   2.755   0.617
  228HOH    OW   818   1.862   1.145   0.029
  228HOH    HW1  819   1.942   1.194   0.010
  228HOH    HW2  820   1.864   1.132   0.124
  229HOH    OW   821   1.575   3.170   3.230
  229HOH    HW1  822   1.647   3.155   3.168
  229HOH    HW2  823   1.584   3.261   3.257
  230HOH    OW   824   0.792   0.848   2.392
  230HOH    HW1  825   0.876   0.883   2.422
  230HOH    HW2  826   0.762   0.911   2.327
  231HOH    OW   827   1.808   3.831   2.816
  231HOH    HW1  828   1.883   3.853   2.761
  231HOH    HW2  829   1.764   3.915   2.832
  232HOH    OW   830   3.799   0.762   1.709
  232HOH    HW1  831   3.754   0.747   1.626
  232HOH    HW2  832   3.753   0.708   1.773
  233HOH    OW   833   1.085   3.034   2.552
  233HOH    HW1  834   1.149   3.105   2.562
  233HOH    HW2  835   1.129   2.957   2.588
  234HOH    OW   836   2.777   3.048   2.911
  234HOH    HW1  837   2.745   3.069   2.999
  234HOH    HW2  838   2.720   2.976   2.882
  235HOH    OW   839   0.685   3.147   1.725
  235HOH    HW1  840   0.717   3.206   1.793
  235HOH    HW2  841   0.762   3.097   1.697
  236HOH    OW   842   3.072   0.467   2.950
  236HOH    HW1  843   3.100   0.379   2.974
  236HOH    HW2  844   3.021   0.498   3.025
  237HOH    OW   845   1.342   0.788   0.098
  237HOH    HW1  846   1.426   0.819   0.129
  237HOH    HW2  847   1.322   0.843   0.022
  238HOH    OW   848   0.131   0.136   0.846
  238HOH    HW1  849   0.164   0.208   0.792
  238HOH    HW2  850   0.052   0.171   0.888
  239HOH    OW   851   0.889   0.786   3.777
  239HOH    HW1  852   0.902   0.778   3.872
  239HOH    HW2  853   0.893   0.696   3.744
  240HOH    OW   854   3.827   2.587   1.841
  240HOH    HW1  855   3.732   2.585   1.838
  240HOH    HW2  856   3.853   2.496   1.855
  241HOH    OW   857   3.514   3.092   1.726
  241HOH    HW1  858   3.589   3.035   1.707
  241HOH    HW2  859   3.510   3.152   1.652
  242HOH    OW   860   0.797   0.263   0.852
  242HOH    HW1  861   0.857   0.333   0.877
  242HOH    HW2  862   0.747   0.298   0.779
  243HOH    OW   863   1.070   0.947   2.521
  243HOH    HW1  864   1.109   0.917   2.439
  243HOH    HW2  865   1.085   0.875   2.582
  244HOH    OW   866   0.858   3.207   2.102
  244HOH    HW1  867   0.837   3.238   2.014
  244HOH    HW2  868   0.881   3.115   2.090
  245HOH    OW   869   1.363   3.669   1.565
  245HOH    HW1  870   1.372   3.760   1.593
  245HOH    HW2  871   1.429   3.658   1.497
  246HOH    OW   872   2.606   2.598   1.950
  246HOH    HW1  873   2.676   2.602   2.016
  246HOH    HW2  874   2.553   2.676   1.967
  247HOH    OW   875   3.027   1.704   2.554
  247HOH    HW1  876   3.025   1.673   2.463
  247HOH    HW2  877   2.938   1.686   2.587
  248HOH    OW   878   1.680   0.880   2.574
  248HOH    HW1  879   1.664   0.786   2.560
  248HOH    HW2  880   1.622   0.904   2.645
  249HOH    OW   881   0.877   2.138   1.780
  249HOH    HW1  882   0.940   2.074   1.746
  249HOH    HW2  883   0.813   2.147   1.709
  250HOH    OW   884   3.159   1.904   2.306
  250HOH    HW1  885   3.128   1.987   2.342
  250HOH    HW2  886   3.228   1.875   2.366
  251HOH    OW   887   2.209   2.579   0.407
  251HOH    HW1  888   2.156   2.533   0.472
  251HOH    HW2  889   2.225   2.514   0.339
  252HOH    OW   890   1.516   0.804   3.456
  252HOH    HW1  891   1.443   0.865   3.458
  252HOH    HW2  892   1.498   0.748   3.380
  253HOH    OW   893   1.148   1.969   1.381
  253HOH    HW1  894   1.183   2.058   1.383
  253HOH    HW2  895   1.062   1.975   1.423
  254HOH    OW   896   1.405   1.583   2.314
  254HOH    HW1  897   1.459   1.521   2.266
  254HOH    HW2  898   1.332   1.602   2.255
  255HOH    OW   899   1.191   3.159   1.535
  255HOH    HW1  900   1.285   3.145   1.522
  255HOH    HW2  901   1.183   3.188   1.626
  256HOH    OW   902   0.008   0.964   3.821
  256HOH    HW1  903   3.947   0.903   3.891
  256HOH    HW2  904   0.079   0.921   3.774
  257HOH    OW   905   3.109   0.866   3.082
  257HOH    HW1  906   3.182   0.866   3.019
  257HOH    HW2  907   3.137   0.805   3.150
  258HOH    OW   908   1.285   0.841   0.717
  258HOH    HW1  909   1.351   0.792   0.667
  258HOH    HW2  910   1.225   0.773   0.750
  259HOH    OW   911   0.736   0.619   3.256
  259HOH    HW1  912   0.830   0.629   3.270
  259HOH    HW2  913   0.703   0.709   3.251
  260HOH    OW   914   3.045   1.982   2.691
  260HOH    HW1  915   3.064   1.895   2.657
  260HOH    HW2  916   2.949   1.986   2.696
  261HOH    OW   917   3.411   3.649   3.408
  261HOH    HW1  918   3.365   3.727   3.377
  261HOH    HW2  919   3.377   3.577   3.355
  262HOH    OW   920   3.950   2.752   3.588
  262HOH    HW1  921   3.961   2.847   3.596
  262HOH    HW2  922   0.078   2.717   3.596
  263HOH    OW   923   0.954   1.160   2.681
  263HOH    HW1  924   1.018   1.205   2.736
  263HOH    HW2  925   1.004   1.130   2.605
  264HOH    OW   926   2.347   1.290   3.189
  264HOH    HW1  927   2.389   1.255   3.110
  264HOH    HW2  928   2.402   1.259   3.261
  265HOH    OW   929   0.997   3.873   0.574
  265HOH    HW1  930   0.970   0.003   0.591
  265HOH    HW2  931   1.076   3.881   0.520
  266HOH    OW   932   1.373   3.003   0.457
  266HOH    HW1  933   1.397   3.014   0.365
  266HOH    HW2  934   1.456   3.008   0.504
  267HOH    OW   935   3.702   1.447   3.789
  267HOH    HW1  936   3.729   1.421   3.701
  267HOH    HW2  937   3.772   1.414   3.846
  268HOH    OW   938   3.144   0.024   1.679
  268HOH    HW1  939   3.214   0.053   1.736
  268HOH    HW2  940   3.101   3.914   1.728
  269HOH    OW   941   1.727   0.523   1.141
  269HOH    HW1  942   1.673   0.452   1.174
  269HOH    HW2  943   1.790   0.540   1.212
  270HOH    OW   944   3.333   0.556   3.165
  270HOH    HW1  945   3.334   0.514   3.079
  270HOH    HW2  946   3.413   0.524   3.207
  271HOH    OW   947   0.560   0.158   2.122
  271HOH    HW1  948   0.600   0.243   2.141
  271HOH    HW2  949   0.625   0.094   2.152
  272HOH    OW   950   2.986   2.989   1.246
  272HOH    HW1  951   3.070   2.971   1.203
  272HOH    HW2  952   3.005   3.060   1.307
  273HOH    OW   953   2.364   1.605   1.260
  273HOH    HW1  954   2.372   1.676   1.324
  273HOH    HW2  955   2.451   1.599   1.221
  274HOH    OW   956   2.822   1.650   2.745
  274HOH    HW1  957   2.775   1.581   2.699
  274HOH    HW2  958   2.817   1.625   2.838
  275HOH    OW   959   1.990   3.114   0.505
  275HOH    HW1  960   1.916   3.058   0.482
  275HOH    HW2  961   2.028   3.139   0.421
  276HOH    OW   962   1.780   2.901   0.316
  276HOH    HW1  963   1.792   2.814   0.279
  276HOH    HW2  964   1.690   2.902   0.347
  277HOH    OW   965   2.239   3.653   1.608
  277HOH    HW1  966   2.239   3.714   1.682
  277HOH    HW2  967   2.271   3.706   1.534
  278HOH    OW   968   1.283   0.237   0.578
  278HOH    HW1  969   1.295   0.332   0.578
  278HOH    HW2  970   1.352   0.204   0.635
  279HOH    OW   971   0.381   2.497   1.343
  279HOH    HW1  972   0.379   2.579   1.393
  279HOH    HW2  973   0.474   2.484   1.322
  280HOH    OW   974   1.666   2.202   2.839
  280HOH    HW1  975   1.723   2.147   2.785
  280HOH    HW2  976   1.604   2.140   2.879
  281HOH    OW   977   3.176   3.888   2.031
  281HOH    HW1  978   3.199   0.020   2.035
  281HOH    HW2  979   3.257   3.842   2.053
  282HOH    OW   980   2.015   1.135   2.684
  282HOH    HW1  981   2.000   1.227   2.663
  282HOH    HW2  982   1.969   1.087   2.615
  283HOH    OW   983   0.308   2.752   1.476
  283HOH    HW1  984   0.387   2.804   1.462
  283HOH    HW2  985   0.237   2.805   1.440
  284HOH    OW   986   0.438   3.206   1.584
  284HOH    HW1  987   0.489   3.276   1.544
  284HOH    HW2  988   0.495   3.171   1.653
  285HOH    OW   989   0.626   2.413   1.303
  285HOH    HW1  990   0.706   2.462   1.288
  285HOH    HW2  991   0.652   2.321   1.297
  286HOH    OW   992   0.030   0.217   0.139
  286HOH    HW1  993   0.095   0.147   0.142
  286HOH    HW2  994   3.961   0.217   0.048
  287HOH    OW   995   3.791   1.812   1.625
  287HOH    HW1  996   3.819   1.867   1.552
  287HOH    HW2  997   3.857   1.827   1.693
  288HOH    OW   998   2.115   2.899   2.816
  288HOH    HW1  999   2.084   2.967   2.876
  288HOH    HW2 1000   2.118   2.819   2.870
  289HOH    OW  1001   0.239   0.930   3.634
  289HOH    HW1 1002   0.242   0.882   3.551
  289HOH    HW2 1003   0.250   0.863   3.701
  290HOH    OW  1004   1.183   0.419   2.872
  290HOH    HW1 1005   1.158   0.329   2.852
  290HOH    HW2 1006   1.153   0.433   2.962
  291HOH    OW  1007   3.054   3.479   2.996
  291HOH    HW1 1008   3.036   3.392   2.959
  291HOH    HW2 1009   3.070   3.534   2.919
  292HOH    OW  1010   0.343   0.609   1.749
  292HOH    HW1 1011   0.303   0.696   1.744
  292HOH    HW2 1012   0.269   0.549   1.764
  293HOH    OW  1013   2.981   3.229   2.919
  293HOH    HW1 1014   2.942   3.243   2.833
  293HOH    HW2 1015   2.937   3.150   2.952
  294HOH    OW  1016   1.205   2.731   0.755
  294HOH    HW1 1017   1.160   2.671   0.814
  294HOH    HW2 1018   1.298   2.713   0.769
  295HOH    OW  1019   2.053   0.737   0.869
  295HOH    HW1 1020   2.129   0.776   0.913
  295HOH    HW2 1021   2.078   0.645   0.858
  296HOH    OW  1022   2.467   3.781   1.094
  296HOH    HW1 1023   2.489   3.752   1.182
  296HOH    HW2 1024   2.406   3.854   1.107
  297HOH    OW  1025   3.814   0.837   0.466
  297HOH    HW1 1026   3.829   0.885   0.547
  297HOH    HW2 1027   3.749   0.889   0.419
  298HOH    OW  1028   2.819   1.425   2.121
  298HOH    HW1 1029   2.724   1.413   2.114
  298HOH    HW2 1030   2.829   1.513   2.158
  299HOH    OW  1031   1.818   3.555   0.177
  299HOH    HW1 1032   1.769   3.475   0.193
  299HOH    HW2 1033   1.795   3.580   0.088
  300HOH    OW  1034   2.585   0.412   1.149
  300HOH    HW1 1035   2.592   0.505   1.126
  300HOH    HW2 1036   2.675   0.381   1.156
  301HOH    OW  1037   1.353   2.771   2.613
  301HOH    HW1 1038   1.309   2.688   2.631
  301HOH    HW2 1039   1.445   2.753   2.628
  302HOH    OW  1040   1.777   1.979   3.456
  302HOH    HW1 1041   1.833   1.901   3.453
  302HOH    HW2 1042   1.771   2.001   3.550
  303HOH    OW  1043   3.738   1.955   1.100
  303HOH    HW1 1044   3.763   1.931   1.189
  303HOH    HW2 1045   3.742   2.050   1.098
  304HOH    OW  1046   0.619   1.823   1.135
  304HOH    HW1 1047   0.613   1.821   1.040
  304HOH    HW2 1048   0.710   1.846   1.153
  305HOH    OW  1049   0.435   2.284   1.542
  305HOH    HW1 1050   0.373   2.338   1.592
  305HOH    HW2 1051   0.417   2.305   1.451
  306HOH    OW  1052   2.311   2.315   2.453
  306HOH    HW1 1053   2.381   2.328   2.390
  306HOH    HW2 1054   2.232   2.305   2.399
  307HOH    OW  1055   1.039   2.718   1.185
  307HOH    HW1 1056   0.977   2.789   1.204
  307HOH    HW2 1057   1.119   2.745   1.230
  308HOH    OW  1058   1.800   3.663   0.425
  308HOH    HW1 1059   1.816   3.618   0.342
  308HOH    HW2 1060   1.871   3.635   0.481
  309HOH    OW  1061   3.689   3.283   2.152
  309HOH    HW1 1062   3.780   3.284   2.181
  309HOH    HW2 1063   3.692   3.312   2.061
  310HOH    OW  1064   3.197   0.443   2.127
  310HOH    HW1 1065   3.135   0.489   2.070
  310HOH    HW2 1066   3.283   0.477   2.102
  311HOH    OW  1067   0.290   3.432   0.848
  311HOH    HW1 1068   0.244   3.476   0.776
  311HOH    HW2 1069   0.358   3.493   0.874
  312HOH    OW  1070   2.445   1.196   2.960
  312HOH    HW1 1071   2.390   1.234   2.892
  312HOH    HW2 1072   2.535   1.208   2.928
  313HOH    OW  1073   1.255   2.761   0.252
  313HOH    HW1 1074   1.193   2.811   0.304
  313HOH    HW2 1075   1.340   2.778   0.293
  314HOH    OW  1076   3.765   1.002   3.124
  314HOH    HW1 1077   3.780   1.096   3.120
  314HOH    HW2 1078   3.754   0.984   3.218
  315HOH    OW  1079   3.209   3.260   2.275
  315HOH    HW1 1080   3.280   3.204   2.243
  315HOH    HW2 1081   3.215   3.340   2.223
  316HOH    OW  1082   1.623   0.606   0.149
  316HOH    HW1 1083   1.622   0.702   0.158
  316HOH    HW2 1084   1.685   0.590   0.078
  317HOH    OW  1085   2.055   3.284   3.747
  317HOH    HW1 1086   2.109   3.324   3.679
  317HOH    HW2 1087   2.026   3.201   3.709
  318HOH    OW  1088   1.828   1.601   3.776
  318HOH    HW1 1089   1.761   1.570   3.837
  318HOH    HW2 1090   1.807   1.694   3.764
  319HOH    OW  1091   0.103   3.369   2.063
  319HOH    HW1 1092   0.037   3.374   1.994
  319HOH    HW2 1093   0.145   3.284   2.050
  320HOH    OW  1094   0.880   0.727   1.093
  320HOH    HW1 1095   0.903   0.646   1.047
  320HOH    HW2 1096   0.918   0.797   1.040
  321HOH    OW  1097   2.754   3.895   0.953
  321HOH    HW1 1098   2.804   3.817   0.930
  321HOH    HW2 1099   2.671   3.861   0.988
  322HOH    OW  1100   2.814   2.850   1.897
  322HOH    HW1 1101   2.901   2.889   1.903
  322HOH    HW2 1102   2.792   2.855   1.804
  323HOH    OW  1103   1.393   0.522   0.404
  323HOH    HW1 1104   1.316   0.575   0.422
  323HOH    HW2 1105   1.397   0.517   0.308
  324HOH    OW  1106   3.184   0.719   2.702
  324HOH    HW1 1107   3.153   0.716   2.611
  324HOH    HW2 1108   3.243   0.794   2.705
  325HOH    OW  1109   3.082   0.294   1.642
  325HOH    HW1 1110   3.111   0.204   1.653
  325HOH    HW2 1111   3.118   0.340   1.718
  326HOH    OW  1112   2.283   3.445   3.606
  326HOH    HW1 1113   2.369   3.458   3.566
  326HOH    HW2 1114   2.221   3.456   3.534
  327HOH    OW  1115   3.671   0.410   1.168
  327HOH    HW1 1116   3.666   0.504   1.148
  327HOH    HW2 1117   3.580   0.382   1.174
  328HOH    OW  1118   2.633   3.065   0.216
  328HOH    HW1 1119   2.639   3.160   0.222
  328HOH    HW2 1120   2.540   3.046   0.229
  329HOH    OW  1121   2.956   3.132   2.168
  329HOH    HW1 1122   2.931   3.190   2.096
  329HOH    HW2 1123   3.019   3.183   2.218
  330HOH    OW  1124   2.121   1.416   1.829
  330HOH    HW1 1125   2.039   1.465   1.829
  330HOH    HW2 1126   2.142   1.404   1.736
  331HOH    OW  1127   2.918   2.757   3.022
  331HOH    HW1 1128   2.922   2.742   2.928
  331HOH    HW2 1129   2.826   2.775   3.039
  332HOH    OW  1130   2.333   0.109   1.943
  332HOH    HW1 1131   2.241   0.131   1.925
  332HOH    HW2 1132   2.382   0.162   1.881
  333HOH    OW  1133   1.281   3.929   3.244
  333HOH    HW1 1134   1.305   3.854   3.299
  333HOH    HW2 1135   1.226   3.891   3.176
  334HOH    OW  1136   1.932   2.181   0.416
  334HOH    HW1 1137   1.931   2.089   0.391
  334HOH    HW2 1138   1.883   2.225   0.347
  335HOH    OW  1139   0.437   2.502   3.539
  335HOH    HW1 1140   0.518   2.473   3.496
  335HOH    HW2 1141   0.382   2.533   3.468
  336HOH    OW  1142   3.921   1.539   3.368
  336HOH    HW1 1143   0.012   1.513   3.292
  336HOH    HW2 1144   0.022   1.587   3.424
  337HOH    OW  1145   3.639   2.090   1.463
  337HOH    HW1 1146   3.623   2.120   1.553
  337HOH    HW2 1147   3.734   2.082   1.457
  338HOH    OW  1148   0.145   3.299   3.007
  338HOH    HW1 1149   0.236   3.329   3.007
  338HOH    HW2 1150   0.147   3.216   3.054
  339HOH    OW  1151   0.934   2.383   0.735
  339HOH    HW1 1152   0.960   2.400   0.645
  339HOH    HW2 1153   0.983   2.304   0.760
  340HOH    OW  1154   1.241   0.009   2.247
  340HOH    HW1 1155   1.272   0.035   2.334
  340HOH    HW2 1156   1.270   3.879   2.238
  341HOH    OW  1157   3.150   2.639   2.775
  341HOH    HW1 1158   3.224   2.698   2.792
  341HOH    HW2 1159   3.190   2.562   2.734
  342HOH    OW  1160   3.626   2.667   1.091
  342HOH    HW1 1161   3.694   2.681   1.025
  342HOH    HW2 1162   3.623   2.749   1.140
  343HOH    OW  1163   3.398   2.153   3.064
  343HOH    HW1 1164   3.371   2.089   2.998
  343HOH    HW2 1165   3.367   2.237   3.031
  344HOH    OW  1166   2.332   2.937   1.606
  344HOH    HW1 1167   2.346   3.013   1.663
  344HOH    HW2 1168   2.402   2.876   1.629
  345HOH    OW  1169   0.786   1.260   3.123
  345HOH    HW1 1170   0.787   1.194   3.192
  345HOH    HW2 1171   0.713   1.235   3.067
  346HOH    OW  1172   1.323   3.480   0.950
  346HOH    HW1 1173   1.336   3.415   0.881
  346HOH    HW2 1174   1.364   3.441   1.027
  347HOH    OW  1175   2.841   0.314   1.167
  347HOH    HW1 1176   2.877   0.318   1.255
  347HOH    HW2 1177   2.909   0.273   1.115
  348HOH    OW  1178   2.350   3.534   1.902
  348HOH    HW1 1179   2.318   3.621   1.878
  348HOH    HW2 1180   2.271   3.483   1.919
  349HOH    OW  1181   3.477   1.590   3.330
  349HOH    HW1 1182   3.417   1.607   3.257
  349HOH    HW2 1183   3.420   1.559   3.401
  350HOH    OW  1184   2.460   3.496   3.399
  350HOH    HW1 1185   2.417   3.566   3.350
  350HOH    HW2 1186   2.474   3.427   3.334
  351HOH    OW  1187   1.382   3.258   2.491
  351HOH    HW1 1188   1.440   3.185   2.510
  351HOH    HW2 1189   1.338   3.233   2.409
  352HOH    OW  1190   3.557   3.853   3.591
  352HOH    HW1 1191   3.532   3.761   3.588
  352HOH    HW2 1192   3.639   3.854   3.642
  353HOH    OW  1193   2.803   2.263   2.628
  353HOH    HW1 1194   2.753   2.182   2.622
  353HOH    HW2 1195   2.781   2.298   2.714
  354HOH    OW  1196   1.431   1.470   3.095
  354HOH    HW1 1197   1.414   1.564   3.101
  354HOH    HW2 1198   1.364   1.430   3.150
  355HOH    OW  1199   2.094   1.287   0.124
  355HOH    HW1 1200   2.093   1.383   0.131
  355HOH    HW2 1201   2.180   1.262   0.155
  356HOH    OW  1202   3.562   0.636   2.937
  356HOH    HW1 1203   3.475   0.610   2.908
  356HOH    HW2 1204   3.605   0.668   2.859
  357HOH    OW  1205   2.615   0.875   0.635
  357HOH    HW1 1206   2.574   0.788   0.628
  357HOH    HW2 1207   2.541   0.936   0.637
  358HOH    OW  1208   1.325   0.060   1.107
  358HOH    HW1 1209   1.367   0.083   1.024
  358HOH    HW2 1210   1.375   0.107   1.173
  359HOH    OW  1211   2.182   3.853   2.092
  359HOH    HW1 1212   2.231   3.928   2.057
  359HOH    HW2 1213   2.108   3.893   2.139
  360HOH    OW  1214   1.648   1.585   0.472
  360HOH    HW1 1215   1.696   1.657   0.514
  360HOH    HW2 1216   1.688   1.578   0.385
  361HOH    OW  1217   0.194   0.337   0.694
  361HOH    HW1 1218   0.281   0.297   0.688
  361HOH    HW2 1219   0.180   0.377   0.609
  362HOH    OW  1220   3.047   2.992   1.946
  362HOH    HW1 1221   3.008   3.023   2.028
  362HOH    HW2 1222   3.127   2.947   1.973
  363HOH    OW  1223   0.294   1.124   0.010
  363HOH    HW1 1224   0.286   1.078   0.093
  363HOH    HW2 1225   0.218   1.094   3.920
  364HOH    OW  1226   2.760   3.096   3.250
  364HOH    HW1 1227   2.814   3.099   3.329
  364HOH    HW2 1228   2.732   3.004   3.245
  365HOH    OW  1229   0.657   3.431   0.763
  365HOH    HW1 1230   0.658   3.350   0.815
  365HOH    HW2 1231   0.606   3.493   0.817
  366HOH    OW  1232   2.324   3.047   2.335
  366HOH    HW1 1233   2.317   2.964   2.287
  366HOH    HW2 1234   2.268   3.035   2.411
  367HOH    OW  1235   0.794   2.463   3.189
  367HOH    HW1 1236   0.707   2.466   3.229
  367HOH    HW2 1237   0.813   2.369   3.180
  368HOH    OW  1238   0.841   0.168   3.739
  368HOH    HW1 1239   0.787   0.191   3.664
  368HOH    HW2 1240   0.910   0.234   3.740
  369HOH    OW  1241   3.455   0.889   0.056
  369HOH    HW1 1242   3.477   0.889   3.924
  369HOH    HW2 1243   3.377   0.834   0.062
  370HOH    OW  1244   1.849   2.297   2.222
  370HOH    HW1 1245   1.795   2.290   2.144
  370HOH    HW2 1246   1.813   2.371   2.270
  371HOH    OW  1247   2.327   1.501   2.959
  371HOH    HW1 1248   2.354   1.445   3.032
  371HOH    HW2 1249   2.232   1.508   2.969
  372HOH    OW  1250   3.405   0.648   0.674
  372HOH    HW1 1251   3.478   0.593   0.700
  372HOH    HW2 1252   3.400   0.716   0.741
  373HOH    OW  1253   3.026   2.900   0.928
  373HOH    HW1 1254   3.086   2.914   1.001
  373HOH    HW2 1255   3.083   2.886   0.852
  374HOH    OW  1256   3.040   1.214   3.283
  374HOH    HW1 1257   2.971   1.152   3.262
  374HOH    HW2 1258   3.077   1.181   3.366
  375HOH    OW  1259   1.355   2.435   3.767
  375HOH    HW1 1260   1.427   2.389   3.725
  375HOH    HW2 1261   1.386   2.525   3.777
  376HOH    OW  1262   3.937   3.760   1.216
  376HOH    HW1 1263   0.062   3.721   1.200
  376HOH    HW2 1264   3.876   3.689   1.197
  377HOH    OW  1265   0.277   0.347   0.057
  377HOH    HW1 1266   0.233   0.298   0.126
  377HOH    HW2 1267   0.212   0.351   3.947
  378HOH    OW  1268   2.214   2.378   3.248
  378HOH    HW1 1269   2.301   2.346   3.227
  378HOH    HW2 1270   2.212   2.467   3.213
  379HOH    OW  1271   1.235   0.136   2.987
  379HOH    HW1 1272   1.142   0.123   3.007
  379HOH    HW2 1273   1.281   0.086   3.053
  380HOH    OW  1274   1.762   0.422   1.729
  380HOH    HW1 1275   1.762   0.488   1.799
  380HOH    HW2 1276   1.855   0.404   1.714
  381HOH    OW  1277   3.870   2.079   3.773
  381HOH    HW1 1278   3.851   2.007   3.712
  381HOH    HW2 1279   3.839   2.047   3.857
  382HOH    OW  1280   0.666   0.388   0.630
  382HOH    HW1 1281   0.599   0.329   0.594
  382HOH    HW2 1282   0.720   0.411   0.554
  383HOH    OW  1283   2.630   3.807   1.684
  383HOH    HW1 1284   2.548   3.852   1.664
  383HOH    HW2 1285   2.669   3.788   1.598
  384HOH    OW  1286   3.822   2.695   0.121
  384HOH    HW1 1287   3.825   2.636   0.196
  384HOH    HW2 1288   3.749   2.663   0.068
  385HOH    OW  1289   0.728   2.596   3.671
  385HOH    HW1 1290   0.756   2.590   3.763
  385HOH    HW2 1291   0.642   2.639   3.676
  386HOH    OW  1292   1.196   0.829   3.598
  386HOH    HW1 1293   1.221   0.892   3.530
  386HOH    HW2 1294   1.108   0.856   3.624
  387HOH    OW  1295   1.635   2.470   2.336
  387HOH    HW1 1296   1.663   2.549   2.381
  387HOH    HW2 1297   1.539   2.473   2.339
  388HOH    OW  1298   3.816   3.177   3.658
  388HOH    HW1 1299   3.754   3.155   3.588
  388HOH    HW2 1300   3.763   3.178   3.738
  389HOH    OW  1301   0.493   3.641   0.878
  389HOH    HW1 1302   0.460   3.723   0.841
  389HOH    HW2 1303   0.508   3.661   0.970
  390HOH    OW  1304   3.225   2.624   2.174
  390HOH    HW1 1305   3.280   2.639   2.097
  390HOH    HW2 1306   3.263   2.681   2.242
  391HOH    OW  1307   0.277   0.774   2.670
  391HOH    HW1 1308   0.364   0.814   2.660
  391HOH    HW2 1309   0.264   0.726   2.588
  392HOH    OW  1310   2.913   2.285   0.979
  392HOH    HW1 1311   2.832   2.258   0.936
  392HOH    HW2 1312   2.983   2.247   0.925
  393HOH    OW  1313   1.151   1.545   0.058
  393HOH    HW1 1314   1.171   1.452   0.053
  393HOH    HW2 1315   1.080   1.557   3.955
  394HOH    OW  1316   0.245   0.545   0.479
  394HOH    HW1 1317   0.270   0.573   0.391
  394HOH    HW2 1318   0.173   0.603   0.503
  395HOH    OW  1319   1.815   1.777   0.574
  395HOH    HW1 1320   1.794   1.855   0.625
  395HOH    HW2 1321   1.863   1.721   0.634
  396HOH    OW  1322   2.471   2.355   1.848
  396HOH    HW1 1323   2.504   2.445   1.845
  396HOH    HW2 1324   2.539   2.304   1.803
  397HOH    OW  1325   3.043   3.671   1.336
  397HOH    HW1 1326   3.029   3.756   1.377
  397HOH    HW2 1327   3.057   3.690   1.244
  398HOH    OW  1328   2.266   2.516   2.621
  398HOH    HW1 1329   2.275   2.446   2.557
  398HOH    HW2 1330   2.234   2.473   2.700
  399HOH    OW  1331   2.868   3.288   2.582
  399HOH    HW1 1332   2.891   3.360   2.523
  399HOH    HW2 1333   2.830   3.222   2.524
  400HOH    OW  1334   3.525   3.062   0.496
  400HOH    HW1 1335   3.503   3.152   0.519
  400HOH    HW2 1336   3.505   3.012   0.575
  401HOH    OW  1337   2.065   2.377   3.495
  401HOH    HW1 1338   2.108   2.355   3.413
  401HOH    HW2 1339   2.016   2.457   3.476
  402HOH    OW  1340   2.278   3.563   1.320
  402HOH    HW1 1341   2.246   3.477   1.347
  402HOH    HW2 1342   2.206   3.623   1.339
  403HOH    OW  1343   3.456   0.469   1.991
  403HOH    HW1 1344   3.469   0.409   1.917
  403HOH    HW2 1345   3.480   0.417   2.068
  404HOH    OW  1346   2.757   1.219   1.436
  404HOH    HW1 1347   2.818   1.153   1.469
  404HOH    HW2 1348   2.673   1.196   1.474
  405HOH    OW  1349   3.002   0.225   0.879
  405HOH    HW1 1350   2.993   0.200   0.787
  405HOH    HW2 1351   2.950   0.161   0.927
  406HOH    OW  1352   2.012   0.712   1.606
  406HOH    HW1 1353   2.046   0.771   1.674
  406HOH    HW2 1354   1.956   0.767   1.552
  407HOH    OW  1355   2.015   0.567   2.623
  407HOH    HW1 1356   2.108   0.588   2.630
  407HOH    HW2 1357   2.002   0.549   2.530
  408HOH    OW  1358   0.426   1.454   3.415
  408HOH    HW1 1359   0.387   1.405   3.342
  408HOH    HW2 1360   0.498   1.398   3.445
  409HOH    OW  1361   0.236   2.172   3.839
  409HOH    HW1 1362   0.275   2.257   3.815
  409HOH    HW2 1363   0.222   2.128   3.755
  410HOH    OW  1364   2.539   2.782   1.654
  410HOH    HW1 1365   2.533   2.719   1.726
  410HOH    HW2 1366   2.587   2.736   1.585
  411HOH    OW  1367   2.476   2.256   3.633
  411HOH    HW1 1368   2.481   2.169   3.673
  411HOH    HW2 1369   2.404   2.299   3.680
  412HOH    OW  1370   1.375   0.690   2.551
  412HOH    HW1 1371   1.286   0.665   2.524
  412HOH    HW2 1372   1.397   0.628   2.621
  413HOH    OW  1373   2.636   2.478   0.722
  413HOH    HW1 1374   2.698   2.544   0.692
  413HOH    HW2 1375   2.555   2.498   0.674
  414HOH    OW  1376   1.823   0.580   1.412
  414HOH    HW1 1377   1.860   0.562   1.499
  414HOH    HW2 1378   1.874   0.654   1.380
  415HOH    OW  1379   0.375   1.959   0.508
  415HOH    HW1 1380   0.435   2.013   0.456
  415HOH    HW2 1381   0.379   1.873   0.467
  416HOH    OW  1382   1.925   0.983   2.478
  416HOH    HW1 1383   1.847   0.941   2.514
  416HOH    HW2 1384   1.890   1.048   2.417
  417HOH    OW  1385   0.955   3.350   3.569
  417HOH    HW1 1386   0.999   3.412   3.627
  417HOH    HW2 1387   0.893   3.402   3.519
  418HOH    OW  1388   2.137   2.978   0.706
  418HOH    HW1 1389   2.186   3.009   0.630
  418HOH    HW2 1390   2.203   2.937   0.762
  419HOH    OW  1391   0.069   2.053   0.358
  419HOH    HW1 1392   0.091   2.071   0.267
  419HOH    HW2 1393   0.134   2.102   0.409
  420HOH    OW  1394   2.853   2.760   1.272
  420HOH    HW1 1395   2.914   2.831   1.252
  420HOH    HW2 1396   2.780   2.802   1.317
  421HOH    OW  1397   1.756   2.818   1.778
  421HOH    HW1 1398   1.737   2.896   1.725
  421HOH    HW2 1399   1.733   2.844   1.868
  422HOH    OW  1400   0.440   3.264   2.901
  422HOH    HW1 1401   0.479   3.176   2.901
  422HOH    HW2 1402   0.369   3.258   2.837
  423HOH    OW  1403   3.757   3.218   2.510
  423HOH    HW1 1404   3.783   3.302   2.473
  423HOH    HW2 1405   3.780   3.153   2.444
  424HOH    OW  1406   2.922   1.724   2.267
  424HOH    HW1 1407   3.003   1.776   2.267
  424HOH    HW2 1408   2.855   1.785   2.235
  425HOH    OW  1409   1.537   0.109   0.651
  425HOH    HW1 1410   1.552   0.016   0.668
  425HOH    HW2 1411   1.541   0.117   0.556
  426HOH    OW  1412   0.027   3.831   2.846
  426HOH    HW1 1413   0.063   3.742   2.856
  426HOH    HW2 1414   3.918   3.836   2.911
  427HOH    OW  1415   2.183   2.756   1.498
  427HOH    HW1 1416   2.204   2.762   1.405
  427HOH    HW2 1417   2.231   2.828   1.539
  428HOH    OW  1418   3.171   3.316   0.554
  428HOH    HW1 1419   3.135   3.385   0.499
  428HOH    HW2 1420   3.100   3.253   0.565
  429HOH    OW  1421   2.328   1.872   3.673
  429HOH    HW1 1422   2.233   1.886   3.670
  429HOH    HW2 1423   2.343   1.798   3.614
  430HOH    OW  1424   1.316   2.348   2.326
  430HOH    HW1 1425   1.276   2.435   2.337
  430HOH    HW2 1426   1.275   2.313   2.247
  431HOH    OW  1427   2.137   2.525   2.327
  431HOH    HW1 1428   2.161   2.444   2.282
  431HOH    HW2 1429   2.201   2.590   2.297
  432HOH    OW  1430   1.771   1.616   0.223
  432HOH    HW1 1431   1.764   1.699   0.176
  432HOH    HW2 1432   1.862   1.612   0.251
  433HOH    OW  1433   1.260   2.469   1.368
  433HOH    HW1 1434   1.286   2.542   1.311
  433HOH    HW2 1435   1.248   2.395   1.309
  434HOH    OW  1436   2.525   1.695   2.995
  434HOH    HW1 1437   2.604   1.642   3.000
  434HOH    HW2 1438   2.454   1.631   2.992
  435HOH    OW  1439   3.428   0.301   2.649
  435HOH    HW1 1440   3.412   0.325   2.558
  435HOH    HW2 1441   3.344   0.267   2.680
  436HOH    OW  1442   2.554   3.295   3.255
  436HOH    HW1 1443   2.596   3.210   3.242
  436HOH    HW2 1444   2.529   3.323   3.167
  437HOH    OW  1445   3.436   1.658   0.515
  437HOH    HW1 1446   3.376   1.605   0.462
  437HOH    HW2 1447   3.426   1.747   0.482
  438HOH    OW  1448   3.059   0.479   0.995
  438HOH    HW1 1449   3.054   0.402   0.937
  438HOH    HW2 1450   2.969   0.494   1.024
  439HOH    OW  1451   3.395   2.728   0.934
  439HOH    HW1 1452   3.370   2.669   1.005
  439HOH    HW2 1453   3.469   2.684   0.892
  440HOH    OW  1454   1.590   3.569   2.089
  440HOH    HW1 1455   1.608   3.513   2.164
  440HOH    HW2 1456   1.669   3.564   2.036
  441HOH    OW  1457   1.725   0.558   2.624
  441HOH    HW1 1458   1.819   0.554   2.640
  441HOH    HW2 1459   1.696   0.467   2.625
  442HOH    OW  1460   1.438   1.044   3.088
  442HOH    HW1 1461   1.502   1.080   3.149
  442HOH    HW2 1462   1.421   1.115   3.026
  443HOH    OW  1463   1.691   1.004   1.993
  443HOH    HW1 1464   1.699   0.916   1.955
  443HOH    HW2 1465   1.752   1.057   1.942
  444HOH    OW  1466   3.771   3.577   3.718
  444HOH    HW1 1467   3.845   3.523   3.745
  444HOH    HW2 1468   3.739   3.535   3.638
  445HOH    OW  1469   2.425   0.693   1.607
  445HOH    HW1 1470   2.457   0.606   1.586
  445HOH    HW2 1471   2.379   0.683   1.691
  446HOH    OW  1472   3.759   2.155   3.234
  446HOH    HW1 1473   3.786   2.241   3.266
  446HOH    HW2 1474   3.719   2.173   3.149
  447HOH    OW  1475   1.726   0.300   3.132
  447HOH    HW1 1476   1.655   0.238   3.116
  447HOH    HW2 1477   1.691   0.384   3.101
  448HOH    OW  1478   3.802   2.245   0.048
  448HOH    HW1 1479   3.880   2.259   0.102
  448HOH    HW2 1480   3.800   2.321   3.950
  449HOH    OW  1481   2.460   3.258   2.235
  449HOH    HW1 1482   2.459   3.239   2.141
  449HOH    HW2 1483   2.408   3.188   2.274
  450HOH    OW  1484   3.851   3.793   2.283
  450HOH    HW1 1485   3.916   3.732   2.249
  450HOH    HW2 1486   3.877   3.809   2.373
  451HOH    OW  1487   0.576   1.929   0.740
  451HOH    HW1 1488   0.608   1.881   0.663
  451HOH    HW2 1489   0.483   1.942   0.722
  452HOH    OW  1490   1.502   1.648   2.802
  452HOH    HW1 1491   1.484   1.558   2.832
  452HOH    HW2 1492   1.428   1.699   2.834
  453HOH    OW  1493   0.824   2.954   3.838
  453HOH    HW1 1494   0.881   2.954   3.915
  453HOH    HW2 1495   0.758   3.020   3.857
  454HOH    OW  1496   2.550   3.000   2.516
  454HOH    HW1 1497   2.581   3.085   2.485
  454HOH    HW2 1498   2.482   2.975   2.453
  455HOH    OW  1499   1.551   3.239   0.929
  455HOH    HW1 1500   1.458   3.219   0.914
  455HOH    HW2 1501   1.560   3.330   0.903
  456HOH    OW  1502   3.866   1.156   1.894
  456HOH    HW1 1503   3.772   1.172   1.897
  456HOH    HW2 1504   3.887   1.148   1.801
  457HOH    OW  1505   0.345   2.274   3.181
  457HOH    HW1 1506   0.360   2.248   3.272
  457HOH    HW2 1507   0.262   2.232   3.158
  458HOH    OW  1508   1.196   0.752   2.281
  458HOH    HW1 1509   1.170   0.760   2.189
  458HOH    HW2 1510   1.257   0.825   2.295
  459HOH    OW  1511   2.129   2.138   3.581
  459HOH    HW1 1512   2.115   2.232   3.570
  459HOH    HW2 1513   2.152   2.107   3.493
  460HOH    OW  1514   0.891   2.794   3.617
  460HOH    HW1 1515   0.844   2.711   3.608
  460HOH    HW2 1516   0.853   2.835   3.694
  461HOH    OW  1517   1.587   0.787   1.419
  461HOH    HW1 1518   1.558   0.698   1.441
  461HOH    HW2 1519   1.573   0.837   1.499
  462HOH    OW  1520   2.825   1.668   0.563
  462HOH    HW1 1521   2.740   1.689   0.602
  462HOH    HW2 1522   2.880   1.743   0.585
  463HOH    OW  1523   2.125   0.086   0.649
  463HOH    HW1 1524   2.054   0.082   0.585
  463HOH    HW2 1525   2.084   0.062   0.732
  464HOH    OW  1526   1.473   0.318   2.056
  464HOH    HW1 1527   1.467   0.223   2.045
  464HOH    HW2 1528   1.443   0.334   2.146
  465HOH    OW  1529   1.622   2.609   1.255
  465HOH    HW1 1530   1.692   2.627   1.317
  465HOH    HW2 1531   1.601   2.516   1.268
  466HOH    OW  1532   0.717   0.003   3.897
  466HOH    HW1 1533   0.749   3.883   3.856
  466HOH    HW2 1534   0.748   0.072   3.839
  467HOH    OW  1535   0.497   0.317   0.416
  467HOH    HW1 1536   0.404   0.305   0.397
  467HOH    HW2 1537   0.539   0.315   0.330
  468HOH    OW  1538   1.525   2.903   3.213
  468HOH    HW1 1539   1.469   2.879   3.286
  468HOH    HW2 1540   1.555   2.991   3.234
  469HOH    OW  1541   3.796   3.861   0.162
  469HOH    HW1 1542   3.809   3.789   0.224
  469HOH    HW2 1543   3.758   3.819   0.084
  470HOH    OW  1544   1.403   0.916   2.313
  470HOH    HW1 1545   1.440   0.874   2.391
  470HOH    HW2 1546   1.454   0.997   2.303
  471HOH    OW  1547   3.492   1.822   1.947
  471HOH    HW1 1548   3.426   1.788   1.887
  471HOH    HW2 1549   3.533   1.894   1.899
  472HOH    OW  1550   0.823   1.525   3.018
  472HOH    HW1 1551   0.772   1.535   2.937
  472HOH    HW2 1552   0.796   1.440   3.052
  473HOH    OW  1553   3.355   3.394   0.251
  473HOH    HW1 1554   3.300   3.316   0.244
  473HOH    HW2 1555   3.437   3.362   0.289
  474HOH    OW  1556   1.347   1.272   2.183
  474HOH    HW1 1557   1.340   1.357   2.139
  474HOH    HW2 1558   1.328   1.208   2.114
  475HOH    OW  1559   2.245   3.436   0.652
  475HOH    HW1 1560   2.219   3.420   0.743
  475HOH    HW2 1561   2.329   3.392   0.643
  476HOH    OW  1562   2.836   0.975   0.514
  476HOH    HW1 1563   2.749   0.955   0.548
  476HOH    HW2 1564   2.866   1.048   0.569
  477HOH    OW  1565   2.884   1.126   2.517
  477HOH    HW1 1566   2.875   1.139   2.611
  477HOH    HW2 1567   2.969   1.165   2.495
  478HOH    OW  1568   2.074   1.190   3.133
  478HOH    HW1 1569   2.074   1.163   3.042
  478HOH    HW2 1570   2.150   1.248   3.141
  479HOH    OW  1571   3.389   3.852   1.747
  479HOH    HW1 1572   3.454   3.897   1.801
  479HOH    HW2 1573   3.348   3.789   1.807
  480HOH    OW  1574   2.271   3.235   0.012
  480HOH    HW1 1575   2.243   3.144   0.007
  480HOH    HW2 1576   2.220   3.273   0.084
  481HOH    OW  1577   3.380   3.555   3.746
  481HOH    HW1 1578   3.377   3.461   3.765
  481HOH    HW2 1579   3.409   3.560   3.654
  482HOH    OW  1580   2.943   0.717   1.815
  482HOH    HW1 1581   2.947   0.653   1.886
  482HOH    HW2 1582   2.874   0.778   1.841
  483HOH    OW  1583   2.885   0.541   3.153
  483HOH    HW1 1584   2.830   0.473   3.192
  483HOH    HW2 1585   2.833   0.621   3.162
  484HOH    OW  1586   3.289   3.383   2.750
  484HOH    HW1 1587   3.234   3.305   2.746
  484HOH    HW2 1588   3.286   3.418   2.661
  485HOH    OW  1589   1.911   3.480   2.203
  485HOH    HW1 1590   1.920   3.387   2.181
  485HOH    HW2 1591   1.966   3.492   2.280
  486HOH    OW  1592   1.157   0.141   3.435
  486HOH    HW1 1593   1.102   0.196   3.379
  486HOH    HW2 1594   1.206   0.085   3.374
  487HOH    OW  1595   3.383   1.840   2.477
  487HOH    HW1 1596   3.446   1.898   2.435
  487HOH    HW2 1597   3.415   1.752   2.459
  488HOH    OW  1598   3.797   3.656   0.366
  488HOH    HW1 1599   3.779   3.707   0.445
  488HOH    HW2 1600   3.883   3.618   0.382
  489HOH    OW  1601   0.287   1.180   3.634
  489HOH    HW1 1602   0.268   1.087   3.647
  489HOH    HW2 1603   0.308   1.213   3.721
  490HOH    OW  1604   1.488   1.898   0.912
  490HOH    HW1 1605   1.534   1.956   0.851
  490HOH    HW2 1606   1.443   1.835   0.855
  491HOH    OW  1607   0.841   0.225   0.132
  491HOH    HW1 1608   0.746   0.220   0.137
  491HOH    HW2 1609   0.860   0.233   0.039
  492HOH    OW  1610   1.145   2.690   0.026
  492HOH    HW1 1611   1.175   2.732   0.107
  492HOH    HW2 1612   1.151   2.759   3.921
  493HOH    OW  1613   2.168   2.981   2.562
  493HOH    HW1 1614   2.130   2.903   2.522
  493HOH    HW2 1615   2.168   2.963   2.656
  494HOH    OW  1616   0.039   3.597   0.567
  494HOH    HW1 1617   0.032   3.683   0.607
  494HOH    HW2 1618   0.133   3.577   0.568
  495HOH    OW  1619   0.660   0.940   3.179
  495HOH    HW1 1620   0.675   0.981   3.094
  495HOH    HW2 1621   0.578   0.979   3.210
  496HOH    OW  1622   1.142   3.299   1.785
  496HOH    HW1 1623   1.137   3.322   1.877
  496HOH    HW2 1624   1.109   3.376   1.738
  497HOH    OW  1625   0.262   0.828   1.925
  497HOH    HW1 1626   0.242   0.736   1.939
  497HOH    HW2 1627   0.178   0.873   1.936
  498HOH    OW  1628   1.690   0.155   1.806
  498HOH    HW1 1629   1.680   0.140   1.712
  498HOH    HW2 1630   1.691   0.250   1.816
  499HOH    OW  1631   2.697   1.514   1.456
  499HOH    HW1 1632   2.673   1.523   1.548
  499HOH    HW2 1633   2.725   1.422   1.448
  500HOH    OW  1634   1.356   2.212   0.221
  500HOH    HW1 1635   1.285   2.264   0.258
  500HOH    HW2 1636   1.434   2.268   0.231
  501HOH    OW  1637   0.914   0.243   1.479
  501HOH    HW1 1638   0.889   0.272   1.391
  501HOH    HW2 1639   0.842   0.186   1.507
  502HOH    OW  1640   0.675   2.263   0.802
  502HOH    HW1 1641   0.669   2.167   0.802
  502HOH    HW2 1642   0.768   2.280   0.784
  503HOH    OW  1643   0.536   0.667   0.427
  503HOH    HW1 1644   0.538   0.679   0.332
  503HOH    HW2 1645   0.526   0.572   0.439
  504HOH    OW  1646   1.187   1.635   0.377
  504HOH    HW1 1647   1.275   1.602   0.390
  504HOH    HW2 1648   1.165   1.612   0.287
  505HOH    OW  1649   3.239   3.478   1.071
  505HOH    HW1 1650   3.232   3.566   1.035
  505HOH    HW2 1651   3.159   3.465   1.121
  506HOH    OW  1652   3.814   3.477   2.464
  506HOH    HW1 1653   3.839   3.569   2.473
  506HOH    HW2 1654   3.895   3.432   2.441
  507HOH    OW  1655   2.319   2.062   0.505
  507HOH    HW1 1656   2.291   2.152   0.491
  507HOH    HW2 1657   2.284   2.038   0.591
  508HOH    OW  1658   0.869   3.071   3.455
  508HOH    HW1 1659   0.895   3.154   3.495
  508HOH    HW2 1660   0.856   3.012   3.528
  509HOH    OW  1661   1.907   1.051   0.291
  509HOH    HW1 1662   1.982   1.042   0.349
  509HOH    HW2 1663   1.898   0.964   0.251
  510HOH    OW  1664   0.770   3.929   0.309
  510HOH    HW1 1665   0.853   3.902   0.268
  510HOH    HW2 1666   0.717   0.000   0.237
  511HOH    OW  1667   2.165   3.359   0.898
  511HOH    HW1 1668   2.091   3.299   0.892
  511HOH    HW2 1669   2.207   3.337   0.981
  512HOH    OW  1670   2.464   3.944   1.530
  512HOH    HW1 1671   2.532   0.039   1.492
  512HOH    HW2 1672   2.450   3.875   1.466
  513HOH    OW  1673   3.337   1.021   2.825
  513HOH    HW1 1674   3.420   0.992   2.865
  513HOH    HW2 1675   3.322   1.108   2.862
  514HOH    OW  1676   2.429   0.812   3.388
  514HOH    HW1 1677   2.479   0.748   3.338
  514HOH    HW2 1678   2.338   0.787   3.374
  515HOH    OW  1679   1.602   3.559   0.618
  515HOH    HW1 1680   1.658   3.486   0.646
  515HOH    HW2 1681   1.656   3.607   0.556
  516HOH    OW  1682   0.045   3.185   0.595
  516HOH    HW1 1683   3.957   3.257   0.555
  516HOH    HW2 1684   0.020   3.108   0.544
  517HOH    OW  1685   1.036   2.702   0.486
  517HOH    HW1 1686   0.961   2.757   0.506
  517HOH    HW2 1687   1.108   2.740   0.535
  518HOH    OW  1688   3.023   3.947   0.015
  518HOH    HW1 1689   3.071   3.938   3.894
  518HOH    HW2 1690   2.970   3.868   0.021
  519HOH    OW  1691   1.419   3.341   1.985
  519HOH    HW1 1692   1.470   3.421   1.996
  519HOH    HW2 1693   1.438   3.312   1.896
  520HOH    OW  1694   3.108   3.175   3.669
  520HOH    HW1 1695   3.202   3.185   3.681
  520HOH    HW2 1696   3.069   3.214   3.748
  521HOH    OW  1697   2.773   3.365   3.630
  521HOH    HW1 1698   2.755   3.279   3.669
  521HOH    HW2 1699   2.695   3.417   3.648
  522HOH    OW  1700   3.677   0.672   1.472
  522HOH    HW1 1701   3.633   0.649   1.390
  522HOH    HW2 1702   3.768   0.688   1.447
  523HOH    OW  1703   0.746   1.792   1.620
  523HOH    HW1 1704   0.686   1.810   1.692
  523HOH    HW2 1705   0.738   1.697   1.606
  524HOH    OW  1706   1.624   2.919   1.981
  524HOH    HW1 1707   1.605   3.011   1.999
  524HOH    HW2 1708   1.538   2.876   1.987
  525HOH    OW  1709   1.530   2.662   3.816
  525HOH    HW1 1710   1.485   2.742   3.792
  525HOH    HW2 1711   1.584   2.641   3.740
  526HOH    OW  1712   0.076   3.314   2.334
  526HOH    HW1 1713   0.104   3.340   2.246
  526HOH    HW2 1714   0.008   3.248   2.319
  527HOH    OW  1715   2.626   0.316   2.995
  527HOH    HW1 1716   2.545   0.279   3.032
  527HOH    HW2 1717   2.678   0.341   3.071
  528HOH    OW  1718   1.476   1.268   2.911
  528HOH    HW1 1719   1.486   1.324   2.988
  528HOH    HW2 1720   1.564   1.236   2.892
  529HOH    OW  1721   1.881   3.659   1.389
  529HOH    HW1 1722   1.894   3.621   1.476
  529HOH    HW2 1723   1.962   3.707   1.371
  530HOH    OW  1724   2.039   0.391   1.786
  530HOH    HW1 1725   2.042   0.476   1.830
  530HOH    HW2 1726   2.131   0.368   1.772
  531HOH    OW  1727   2.078   0.760   0.589
  531HOH    HW1 1728   2.095   0.766   0.683
  531HOH    HW2 1729   1.996   0.711   0.582
  532HOH    OW  1730   0.531   3.053   3.494
  532HOH    HW1 1731   0.543   3.144   3.467
  532HOH    HW2 1732   0.577   3.002   3.427
  533HOH    OW  1733   0.237   0.291   0.369
  533HOH    HW1 1734   0.179   0.223   0.403
  533HOH    HW2 1735   0.213   0.370   0.418
  534HOH    OW  1736   1.081   0.333   3.762
  534HOH    HW1 1737   1.118   0.419   3.782
  534HOH    HW2 1738   1.158   0.277   3.745
  535HOH    OW  1739   2.988   2.936   2.544
  535HOH    HW1 1740   2.914   2.923   2.485
  535HOH    HW2 1741   2.962   2.893   2.625
  536HOH    OW  1742   3.631   3.915   0.910
  536HOH    HW1 1743   3.576   3.934   0.834
  536HOH    HW2 1744   3.677   3.835   0.887
  537HOH    OW  1745   3.200   1.580   0.677
  537HOH    HW1 1746   3.232   1.543   0.759
  537HOH    HW2 1747   3.273   1.635   0.646
  538HOH    OW  1748   1.869   1.528   3.259
  538HOH    HW1 1749   1.872   1.518   3.354
  538HOH    HW2 1750   1.800   1.593   3.244
  539HOH    OW  1751   3.655   1.743   3.440
  539HOH    HW1 1752   3.610   1.739   3.524
  539HOH    HW2 1753   3.590   1.714   3.376
  540HOH    OW  1754   2.872   0.864   0.265
  540HOH    HW1 1755   2.862   0.899   0.353
  540HOH    HW2 1756   2.936   0.793   0.274
  541HOH    OW  1757   3.567   3.961   2.491
  541HOH    HW1 1758   3.555   0.074   2.549
  541HOH    HW2 1759   3.609   3.894   2.545
  542HOH    OW  1760   0.427   1.150   3.420
  542HOH    HW1 1761   0.388   1.152   3.508
  542HOH    HW2 1762   0.498   1.087   3.426
  543HOH    OW  1763   1.700   3.685   3.939
  543HOH    HW1 1764   1.770   3.748   3.919
  543HOH    HW2 1765   1.692   3.632   3.860
  544HOH    OW  1766   1.136   0.537   1.226
  544HOH    HW1 1767   1.150   0.495   1.141
  544HOH    HW2 1768   1.141   0.465   1.289
  545HOH    OW  1769   2.659   3.685   3.272
  545HOH    HW1 1770   2.705   3.656   3.193
  545HOH    HW2 1771   2.622   3.604   3.309
  546HOH    OW  1772   1.676   1.542   2.588
  546HOH    HW1 1773   1.700   1.618   2.535
  546HOH    HW2 1774   1.655   1.579   2.674
  547HOH    OW  1775   3.686   3.340   1.889
  547HOH    HW1 1776   3.655   3.272   1.830
  547HOH    HW2 1777   3.780   3.345   1.871
  548HOH    OW  1778   1.660   1.515   2.138
  548HOH    HW1 1779   1.748   1.554   2.139
  548HOH    HW2 1780   1.676   1.422   2.124
  549HOH    OW  1781   0.483   2.894   2.038
  549HOH    HW1 1782   0.434   2.833   2.093
  549HOH    HW2 1783   0.568   2.851   2.024
  550HOH    OW  1784   1.396   0.351   0.150
  550HOH    HW1 1785   1.450   0.280   0.183
  550HOH    HW2 1786   1.314   0.344   0.200
  551HOH    OW  1787   0.586   3.853   3.330
  551HOH    HW1 1788   0.508   3.909   3.337
  551HOH    HW2 1789   0.571   3.784   3.394
  552HOH    OW  1790   2.152   2.873   1.103
  552HOH    HW1 1791   2.087   2.815   1.143
  552HOH    HW2 1792   2.162   2.945   1.165
  553HOH    OW  1793   2.257   2.052   2.712
  553HOH    HW1 1794   2.334   2.026   2.763
  553HOH    HW2 1795   2.251   1.987   2.641
  554HOH    OW  1796   2.561   0.401   2.708
  554HOH    HW1 1797   2.510   0.376   2.785
  554HOH    HW2 1798   2.643   0.435   2.743
  555HOH    OW  1799   2.064   0.929   1.892
  555HOH    HW1 1800   2.139   0.898   1.942
  555HOH    HW2 1801   1.989   0.887   1.934
  556HOH    OW  1802   2.833   3.284   1.339
  556HOH    HW1 1803   2.753   3.250   1.300
  556HOH    HW2 1804   2.866   3.213   1.394
  557HOH    OW  1805   3.862   0.306   3.523
  557HOH    HW1 1806   3.827   0.299   3.434
  557HOH    HW2 1807   3.784   0.314   3.578
  558HOH    OW  1808   1.963   2.213   0.859
  558HOH    HW1 1809   2.055   2.231   0.838
  558HOH    HW2 1810   1.916   2.243   0.781
  559HOH    OW  1811   1.754   3.299   1.733
  559HOH    HW1 1812   1.780   3.376   1.783
  559HOH    HW2 1813   1.662   3.316   1.710
  560HOH    OW  1814   1.005   2.077   3.358
  560HOH    HW1 1815   1.087   2.118   3.386
  560HOH    HW2 1816   0.977   2.025   3.433
  561HOH    OW  1817   1.813   0.426   3.490
  561HOH    HW1 1818   1.765   0.509   3.485
  561HOH    HW2 1819   1.770   0.379   3.562
  562HOH    OW  1820   1.258   0.321   1.421
  562HOH    HW1 1821   1.263   0.382   1.494
  562HOH    HW2 1822   1.182   0.267   1.440
  563HOH    OW  1823   3.154   1.665   3.734
  563HOH    HW1 1824   3.110   1.618   3.804
  563HOH    HW2 1825   3.083   1.714   3.691
  564HOH    OW  1826   1.149   0.577   0.715
  564HOH    HW1 1827   1.226   0.523   0.732
  564HOH    HW2 1828   1.153   0.594   0.621
  565HOH    OW  1829   0.820   0.019   2.659
  565HOH    HW1 1830   0.835   0.095   2.716
  565HOH    HW2 1831   0.891   3.920   2.681
  566HOH    OW  1832   1.739   3.122   2.403
  566HOH    HW1 1833   1.677   3.105   2.474
  566HOH    HW2 1834   1.771   3.035   2.379
  567HOH    OW  1835   3.766   3.829   2.981
  567HOH    HW1 1836   3.737   3.741   3.006
  567HOH    HW2 1837   3.752   3.882   3.059
  568HOH    OW  1838   2.458   3.267   0.582
  568HOH    HW1 1839   2.427   3.237   0.497
  568HOH    HW2 1840   2.518   3.199   0.612
  569HOH    OW  1841   1.247   2.047   1.681
  569HOH    HW1 1842   1.263   2.129   1.729
  569HOH    HW2 1843   1.183   2.000   1.734
  570HOH    OW  1844   0.463   0.725   0.159
  570HOH    HW1 1845   0.387   0.673   0.185
  570HOH    HW2 1846   0.484   0.695   0.070
  571HOH    OW  1847   3.553   1.163   0.657
  571HOH    HW1 1848   3.516   1.102   0.593
  571HOH    HW2 1849   3.549   1.248   0.614
  572HOH    OW  1850   0.438   2.085   1.711
  572HOH    HW1 1851   0.453   2.153   1.645
  572HOH    HW2 1852   0.394   2.131   1.783
  573HOH    OW  1853   0.531   0.900   2.659
  573HOH    HW1 1854   0.571   0.987   2.650
  573HOH    HW2 1855   0.582   0.845   2.600
  574HOH    OW  1856   3.204   0.686   2.426
  574HOH    HW1 1857   3.229   0.729   2.345
  574HOH    HW2 1858   3.284   0.682   2.478
  575HOH    OW  1859   2.030   2.265   1.532
  575HOH    HW1 1860   2.088   2.314   1.474
  575HOH    HW2 1861   2.039   2.307   1.617
  576HOH    OW  1862   2.698   0.182   2.280
  576HOH    HW1 1863   2.605   0.169   2.262
  576HOH    HW2 1864   2.700   0.254   2.343
  577HOH    OW  1865   1.368   2.845   1.977
  577HOH    HW1 1866   1.327   2.883   1.899
  577HOH    HW2 1867   1.324   2.761   1.989
  578HOH    OW  1868   1.412   0.586   1.520
  578HOH    HW1 1869   1.375   0.567   1.607
  578HOH    HW2 1870   1.346   0.641   1.478
  579HOH    OW  1871   0.778   2.161   1.239
  579HOH    HW1 1872   0.758   2.152   1.332
  579HOH    HW2 1873   0.808   2.074   1.213
  580HOH    OW  1874   2.141   0.802   2.422
  580HOH    HW1 1875   2.073   0.867   2.437
  580HOH    HW2 1876   2.155   0.761   2.508
  581HOH    OW  1877   3.568   0.354   2.207
  581HOH    HW1 1878   3.604   0.282   2.156
  581HOH    HW2 1879   3.603   0.342   2.295
  582HOH    OW  1880   2.210   3.401   0.363
  582HOH    HW1 1881   2.219   3.493   0.338
  582HOH    HW2 1882   2.207   3.402   0.459
  583HOH    OW  1883   1.384   3.676   2.243
  583HOH    HW1 1884   1.438   3.651   2.168
  583HOH    HW2 1885   1.442   3.666   2.319
  584HOH    OW  1886   2.471   0.970   2.145
  584HOH    HW1 1887   2.443   1.036   2.208
  584HOH    HW2 1888   2.553   1.005   2.109
  585HOH    OW  1889   1.241   1.741   1.970
  585HOH    HW1 1890   1.290   1.803   2.025
  585HOH    HW2 1891   1.287   1.743   1.886
  586HOH    OW  1892   3.217   1.962   0.546
  586HOH    HW1 1893   3.281   1.967   0.474
  586HOH    HW2 1894   3.269   1.941   0.623
  587HOH    OW  1895   1.848   0.318   0.916
  587HOH    HW1 1896   1.835   0.385   0.984
  587HOH    HW2 1897   1.895   0.364   0.846
  588HOH    OW  1898   0.443   2.074   0.995
  588HOH    HW1 1899   0.524   2.031   0.967
  588HOH    HW2 1900   0.380   2.052   0.926
  589HOH    OW  1901   2.359   2.158   1.537
  589HOH    HW1 1902   2.380   2.136   1.446
  589HOH    HW2 1903   2.369   2.254   1.541
  590HOH    OW  1904   1.008   1.366   1.940
  590HOH    HW1 1905   1.066   1.318   1.881
  590HOH    HW2 1906   0.945   1.300   1.970
  591HOH    OW  1907   0.304   1.535   2.850
  591HOH    HW1 1908   0.341   1.551   2.763
  591HOH    HW2 1909   0.223   1.488   2.834
  592HOH    OW  1910   0.652   2.809   3.360
  592HOH    HW1 1911   0.687   2.774   3.278
  592HOH    HW2 1912   0.558   2.797   3.353
  593HOH    OW  1913   0.943   0.454   2.222
  593HOH    HW1 1914   0.916   0.453   2.314
  593HOH    HW2 1915   1.027   0.408   2.221
  594HOH    OW  1916   3.106   2.384   0.231
  594HOH    HW1 1917   3.189   2.416   0.196
  594HOH    HW2 1918   3.044   2.391   0.159
  595HOH    OW  1919   1.741   1.515   1.113
  595HOH    HW1 1920   1.758   1.602   1.150
  595HOH    HW2 1921   1.652   1.494   1.141
  596HOH    OW  1922   2.298   0.116   0.874
  596HOH    HW1 1923   2.390   0.137   0.856
  596HOH    HW2 1924   2.270   0.184   0.935
  597HOH    OW  1925   2.539   0.162   1.742
  597HOH    HW1 1926   2.520   0.118   1.660
  597HOH    HW2 1927   2.634   0.173   1.742
  598HOH    OW  1928   3.019   2.598   1.084
  598HOH    HW1 1929   3.093   2.658   1.073
  598HOH    HW2 1930   2.966   2.638   1.153
  599HOH    OW  1931   1.446   0.223   2.842
  599HOH    HW1 1932   1.372   0.200   2.898
  599HOH    HW2 1933   1.523   0.193   2.891
  600HOH    OW  1934   1.136   1.422   2.510
  600HOH    HW1 1935   1.226   1.445   2.533
  600HOH    HW2 1936   1.082   1.474   2.571
  601HOH    OW  1937   2.239   0.308   1.129
  601HOH    HW1 1938   2.319   0.273   1.167
  601HOH    HW2 1939   2.268   0.373   1.064
  602HOH    OW  1940   1.825   0.296   3.928
  602HOH    HW1 1941   1.785   0.272   3.845
  602HOH    HW2 1942   1.897   0.234   3.938
  603HOH    OW  1943   2.130   0.742   1.220
  603HOH    HW1 1944   2.178   0.704   1.147
  603HOH    HW2 1945   2.130   0.674   1.287
  604HOH    OW  1946   2.451   2.375   0.500
  604HOH    HW1 1947   2.519   2.371   0.432
  604HOH    HW2 1948   2.371   2.349   0.455
  605HOH    OW  1949   1.722   3.056   0.805
  605HOH    HW1 1950   1.816   3.054   0.820
  605HOH    HW2 1951   1.690   3.124   0.864
  606HOH    OW  1952   2.839   3.625   3.065
  606HOH    HW1 1953   2.887   3.708   3.069
  606HOH    HW2 1954   2.907   3.560   3.048
  607HOH    OW  1955   0.611   1.469   2.869
  607HOH    HW1 1956   0.531   1.424   2.842
  607HOH    HW2 1957   0.676   1.443   2.803
  608HOH    OW  1958   1.983   2.604   3.377
  608HOH    HW1 1959   1.929   2.683   3.385
  608HOH    HW2 1960   2.068   2.636   3.346
  609HOH    OW  1961   3.504   1.143   0.950
  609HOH    HW1 1962   3.464   1.182   1.027
  609HOH    HW2 1963   3.461   1.187   0.876
  610HOH    OW  1964   1.426   1.461   1.805
  610HOH    HW1 1965   1.489   1.408   1.854
  610HOH    HW2 1966   1.372   1.503   1.872
  611HOH    OW  1967   0.735   3.375   1.869
  611HOH    HW1 1968   0.743   3.392   1.775
  611HOH    HW2 1969   0.647   3.404   1.891
  612HOH    OW  1970   1.471   0.613   0.945
  612HOH    HW1 1971   1.424   0.668   1.008
  612HOH    HW2 1972   1.561   0.645   0.947
  613HOH    OW  1973   2.964   3.153   0.875
  613HOH    HW1 1974   2.993   3.157   0.784
  613HOH    HW2 1975   2.937   3.062   0.887
  614HOH    OW  1976   2.088   1.669   3.872
  614HOH    HW1 1977   2.053   1.749   3.832
  614HOH    HW2 1978   2.035   1.599   3.837
  615HOH    OW  1979   2.163   0.528   3.463
  615HOH    HW1 1980   2.129   0.586   3.531
  615HOH    HW2 1981   2.169   0.584   3.385
  616HOH    OW  1982   3.497   3.183   0.050
  616HOH    HW1 1983   3.524   3.098   0.085
  616HOH    HW2 1984   3.402   3.182   0.056
  617HOH    OW  1985   1.473   2.104   3.490
  617HOH    HW1 1986   1.520   2.021   3.498
  617HOH    HW2 1987   1.380   2.079   3.497
  618HOH    OW  1988   2.515   0.252   0.097
  618HOH    HW1 1989   2.574   0.315   0.055
  618HOH    HW2 1990   2.494   0.189   0.028
  619HOH    OW  1991   0.642   2.103   3.531
  619HOH    HW1 1992   0.628   2.138   3.619
  619HOH    HW2 1993   0.693   2.024   3.545
  620HOH    OW  1994   0.154   0.869   0.503
  620HOH    HW1 1995   0.210   0.892   0.577
  620HOH    HW2 1996   0.071   0.843   0.543
  621HOH    OW  1997   2.180   2.752   0.113
  621HOH    HW1 1998   2.247   2.731   0.178
  621HOH    HW2 1999   2.100   2.764   0.164
  622HOH    OW  2000   1.215   0.567   3.759
  622HOH    HW1 2001   1.309   0.588   3.764
  622HOH    HW2 2002   1.173   0.649   3.735
  623HOH    OW  2003   1.904   2.743   1.121
  623HOH    HW1 2004   1.861   2.773   1.040
  623HOH    HW2 2005   1.888   2.649   1.123
  624HOH    OW  2006   2.108   1.121   1.648
  624HOH    HW1 2007   2.185   1.065   1.644
  624HOH    HW2 2008   2.036   1.065   1.617
  625HOH    OW  2009   0.672   1.147   1.792
  625HOH    HW1 2010   0.738   1.195   1.742
  625HOH    HW2 2011   0.588   1.177   1.756
  626HOH    OW  2012   1.564   0.925   0.536
  626HOH    HW1 2013   1.602   0.845   0.574
  626HOH    HW2 2014   1.565   0.988   0.608
  627HOH    OW  2015   3.592   3.933   1.989
  627HOH    HW1 2016   3.681   3.928   1.956
  627HOH    HW2 2017   3.597   0.033   2.063
  628HOH    OW  2018   1.708   1.732   3.242
  628HOH    HW1 2019   1.616   1.746   3.221
  628HOH    HW2 2020   1.728   1.801   3.305
  629HOH    OW  2021   1.646   0.131   1.546
  629HOH    HW1 2022   1.710   0.069   1.511
  629HOH    HW2 2023   1.663   0.213   1.499
  630HOH    OW  2024   3.541   0.367   0.147
  630HOH    HW1 2025   3.628   0.392   0.178
  630HOH    HW2 2026   3.538   0.400   0.057
  631HOH    OW  2027   1.116   1.132   1.761
  631HOH    HW1 2028   1.050   1.090   1.705
  631HOH    HW2 2029   1.142   1.210   1.712
  632HOH    OW  2030   0.490   3.176   0.592
  632HOH    HW1 2031   0.482   3.269   0.573
  632HOH    HW2 2032   0.401   3.142   0.580
  633HOH    OW  2033   2.397   3.188   3.692
  633HOH    HW1 2034   2.379   3.165   3.783
  633HOH    HW2 2035   2.345   3.266   3.676
  634HOH    OW  2036   1.752   3.068   3.054
  634HOH    HW1 2037   1.802   3.108   2.983
  634HOH    HW2 2038   1.749   2.975   3.032
  635HOH    OW  2039   3.006   3.428   1.209
  635HOH    HW1 2040   2.946   3.366   1.250
  635HOH    HW2 2041   3.046   3.476   1.281
  636HOH    OW  2042   1.359   1.679   0.691
  636HOH    HW1 2043   1.319   1.619   0.628
  636HOH    HW2 2044   1.369   1.627   0.770
  637HOH    OW  2045   1.084   2.579   0.937
  637HOH    HW1 2046   0.999   2.545   0.910
  637HOH    HW2 2047   1.069   2.617   1.023
  638HOH    OW  2048   1.171   1.443   3.225
  638HOH    HW1 2049   1.171   1.410   3.315
  638HOH    HW2 2050   1.093   1.499   3.220
  639HOH    OW  2051   1.671   0.696   0.670
  639HOH    HW1 2052   1.723   0.691   0.751
  639HOH    HW2 2053   1.650   0.605   0.649
  640HOH    OW  2054   0.134   3.670   0.128
  640HOH    HW1 2055   0.204   3.605   0.133
  640HOH    HW2 2056   0.169   3.747   0.171
  641HOH    OW  2057   2.714   2.604   2.372
  641HOH    HW1 2058   2.721   2.580   2.280
  641HOH    HW2 2059   2.730   2.698   2.374
  642HOH    OW  2060   1.154   3.532   0.038
  642HOH    HW1 2061   1.235   3.550   3.952
  642HOH    HW2 2062   1.172   3.562   0.128
  643HOH    OW  2063   1.822   2.454   2.924
  643HOH    HW1 2064   1.784   2.368   2.908
  643HOH    HW2 2065   1.842   2.454   3.017
  644HOH    OW  2066   0.901   0.152   1.993
  644HOH    HW1 2067   0.988   0.189   2.009
  644HOH    HW2 2068   0.847   0.189   2.063
  645HOH    OW  2069   3.611   1.313   1.882
  645HOH    HW1 2070   3.622   1.322   1.977
  645HOH    HW2 2071   3.525   1.349   1.864
  646HOH    OW  2072   3.054   2.112   2.021
  646HOH    HW1 2073   3.096   2.194   1.998
  646HOH    HW2 2074   3.125   2.048   2.020
  647HOH    OW  2075   1.916   2.147   3.287
  647HOH    HW1 2076   1.870   2.081   3.339
  647HOH    HW2 2077   1.995   2.102   3.257
  648HOH    OW  2078   1.238   3.422   2.948
  648HOH    HW1 2079   1.282   3.378   3.021
  648HOH    HW2 2080   1.243   3.515   2.971
  649HOH    OW  2081   1.346   0.177   3.819
  649HOH    HW1 2082   1.330   0.112   3.888
  649HOH    HW2 2083   1.416   0.232   3.854
  650HOH    OW  2084   3.134   2.662   3.874
  650HOH    HW1 2085   3.116   2.702   3.959
  650HOH    HW2 2086   3.112   2.730   3.810
  651HOH    OW  2087   3.106   0.883   3.790
  651HOH    HW1 2088   3.115   0.963   3.842
  651HOH    HW2 2089   3.012   0.868   3.784
  652HOH    OW  2090   0.051   2.918   3.833
  652HOH    HW1 2091   0.064   3.011   3.812
  652HOH    HW2 2092   3.919   2.903   3.817
  653HOH    OW  2093   0.148   2.180   0.628
  653HOH    HW1 2094   0.208   2.254   0.630
  653HOH    HW2 2095   0.198   2.107   0.665
  654HOH    OW  2096   1.165   3.139   0.318
  654HOH    HW1 2097   1.133   3.216   0.365
  654HOH    HW2 2098   1.234   3.104   0.374
  655HOH    OW  2099   2.039   3.524   2.950
  655HOH    HW1 2100   2.094   3.587   2.904
  655HOH    HW2 2101   2.027   3.561   3.037
  656HOH    OW  2102   2.820   1.739   1.083
  656HOH    HW1 2103   2.843   1.718   0.993
  656HOH    HW2 2104   2.904   1.752   1.127
  657HOH    OW  2105   2.344   0.351   2.480
  657HOH    HW1 2106   2.255   0.347   2.516
  657HOH    HW2 2107   2.401   0.350   2.557
  658HOH    OW  2108   0.512   0.482   1.508
  658HOH    HW1 2109   0.542   0.537   1.436
  658HOH    HW2 2110   0.439   0.531   1.546
  659HOH    OW  2111   1.437   2.494   1.848
  659HOH    HW1 2112   1.428   2.575   1.897
  659HOH    HW2 2113   1.504   2.512   1.782
  660HOH    OW  2114   3.668   2.836   1.729
  660HOH    HW1 2115   3.635   2.755   1.769
  660HOH    HW2 2116   3.743   2.860   1.782
  661HOH    OW  2117   0.832   2.854   2.539
  661HOH    HW1 2118   0.859   2.827   2.451
  661HOH    HW2 2119   0.825   2.772   2.588
  662HOH    OW  2120   0.374   0.739   0.949
  662HOH    HW1 2121   0.458   0.725   0.904
  662HOH    HW2 2122   0.336   0.651   0.957
  663HOH    OW  2123   3.393   1.190   3.099
  663HOH    HW1 2124   3.386   1.098   3.125
  663HOH    HW2 2125   3.394   1.238   3.182
  664HOH    OW  2126   3.154   1.914   3.163
  664HOH    HW1 2127   3.228   1.855   3.152
  664HOH    HW2 2128   3.188   2.000   3.139
  665HOH    OW  2129   1.473   2.829   0.812
  665HOH    HW1 2130   1.536   2.897   0.788
  665HOH    HW2 2131   1.415   2.870   0.876
  666HOH    OW  2132   0.685   1.288   3.503
  666HOH    HW1 2133   0.747   1.353   3.470
  666HOH    HW2 2134   0.730   1.204   3.492
  667HOH    OW  2135   1.740   2.526   0.855
  667HOH    HW1 2136   1.686   2.471   0.799
  667HOH    HW2 2137   1.790   2.463   0.908
  668HOH    OW  2138   0.871   2.986   3.186
  668HOH    HW1 2139   0.782   2.959   3.166
  668HOH    HW2 2140   0.871   2.996   3.282
  669HOH    OW  2141   3.107   2.255   2.586
  669HOH    HW1 2142   3.080   2.197   2.515
  669HOH    HW2 2143   3.025   2.289   2.622
  670HOH    OW  2144   1.143   1.736   2.972
  670HOH    HW1 2145   1.184   1.659   3.011
  670HOH    HW2 2146   1.097   1.778   3.045
  671HOH    OW  2147   2.561   3.450   1.431
  671HOH    HW1 2148   2.618   3.520   1.462
  671HOH    HW2 2149   2.621   3.383   1.398
  672HOH    OW  2150   3.319   0.864   1.906
  672HOH    HW1 2151   3.407   0.897   1.887
  672HOH    HW2 2152   3.269   0.881   1.826
  673HOH    OW  2153   1.300   3.232   3.135
  673HOH    HW1 2154   1.385   3.191   3.154
  673HOH    HW2 2155   1.308   3.320   3.171
  674HOH    OW  2156   3.479   3.926   0.687
  674HOH    HW1 2157   3.460   0.011   0.605
  674HOH    HW2 2158   3.455   3.835   0.669
  675HOH    OW  2159   3.849   2.562   0.357
  675HOH    HW1 2160   3.815   2.607   0.434
  675HOH    HW2 2161   3.849   2.469   0.380
  676HOH    OW  2162   2.040   3.026   1.538
  676HOH    HW1 2163   2.001   3.046   1.623
  676HOH    HW2 2164   2.131   3.003   1.557
  677HOH    OW  2165   3.708   2.560   3.863
  677HOH    HW1 2166   3.648   2.625   3.828
  677HOH    HW2 2167   3.676   2.477   3.828
  678HOH    OW  2168   0.410   3.659   2.444
  678HOH    HW1 2169   0.346   3.610   2.496
  678HOH    HW2 2170   0.483   3.598   2.434
  679HOH    OW  2171   0.409   0.160   0.674
  679HOH    HW1 2172   0.380   0.088   0.730
  679HOH    HW2 2173   0.473   0.121   0.615
  680HOH    OW  2174   3.671   0.764   1.091
  680HOH    HW1 2175   3.729   0.840   1.097
  680HOH    HW2 2176   3.633   0.770   1.003
  681HOH    OW  2177   3.845   3.914   1.922
  681HOH    HW1 2178   3.909   3.885   1.857
  681HOH    HW2 2179   3.886   0.029   1.964
  682HOH    OW  2180   3.453   3.274   3.407
  682HOH    HW1 2181   3.414   3.245   3.324
  682HOH    HW2 2182   3.381   3.317   3.453
  683HOH    OW  2183   0.928   2.361   1.114
  683HOH    HW1 2184   1.020   2.360   1.086
  683HOH    HW2 2185   0.899   2.270   1.104
  684HOH    OW  2186   2.224   2.287   0.350
  684HOH    HW1 2187   2.133   2.262   0.358
  684HOH    HW2 2188   2.232   2.323   0.262
  685HOH    OW  2189   2.726   1.709   3.936
  685HOH    HW1 2190   2.702   1.618   3.947
  685HOH    HW2 2191   2.679   1.755   0.045
  686HOH    OW  2192   2.348   1.631   0.018
  686HOH    HW1 2193   2.375   1.563   3.918
  686HOH    HW2 2194   2.275   1.675   3.934
  687HOH    OW  2195   0.568   0.846   1.612
  687HOH    HW1 2196   0.527   0.905   1.676
  687HOH    HW2 2197   0.498   0.787   1.586
  688HOH    OW  2198   2.152   2.704   1.980
  688HOH    HW1 2199   2.133   2.687   1.888
  688HOH    HW2 2200   2.193   2.624   2.012
  689HOH    OW  2201   3.766   0.662   2.467
  689HOH    HW1 2202   3.847   0.713   2.472
  689HOH    HW2 2203   3.742   0.666   2.374
  690HOH    OW  2204   3.725   1.224   3.280
  690HOH    HW1 2205   3.773   1.306   3.271
  690HOH    HW2 2206   3.653   1.244   3.340
  691HOH    OW  2207   0.638   0.151   1.064
  691HOH    HW1 2208   0.684   0.164   0.981
  691HOH    HW2 2209   0.590   0.232   1.079
  692HOH    OW  2210   2.503   0.543   3.204
  692HOH    HW1 2211   2.432   0.488   3.170
  692HOH    HW2 2212   2.560   0.483   3.252
  693HOH    OW  2213   0.069   3.105   1.754
  693HOH    HW1 2214   0.081   3.017   1.790
  693HOH    HW2 2215   0.101   3.098   1.663
  694HOH    OW  2216   2.534   2.243   1.083
  694HOH    HW1 2217   2.574   2.324   1.115
  694HOH    HW2 2218   2.565   2.234   0.993
  695HOH    OW  2219   1.630   0.450   3.697
  695HOH    HW1 2220   1.582   0.458   3.780
  695HOH    HW2 2221   1.561   0.450   3.630
  696HOH    OW  2222   3.530   0.641   2.241
  696HOH    HW1 2223   3.568   0.553   2.246
  696HOH    HW2 2224   3.590   0.689   2.185
  697HOH    OW  2225   0.346   2.325   2.884
  697HOH    HW1 2226   0.343   2.299   2.976
  697HOH    HW2 2227   0.265   2.288   2.847
  698HOH    OW  2228   1.147   3.085   3.359
  698HOH    HW1 2229   1.075   3.139   3.328
  698HOH    HW2 2230   1.201   3.144   3.412
  699HOH    OW  2231   1.752   3.023   1.582
  699HOH    HW1 2232   1.779   2.977   1.502
  699HOH    HW2 2233   1.689   3.088   1.552
  700HOH    OW  2234   3.873   2.625   0.936
  700HOH    HW1 2235   3.911   2.618   0.848
  700HOH    HW2 2236   3.934   2.577   0.992
  701HOH    OW  2237   0.968   3.779   2.521
  701HOH    HW1 2238   0.924   3.771   2.437
  701HOH    HW2 2239   1.024   3.857   2.512
  702HOH    OW  2240   0.871   3.779   3.416
  702HOH    HW1 2241   0.922   3.836   3.473
  702HOH    HW2 2242   0.808   3.837   3.374
  703HOH    OW  2243   1.331   0.983   3.856
  703HOH    HW1 2244   1.321   0.912   3.792
  703HOH    HW2 2245   1.267   1.049   3.829
  704HOH    OW  2246   0.583   0.087   0.146
  704HOH    HW1 2247   0.497   0.115   0.114
  704HOH    HW2 2248   0.625   0.048   0.070
  705HOH    OW  2249   3.255   2.831   2.525
  705HOH    HW1 2250   3.192   2.902   2.517
  705HOH    HW2 2251   3.223   2.780   2.600
  706HOH    OW  2252   1.969   1.529   3.513
  706HOH    HW1 2253   2.040   1.468   3.496
  706HOH    HW2 2254   1.920   1.490   3.585
  707HOH    OW  2255   3.265   2.860   1.984
  707HOH    HW1 2256   3.323   2.789   1.959
  707HOH    HW2 2257   3.295   2.886   2.071
  708HOH    OW  2258   0.673   1.435   0.736
  708HOH    HW1 2259   0.729   1.407   0.664
  708HOH    HW2 2260   0.697   1.378   0.809
  709HOH    OW  2261   2.839   2.045   2.393
  709HOH    HW1 2262   2.916   2.058   2.338
  709HOH    HW2 2263   2.844   2.115   2.458
  710HOH    OW  2264   2.066   3.610   1.988
  710HOH    HW1 2265   2.084   3.701   2.011
  710HOH    HW2 2266   2.033   3.571   2.069
  711HOH    OW  2267   3.656   3.738   3.914
  711HOH    HW1 2268   3.663   3.682   3.837
  711HOH    HW2 2269   3.582   3.702   0.002
  712HOH    OW  2270   0.698   1.491   3.712
  712HOH    HW1 2271   0.675   1.541   3.634
  712HOH    HW2 2272   0.713   1.402   3.680
  713HOH    OW  2273   0.636   3.728   1.811
  713HOH    HW1 2274   0.664   3.689   1.893
  713HOH    HW2 2275   0.716   3.767   1.775
  714HOH    OW  2276   0.156   1.760   0.257
  714HOH    HW1 2277   0.130   1.851   0.243
  714HOH    HW2 2278   0.077   1.716   0.289
  715HOH    OW  2279   2.317   0.187   2.861
  715HOH    HW1 2280   2.299   0.130   2.785
  715HOH    HW2 2281   2.379   0.137   2.914
  716HOH    OW  2282   1.139   0.066   1.355
  716HOH    HW1 2283   1.045   0.055   1.342
  716HOH    HW2 2284   1.174   0.080   1.267
  717HOH    OW  2285   3.727   0.206   0.938
  717HOH    HW1 2286   3.689   0.118   0.940
  717HOH    HW2 2287   3.702   0.245   1.022
  718HOH    OW  2288   0.426   1.251   1.695
  718HOH    HW1 2289   0.394   1.166   1.725
  718HOH    HW2 2290   0.362   1.313   1.727
  719HOH    OW  2291   3.089   1.602   1.613
  719HOH    HW1 2292   3.048   1.585   1.528
  719HOH    HW2 2293   3.179   1.572   1.603
  720HOH    OW  2294   3.433   0.263   1.099
  720HOH    HW1 2295   3.392   0.247   1.013
  720HOH    HW2 2296   3.464   0.177   1.126
  721HOH    OW  2297   1.649   3.797   1.761
  721HOH    HW1 2298   1.714   3.860   1.789
  721HOH    HW2 2299   1.578   3.849   1.725
  722HOH    OW  2300   1.259   2.883   1.261
  722HOH    HW1 2301   1.354   2.895   1.253
  722HOH    HW2 2302   1.233   2.943   1.331
  723HOH    OW  2303   3.190   0.743   0.047
  723HOH    HW1 2304   3.158   0.755   3.919
  723HOH    HW2 2305   3.149   0.662   0.077
  724HOH    OW  2306   3.095   1.477   2.693
  724HOH    HW1 2307   3.036   1.536   2.741
  724HOH    HW2 2308   3.088   1.507   2.602
  725HOH    OW  2309   1.982   1.504   0.377
  725HOH    HW1 2310   2.068   1.486   0.340
  725HOH    HW2 2311   1.986   1.470   0.466
  726HOH    OW  2312   3.870   2.450   1.232
  726HOH    HW1 2313   3.826   2.532   1.211
  726HOH    HW2 2314   3.951   2.452   1.180
  727HOH    OW  2315   3.607   1.742   3.717
  727HOH    HW1 2316   3.556   1.758   3.796
  727HOH    HW2 2317   3.645   1.656   3.730
  728HOH    OW  2318   0.131   1.024   2.766
  728HOH    HW1 2319   0.197   0.960   2.741
  728HOH    HW2 2320   0.057   1.006   2.708
  729HOH    OW  2321   1.286   2.904   1.733
  729HOH    HW1 2322   1.318   2.986   1.695
  729HOH    HW2 2323   1.269   2.848   1.657
  730HOH    OW  2324   3.199   1.032   2.165
  730HOH    HW1 2325   3.242   0.958   2.121
  730HOH    HW2 2326   3.106   1.009   2.165
  731HOH    OW  2327   3.687   0.900   3.782
  731HOH    HW1 2328   3.743   0.970   3.814
  731HOH    HW2 2329   3.707   0.825   3.838
  732HOH    OW  2330   2.114   0.369   3.726
  732HOH    HW1 2331   2.061   0.370   3.646
  732HOH    HW2 2332   2.090   0.450   3.771
  733HOH    OW  2333   2.592   2.606   2.679
  733HOH    HW1 2334   2.536   2.649   2.615
  733HOH    HW2 2335   2.613   2.521   2.640
  734HOH    OW  2336   2.829   0.405   0.260
  734HOH    HW1 2337   2.895   0.375   0.322
  734HOH    HW2 2338   2.841   0.349   0.183
  735HOH    OW  2339   0.470   1.183   0.992
  735HOH    HW1 2340   0.556   1.144   0.976
  735HOH    HW2 2341   0.438   1.138   1.070
  736HOH    OW  2342   1.011   3.258   2.973
  736HOH    HW1 2343   1.040   3.230   2.886
  736HOH    HW2 2344   1.088   3.299   3.012
  737HOH    OW  2345   3.389   3.080   2.709
  737HOH    HW1 2346   3.396   3.175   2.702
  737HOH    HW2 2347   3.309   3.058   2.661
  738HOH    OW  2348   3.889   0.254   1.661
  738HOH    HW1 2349   3.940   0.174   1.670
  738HOH    HW2 2350   3.876   0.264   1.566
  739HOH    OW  2351   2.108   1.762   0.925
  739HOH    HW1 2352   2.118   1.698   0.855
  739HOH    HW2 2353   2.109   1.711   1.005
  740HOH    OW  2354   0.830   1.136   1.242
  740HOH    HW1 2355   0.888   1.179   1.304
  740HOH    HW2 2356   0.816   1.049   1.279
  741HOH    OW  2357   2.756   1.801   3.491
  741HOH    HW1 2358   2.707   1.720   3.477
  741HOH    HW2 2359   2.696   1.870   3.461
  742HOH    OW  2360   0.801   1.293   2.446
  742HOH    HW1 2361   0.804   1.343   2.365
  742HOH    HW2 2362   0.850   1.213   2.427
  743HOH    OW  2363   1.563   2.687   0.347
  743HOH    HW1 2364   1.591   2.613   0.293
  743HOH    HW2 2365   1.569   2.655   0.437
  744HOH    OW  2366   3.582   3.697   1.155
  744HOH    HW1 2367   3.632   3.621   1.185
  744HOH    HW2 2368   3.543   3.668   1.072
  745HOH    OW  2369   3.521   2.747   2.566
  745HOH    HW1 2370   3.511   2.748   2.661
  745HOH    HW2 2371   3.435   2.773   2.532
  746HOH    OW  2372   1.192   1.729   3.408
  746HOH    HW1 2373   1.263   1.670   3.382
  746HOH    HW2 2374   1.153   1.688   3.485
  747HOH    OW  2375   0.500   1.562   1.092
  747HOH    HW1 2376   0.449   1.526   1.165
  747HOH    HW2 2377   0.521   1.652   1.120
  748HOH    OW  2378   3.466   3.570   1.879
  748HOH    HW1 2379   3.521   3.497   1.850
  748HOH    HW2 2380   3.516   3.648   1.857
  749HOH    OW  2381   3.139   1.061   0.468
  749HOH    HW1 2382   3.113   0.983   0.419
  749HOH    HW2 2383   3.057   1.108   0.485
  750HOH    OW  2384   2.540   3.232   1.160
  750HOH    HW1 2385   2.624   3.188   1.148
  750HOH    HW2 2386   2.496   3.182   1.228
  751HOH    OW  2387   3.468   3.494   1.454
  751HOH    HW1 2388   3.389   3.544   1.476
  751HOH    HW2 2389   3.536   3.531   1.510
  752HOH    OW  2390   3.457   0.568   0.426
  752HOH    HW1 2391   3.404   0.489   0.411
  752HOH    HW2 2392   3.428   0.600   0.512
  753HOH    OW  2393   0.504   0.162   3.235
  753HOH    HW1 2394   0.454   0.081   3.227
  753HOH    HW2 2395   0.449   0.220   3.287
  754HOH    OW  2396   3.300   2.031   2.818
  754HOH    HW1 2397   3.326   1.946   2.781
  754HOH    HW2 2398   3.209   2.042   2.791
  755HOH    OW  2399   0.596   2.297   3.037
  755HOH    HW1 2400   0.651   2.253   3.101
  755HOH    HW2 2401   0.516   2.320   3.085
  756HOH    OW  2402   3.905   1.843   3.607
  756HOH    HW1 2403   3.820   1.809   3.578
  756HOH    HW2 2404   3.929   1.786   3.681
  757HOH    OW  2405   2.964   0.166   2.187
  757HOH    HW1 2406   2.872   0.148   2.208
  757HOH    HW2 2407   2.964   0.257   2.156
  758HOH    OW  2408   3.712   1.447   0.821
  758HOH    HW1 2409   3.727   1.375   0.882
  758HOH    HW2 2410   3.798   1.463   0.781
  759HOH    OW  2411   2.025   0.575   1.996
  759HOH    HW1 2412   2.042   0.647   2.058
  759HOH    HW2 2413   1.930   0.569   1.993
  760HOH    OW  2414   2.020   0.810   2.142
  760HOH    HW1 2415   2.093   0.800   2.203
  760HOH    HW2 2416   1.942   0.784   2.192
  761HOH    OW  2417   1.514   3.025   2.537
  761HOH    HW1 2418   1.512   3.009   2.631
  761HOH    HW2 2419   1.452   2.961   2.501
  762HOH    OW  2420   2.804   0.979   1.921
  762HOH    HW1 2421   2.762   0.896   1.897
  762HOH    HW2 2422   2.734   1.043   1.916
  763HOH    OW  2423   3.022   2.418   2.924
  763HOH    HW1 2424   3.113   2.392   2.909
  763HOH    HW2 2425   3.019   2.511   2.900
  764HOH    OW  2426   3.504   1.407   0.594
  764HOH    HW1 2427   3.417   1.392   0.557
  764HOH    HW2 2428   3.507   1.501   0.611
  765HOH    OW  2429   1.500   3.446   1.737
  765HOH    HW1 2430   1.433   3.512   1.720
  765HOH    HW2 2431   1.540   3.430   1.651
  766HOH    OW  2432   2.907   3.178   0.022
  766HOH    HW1 2433   2.832   3.132   3.945
  766HOH    HW2 2434   2.929   3.127   0.101
  767HOH    OW  2435   1.075   2.438   0.461
  767HOH    HW1 2436   1.065   2.533   0.452
  767HOH    HW2 2437   1.168   2.425   0.479
  768HOH    OW  2438   2.012   1.902   3.738
  768HOH    HW1 2439   2.049   1.971   3.682
  768HOH    HW2 2440   1.922   1.893   3.707
  769HOH    OW  2441   0.647   2.371   3.407
  769HOH    HW1 2442   0.740   2.391   3.396
  769HOH    HW2 2443   0.646   2.286   3.452
  770HOH    OW  2444   2.401   1.205   2.314
  770HOH    HW1 2445   2.387   1.199   2.408
  770HOH    HW2 2446   2.496   1.214   2.304
  771HOH    OW  2447   1.531   2.874   1.219
  771HOH    HW1 2448   1.574   2.789   1.225
  771HOH    HW2 2449   1.586   2.924   1.158
  772HOH    OW  2450   3.949   3.359   1.801
  772HOH    HW1 2451   0.029   3.272   1.802
  772HOH    HW2 2452   0.057   3.417   1.769
  773HOH    OW  2453   3.018   0.023   1.417
  773HOH    HW1 2454   3.075   0.006   1.492
  773HOH    HW2 2455   3.077   0.056   1.349
  774HOH    OW  2456   0.201   2.574   3.362
  774HOH    HW1 2457   0.184   2.664   3.335
  774HOH    HW2 2458   0.116   2.530   3.356
  775HOH    OW  2459   0.431   1.522   2.609
  775HOH    HW1 2460   0.458   1.592   2.550
  775HOH    HW2 2461   0.446   1.442   2.558
  776HOH    OW  2462   3.645   0.635   1.898
  776HOH    HW1 2463   3.566   0.589   1.926
  776HOH    HW2 2464   3.716   0.571   1.910
  777HOH    OW  2465   2.857   0.877   2.968
  777HOH    HW1 2466   2.864   0.855   2.875
  777HOH    HW2 2467   2.948   0.873   3.000
  778HOH    OW  2468   2.014   3.073   3.520
  778HOH    HW1 2469   2.035   2.980   3.527
  778HOH    HW2 2470   2.048   3.100   3.435
  779HOH    OW  2471   3.857   3.405   0.790
  779HOH    HW1 2472   3.918   3.331   0.791
  779HOH    HW2 2473   3.878   3.451   0.709
  780HOH    OW  2474   1.177   1.012   1.452
  780HOH    HW1 2475   1.254   1.008   1.395
  780HOH    HW2 2476   1.188   0.941   1.515
  781HOH    OW  2477   1.302   2.563   2.863
  781HOH    HW1 2478   1.335   2.638   2.912
  781HOH    HW2 2479   1.378   2.530   2.816
  782HOH    OW  2480   1.419   0.457   0.742
  782HOH    HW1 2481   1.449   0.520   0.806
  782HOH    HW2 2482   1.497   0.434   0.692
  783HOH    OW  2483   0.137   2.776   0.309
  783HOH    HW1 2484   0.196   2.720   0.359
  783HOH    HW2 2485   0.073   2.715   0.271
  784HOH    OW  2486   0.891   2.530   1.583
  784HOH    HW1 2487   0.880   2.624   1.597
  784HOH    HW2 2488   0.897   2.520   1.488
  785HOH    OW  2489   0.645   2.716   1.421
  785HOH    HW1 2490   0.624   2.622   1.422
  785HOH    HW2 2491   0.663   2.735   1.328
  786HOH    OW  2492   0.683   2.125   1.520
  786HOH    HW1 2493   0.642   2.210   1.532
  786HOH    HW2 2494   0.611   2.067   1.493
  787HOH    OW  2495   0.540   1.707   3.002
  787HOH    HW1 2496   0.486   1.655   3.062
  787HOH    HW2 2497   0.560   1.647   2.930
  788HOH    OW  2498   3.139   1.198   2.989
  788HOH    HW1 2499   3.079   1.182   3.062
  788HOH    HW2 2500   3.224   1.172   3.022
  789HOH    OW  2501   3.888   2.901   0.984
  789HOH    HW1 2502   3.814   2.919   1.041
  789HOH    HW2 2503   3.891   2.805   0.979
  790HOH    OW  2504   0.043   1.767   0.911
  790HOH    HW1 2505   0.052   1.767   0.815
  790HOH    HW2 2506   0.038   1.860   0.934
  791HOH    OW  2507   3.328   0.179   1.835
  791HOH    HW1 2508   3.420   0.206   1.827
  791HOH    HW2 2509   3.309   0.186   1.928
  792HOH    OW  2510   2.312   1.230   3.725
  792HOH    HW1 2511   2.349   1.316   3.745
  792HOH    HW2 2512   2.377   1.168   3.757
  793HOH    OW  2513   0.506   3.450   1.961
  793HOH    HW1 2514   0.483   3.407   2.044
  793HOH    HW2 2515   0.427   3.441   1.908
  794HOH    OW  2516   1.778   2.942   3.582
  794HOH    HW1 2517   1.816   2.864   3.621
  794HOH    HW2 2518   1.850   2.982   3.533
  795HOH    OW  2519   1.140   0.227   2.118
  795HOH    HW1 2520   1.144   0.157   2.184
  795HOH    HW2 2521   1.192   0.194   2.045
  796HOH    OW  2522   1.915   2.626   1.402
  796HOH    HW1 2523   1.874   2.709   1.378
  796HOH    HW2 2524   1.929   2.633   1.496
  797HOH    OW  2525   3.316   1.413   3.477
  797HOH    HW1 2526   3.247   1.348   3.462
  797HOH    HW2 2527   3.345   1.398   3.567
  798HOH    OW  2528   0.295   1.540   0.422
  798HOH    HW1 2529   0.220   1.566   0.368
  798HOH    HW2 2530   0.292   1.444   0.422
  799HOH    OW  2531   2.343   1.869   2.489
  799HOH    HW1 2532   2.434   1.842   2.487
  799HOH    HW2 2533   2.334   1.930   2.415
  800HOH    OW  2534   1.115   0.611   0.056
  800HOH    HW1 2535   1.127   0.566   3.934
  800HOH    HW2 2536   1.200   0.650   0.076
  801HOH    OW  2537   3.698   1.653   1.055
  801HOH    HW1 2538   3.733   1.742   1.056
  801HOH    HW2 2539   3.706   1.625   0.964
  802HOH    OW  2540   1.485   2.915   0.212
  802HOH    HW1 2541   1.514   2.896   0.122
  802HOH    HW2 2542   1.517   2.841   0.263
  803HOH    OW  2543   2.664   2.531   1.611
  803HOH    HW1 2544   2.738   2.590   1.621
  803HOH    HW2 2545   2.695   2.446   1.642
  804HOH    OW  2546   1.097   1.415   0.918
  804HOH    HW1 2547   1.101   1.355   0.993
  804HOH    HW2 2548   1.027   1.379   0.863
  805HOH    OW  2549   0.874   3.760   3.754
  805HOH    HW1 2550   0.917   3.678   3.776
  805HOH    HW2 2551   0.921   3.791   3.676
  806HOH    OW  2552   3.281   0.765   2.169
  806HOH    HW1 2553   3.296   0.776   2.075
  806HOH    HW2 2554   3.346   0.699   2.195
  807HOH    OW  2555   2.102   2.815   3.582
  807HOH    HW1 2556   2.163   2.742   3.577
  807HOH    HW2 2557   2.106   2.843   3.673
  808HOH    OW  2558   0.428   3.615   1.604
  808HOH    HW1 2559   0.467   3.668   1.673
  808HOH    HW2 2560   0.336   3.642   1.602
  809HOH    OW  2561   1.741   1.177   2.866
  809HOH    HW1 2562   1.704   1.183   2.778
  809HOH    HW2 2563   1.832   1.204   2.855
  810HOH    OW  2564   0.215   0.580   0.207
  810HOH    HW1 2565   0.125   0.611   0.220
  810HOH    HW2 2566   0.205   0.500   0.156
  811HOH    OW  2567   0.568   0.670   0.750
  811HOH    HW1 2568   0.502   0.694   0.685
  811HOH    HW2 2569   0.582   0.576   0.737
  812HOH    OW  2570   2.368   3.041   0.289
  812HOH    HW1 2571   2.322   3.001   0.215
  812HOH    HW2 2572   2.364   2.976   0.359
  813HOH    OW  2573   0.117   0.348   1.127
  813HOH    HW1 2574   0.085   0.365   1.215
  813HOH    HW2 2575   0.094   0.256   1.110
  814HOH    OW  2576   2.979   2.818   3.292
  814HOH    HW1 2577   2.980   2.914   3.297
  814HOH    HW2 2578   2.984   2.799   3.198
  815HOH    OW  2579   2.638   3.567   2.229
  815HOH    HW1 2580   2.593   3.637   2.183
  815HOH    HW2 2581   2.615   3.488   2.181
  816HOH    OW  2582   0.226   3.848   0.902
  816HOH    HW1 2583   0.219   3.839   0.807
  816HOH    HW2 2584   0.179   3.929   0.921
  817HOH    OW  2585   0.257   2.769   0.717
  817HOH    HW1 2586   0.248   2.855   0.675
  817HOH    HW2 2587   0.315   2.784   0.792
  818HOH    OW  2588   1.341   1.557   0.946
  818HOH    HW1 2589   1.269   1.495   0.933
  818HOH    HW2 2590   1.342   1.573   1.040
  819HOH    OW  2591   0.109   1.378   0.023
  819HOH    HW1 2592   0.200   1.350   0.037
  819HOH    HW2 2593   0.071   1.381   0.110
  820HOH    OW  2594   1.505   0.006   2.033
  820HOH    HW1 2595   1.601   3.957   2.036
  820HOH    HW2 2596   1.472   3.880   2.058
  821HOH    OW  2597   1.962   1.801   3.455
  821HOH    HW1 2598   1.948   1.709   3.476
  821HOH    HW2 2599   2.017   1.799   3.376
  822HOH    OW  2600   1.574   0.855   3.718
  822HOH    HW1 2601   1.586   0.777   3.772
  822HOH    HW2 2602   1.564   0.822   3.629
  823HOH    OW  2603   3.250   3.779   2.921
  823HOH    HW1 2604   3.205   3.719   2.860
  823HOH    HW2 2605   3.201   3.861   2.913
  824HOH    OW  2606   1.608   0.404   1.416
  824HOH    HW1 2607   1.523   0.446   1.427
  824HOH    HW2 2608   1.672   0.473   1.432
  825HOH    OW  2609   3.235   3.159   0.136
  825HOH    HW1 2610   3.268   3.074   0.163
  825HOH    HW2 2611   3.148   3.165   0.175
  826HOH    OW  2612   0.810   0.251   2.875
  826HOH    HW1 2613   0.719   0.233   2.900
  826HOH    HW2 2614   0.862   0.206   2.941
  827HOH    OW  2615   0.023   0.158   2.114
  827HOH    HW1 2616   0.012   0.087   2.178
  827HOH    HW2 2617   0.114   0.152   2.087
  828HOH    OW  2618   3.291   2.201   0.367
  828HOH    HW1 2619   3.203   2.177   0.338
  828HOH    HW2 2620   3.341   2.119   0.361
  829HOH    OW  2621   0.200   1.621   3.496
  829HOH    HW1 2622   0.280   1.569   3.494
  829HOH    HW2 2623   0.176   1.626   3.588
  830HOH    OW  2624   2.904   3.088   1.727
  830HOH    HW1 2625   2.974   3.071   1.790
  830HOH    HW2 2626   2.832   3.121   1.780
  831HOH    OW  2627   0.451   1.608   0.736
  831HOH    HW1 2628   0.534   1.562   0.726
  831HOH    HW2 2629   0.396   1.548   0.787
  832HOH    OW  2630   3.352   2.902   3.075
  832HOH    HW1 2631   3.287   2.955   3.120
  832HOH    HW2 2632   3.420   2.963   3.049
  833HOH    OW  2633   0.291   1.296   2.019
  833HOH    HW1 2634   0.228   1.279   2.089
  833HOH    HW2 2635   0.242   1.277   1.938
  834HOH    OW  2636   2.007   0.095   2.188
  834HOH    HW1 2637   1.986   0.096   2.281
  834HOH    HW2 2638   2.051   0.178   2.172
  835HOH    OW  2639   2.023   3.074   0.019
  835HOH    HW1 2640   2.053   3.108   0.104
  835HOH    HW2 2641   2.030   3.149   3.921
  836HOH    OW  2642   0.692   0.395   2.090
  836HOH    HW1 2643   0.771   0.442   2.114
  836HOH    HW2 2644   0.662   0.436   2.009
  837HOH    OW  2645   3.338   1.941   1.044
  837HOH    HW1 2646   3.327   2.032   1.073
  837HOH    HW2 2647   3.354   1.948   0.950
  838HOH    OW  2648   0.411   2.966   1.263
  838HOH    HW1 2649   0.493   2.917   1.255
  838HOH    HW2 2650   0.428   3.048   1.218
  839HOH    OW  2651   3.660   0.156   0.033
  839HOH    HW1 2652   3.612   0.215   0.091
  839HOH    HW2 2653   3.672   0.076   0.084
  840HOH    OW  2654   2.284   0.269   1.652
  840HOH    HW1 2655   2.360   0.222   1.685
  840HOH    HW2 2656   2.316   0.314   1.574
  841HOH    OW  2657   3.773   1.236   1.014
  841HOH    HW1 2658   3.747   1.252   1.105
  841HOH    HW2 2659   3.693   1.203   0.972
  842HOH    OW  2660   0.681   3.155   0.156
  842HOH    HW1 2661   0.728   3.075   0.133
  842HOH    HW2 2662   0.598   3.125   0.192
  843HOH    OW  2663   2.049   3.634   0.579
  843HOH    HW1 2664   2.097   3.553   0.597
  843HOH    HW2 2665   2.095   3.701   0.629
  844HOH    OW  2666   2.493   3.368   3.936
  844HOH    HW1 2667   2.479   3.428   3.863
  844HOH    HW2 2668   2.409   3.323   3.946
  845HOH    OW  2669   0.094   2.308   0.122
  845HOH    HW1 2670   0.155   2.309   0.048
  845HOH    HW2 2671   0.143   2.349   0.193
  846HOH    OW  2672   2.108   1.597   0.696
  846HOH    HW1 2673   2.036   1.569   0.640
  846HOH    HW2 2674   2.186   1.556   0.657
  847HOH    OW  2675   2.730   1.885   1.300
  847HOH    HW1 2676   2.713   1.808   1.353
  847HOH    HW2 2677   2.741   1.850   1.211
  848HOH    OW  2678   0.104   3.738   3.514
  848HOH    HW1 2679   0.044   3.675   3.473
  848HOH    HW2 2680   0.068   3.824   3.490
  849HOH    OW  2681   2.133   1.804   3.188
  849HOH    HW1 2682   2.069   1.835   3.125
  849HOH    HW2 2683   2.217   1.807   3.141
  850HOH    OW  2684   0.868   1.312   0.570
  850HOH    HW1 2685   0.839   1.232   0.526
  850HOH    HW2 2686   0.948   1.337   0.523
  851HOH    OW  2687   0.244   0.768   3.864
  851HOH    HW1 2688   0.318   0.754   3.922
  851HOH    HW2 2689   0.188   0.692   3.876
  852HOH    OW  2690   2.691   1.193   0.811
  852HOH    HW1 2691   2.701   1.228   0.900
  852HOH    HW2 2692   2.711   1.100   0.820
  853HOH    OW  2693   2.133   2.032   1.624
  853HOH    HW1 2694   2.091   2.108   1.582
  853HOH    HW2 2695   2.226   2.045   1.607
  854HOH    OW  2696   2.518   0.576   0.641
  854HOH    HW1 2697   2.448   0.608   0.584
  854HOH    HW2 2698   2.543   0.492   0.603
  855HOH    OW  2699   1.031   3.932   3.595
  855HOH    HW1 2700   1.049   0.039   3.530
  855HOH    HW2 2701   0.979   0.015   3.662
  856HOH    OW  2702   0.579   0.709   2.483
  856HOH    HW1 2703   0.545   0.669   2.403
  856HOH    HW2 2704   0.655   0.759   2.454
  857HOH    OW  2705   1.758   0.546   2.076
  857HOH    HW1 2706   1.677   0.586   2.108
  857HOH    HW2 2707   1.765   0.463   2.124
  858HOH    OW  2708   1.851   2.415   3.202
  858HOH    HW1 2709   1.890   2.481   3.258
  858HOH    HW2 2710   1.891   2.333   3.230
  859HOH    OW  2711   2.283   0.310   0.626
  859HOH    HW1 2712   2.374   0.290   0.605
  859HOH    HW2 2713   2.243   0.225   0.643
  860HOH    OW  2714   0.021   2.573   2.584
  860HOH    HW1 2715   3.946   2.544   2.500
  860HOH    HW2 2716   3.906   2.590   2.639
  861HOH    OW  2717   1.022   1.857   3.174
  861HOH    HW1 2718   1.057   1.940   3.207
  861HOH    HW2 2719   0.946   1.882   3.122
  862HOH    OW  2720   1.902   2.636   0.310
  862HOH    HW1 2721   1.911   2.542   0.299
  862HOH    HW2 2722   1.873   2.648   0.400
  863HOH    OW  2723   1.073   0.786   3.036
  863HOH    HW1 2724   1.016   0.710   3.047
  863HOH    HW2 2725   1.145   0.755   2.981
  864HOH    OW  2726   0.143   0.397   2.447
  864HOH    HW1 2727   0.159   0.303   2.441
  864HOH    HW2 2728   0.092   0.408   2.527
  865HOH    OW  2729   1.578   2.020   0.258
  865HOH    HW1 2730   1.569   1.972   0.340
  865HOH    HW2 2731   1.489   2.053   0.240
  866HOH    OW  2732   2.067   0.609   3.858
  866HOH    HW1 2733   2.044   0.674   3.792
  866HOH    HW2 2734   2.158   0.630   3.882
  867HOH    OW  2735   0.297   3.914   3.245
  867HOH    HW1 2736   0.265   3.829   3.216
  867HOH    HW2 2737   0.233   0.015   3.210
  868HOH    OW  2738   2.706   3.958   3.314
  868HOH    HW1 2739   2.729   3.867   3.299
  868HOH    HW2 2740   2.644   3.956   3.388
  869HOH    OW  2741   2.949   1.921   0.487
  869HOH    HW1 2742   2.947   1.993   0.424
  869HOH    HW2 2743   3.042   1.900   0.497
  870HOH    OW  2744   3.842   3.522   1.132
  870HOH    HW1 2745   3.865   3.437   1.170
  870HOH    HW2 2746   3.869   3.515   1.040
  871HOH    OW  2747   3.634   0.923   0.266
  871HOH    HW1 2748   3.608   1.015   0.278
  871HOH    HW2 2749   3.580   0.893   0.192
  872HOH    OW  2750   3.808   3.498   0.098
  872HOH    HW1 2751   3.887   3.549   0.119
  872HOH    HW2 2752   3.840   3.427   0.043
  873HOH    OW  2753   3.367   2.850   1.602
  873HOH    HW1 2754   3.398   2.927   1.649
  873HOH    HW2 2755   3.446   2.798   1.585
  874HOH    OW  2756   0.251   2.908   3.524
  874HOH    HW1 2757   0.303   2.889   3.445
  874HOH    HW2 2758   0.253   3.004   3.530
  875HOH    OW  2759   1.693   3.266   0.554
  875HOH    HW1 2760   1.783   3.290   0.577
  875HOH    HW2 2761   1.680   3.179   0.593
  876HOH    OW  2762   3.427   1.949   0.358
  876HOH    HW1 2763   3.368   1.908   0.295
  876HOH    HW2 2764   3.502   1.978   0.306
  877HOH    OW  2765   1.477   1.719   1.162
  877HOH    HW1 2766   1.491   1.805   1.201
  877HOH    HW2 2767   1.533   1.718   1.084
  878HOH    OW  2768   2.776   3.112   1.087
  878HOH    HW1 2769   2.813   3.167   1.018
  878HOH    HW2 2770   2.852   3.084   1.138
  879HOH    OW  2771   0.658   2.315   3.759
  879HOH    HW1 2772   0.575   2.359   3.745
  879HOH    HW2 2773   0.724   2.382   3.741
  880HOH    OW  2774   3.790   2.466   1.497
  880HOH    HW1 2775   3.800   2.384   1.545
  880HOH    HW2 2776   3.817   2.445   1.408
  881HOH    OW  2777   2.598   2.664   1.338
  881HOH    HW1 2778   2.558   2.577   1.329
  881HOH    HW2 2779   2.691   2.649   1.322
  882HOH    OW  2780   2.805   1.991   1.672
  882HOH    HW1 2781   2.816   1.903   1.707
  882HOH    HW2 2782   2.893   2.029   1.673
  883HOH    OW  2783   1.781   1.137   0.629
  883HOH    HW1 2784   1.713   1.155   0.693
  883HOH    HW2 2785   1.751   1.180   0.549
  884HOH    OW  2786   0.988   3.301   1.393
  884HOH    HW1 2787   1.072   3.277   1.433
  884HOH    HW2 2788   1.011   3.347   1.313
  885HOH    OW  2789   2.499   2.343   2.697
  885HOH    HW1 2790   2.422   2.316   2.648
  885HOH    HW2 2791   2.486   2.309   2.785
  886HOH    OW  2792   0.845   0.680   2.110
  886HOH    HW1 2793   0.798   0.723   2.182
  886HOH    HW2 2794   0.895   0.610   2.153
  887HOH    OW  2795   0.932   0.403   0.359
  887HOH    HW1 2796   0.898   0.406   0.270
  887HOH    HW2 2797   0.855   0.407   0.416
  888HOH    OW  2798   1.595   1.312   1.930
  888HOH    HW1 2799   1.579   1.219   1.942
  888HOH    HW2 2800   1.690   1.318   1.917
  889HOH    OW  2801   0.383   1.434   0.167
  889HOH    HW1 2802   0.312   1.397   0.218
  889HOH    HW2 2803   0.455   1.372   0.177
  890HOH    OW  2804   0.482   0.544   3.167
  890HOH    HW1 2805   0.575   0.542   3.187
  890HOH    HW2 2806   0.449   0.622   3.211
  891HOH    OW  2807   2.056   0.034   3.235
  891HOH    HW1 2808   1.970   0.057   3.198
  891HOH    HW2 2809   2.089   0.116   3.271
  892HOH    OW  2810   0.936   2.516   0.019
  892HOH    HW1 2811   0.977   2.447   0.071
  892HOH    HW2 2812   1.007   2.576   3.958
  893HOH    OW  2813   2.598   1.449   1.715
  893HOH    HW1 2814   2.687   1.457   1.748
  893HOH    HW2 2815   2.589   1.357   1.690
  894HOH    OW  2816   3.486   0.498   3.864
  894HOH    HW1 2817   3.400   0.531   3.891
  894HOH    HW2 2818   3.507   0.548   3.785
  895HOH    OW  2819   3.632   2.956   1.118
  895HOH    HW1 2820   3.642   3.034   1.173
  895HOH    HW2 2821   3.571   2.984   1.049
  896HOH    OW  2822   0.664   2.816   3.054
  896HOH    HW1 2823   0.626   2.761   2.985
  896HOH    HW2 2824   0.753   2.784   3.063
  897HOH    OW  2825   3.209   2.906   0.716
  897HOH    HW1 2826   3.226   2.817   0.688
  897HOH    HW2 2827   3.294   2.939   0.746
  898HOH    OW  2828   1.324   1.025   3.380
  898HOH    HW1 2829   1.390   1.016   3.312
  898HOH    HW2 2830   1.241   1.027   3.333
  899HOH    OW  2831   1.864   2.098   2.507
  899HOH    HW1 2832   1.837   2.180   2.465
  899HOH    HW2 2833   1.901   2.046   2.436
  900HOH    OW  2834   0.928   1.613   3.245
  900HOH    HW1 2835   0.967   1.700   3.246
  900HOH    HW2 2836   0.872   1.612   3.168
  901HOH    OW  2837   0.884   2.527   1.309
  901HOH    HW1 2838   0.915   2.461   1.247
  901HOH    HW2 2839   0.935   2.605   1.288
  902HOH    OW  2840   1.676   3.327   0.267
  902HOH    HW1 2841   1.588   3.302   0.239
  902HOH    HW2 2842   1.682   3.297   0.358
  903HOH    OW  2843   2.315   3.427   2.412
  903HOH    HW1 2844   2.353   3.399   2.329
  903HOH    HW2 2845   2.336   3.520   2.419
  904HOH    OW  2846   2.276   3.643   3.928
  904HOH    HW1 2847   2.188   3.637   0.004
  904HOH    HW2 2848   2.330   3.592   0.026
  905HOH    OW  2849   2.148   0.256   3.337
  905HOH    HW1 2850   2.129   0.349   3.347
  905HOH    HW2 2851   2.162   0.225   3.427
  906HOH    OW  2852   2.008   2.546   2.760
  906HOH    HW1 2853   2.040   2.470   2.711
  906HOH    HW2 2854   1.945   2.510   2.822
  907HOH    OW  2855   2.154   3.350   1.404
  907HOH    HW1 2856   2.065   3.337   1.437
  907HOH    HW2 2857   2.211   3.333   1.479
  908HOH    OW  2858   3.835   2.876   2.645
  908HOH    HW1 2859   3.790   2.794   2.667
  908HOH    HW2 2860   3.765   2.941   2.642
  909HOH    OW  2861   3.629   0.635   0.228
  909HOH    HW1 2862   3.565   0.568   0.250
  909HOH    HW2 2863   3.609   0.708   0.287
  910HOH    OW  2864   2.626   2.077   2.678
  910HOH    HW1 2865   2.563   2.148   2.683
  910HOH    HW2 2866   2.654   2.063   2.768
  911HOH    OW  2867   1.910   0.005   0.523
  911HOH    HW1 2868   1.919   3.872   0.510
  911HOH    HW2 2869   1.820   0.025   0.496
  912HOH    OW  2870   3.500   1.954   3.296
  912HOH    HW1 2871   3.525   1.878   3.244
  912HOH    HW2 2872   3.582   2.003   3.308
  913HOH    OW  2873   1.262   1.957   0.057
  913HOH    HW1 2874   1.254   2.051   0.074
  913HOH    HW2 2875   1.220   1.916   0.132
  914HOH    OW  2876   3.483   3.606   0.913
  914HOH    HW1 2877   3.484   3.511   0.899
  914HOH    HW2 2878   3.404   3.636   0.868
  915HOH    OW  2879   0.496   1.731   0.472
  915HOH    HW1 2880   0.494   1.708   0.565
  915HOH    HW2 2881   0.436   1.669   0.431
  916HOH    OW  2882   3.838   3.363   0.438
  916HOH    HW1 2883   3.747   3.393   0.448
  916HOH    HW2 2884   3.845   3.341   0.345
  917HOH    OW  2885   3.508   0.181   3.535
  917HOH    HW1 2886   3.515   0.163   3.441
  917HOH    HW2 2887   3.547   0.105   3.577
  918HOH    OW  2888   2.410   0.452   1.426
  918HOH    HW1 2889   2.357   0.479   1.351
  918HOH    HW2 2890   2.494   0.426   1.388
  919HOH    OW  2891   3.580   2.217   0.644
  919HOH    HW1 2892   3.533   2.161   0.582
  919HOH    HW2 2893   3.602   2.159   0.717
  920HOH    OW  2894   0.657   3.194   0.906
  920HOH    HW1 2895   0.715   3.163   0.976
  920HOH    HW2 2896   0.644   3.118   0.850
  921HOH    OW  2897   3.646   1.677   3.051
  921HOH    HW1 2898   3.685   1.754   3.092
  921HOH    HW2 2899   3.711   1.608   3.062
  922HOH    OW  2900   2.604   3.803   3.698
  922HOH    HW1 2901   2.691   3.767   3.681
  922HOH    HW2 2902   2.583   3.852   3.618
  923HOH    OW  2903   1.900   2.446   1.163
  923HOH    HW1 2904   1.892   2.351   1.160
  923HOH    HW2 2905   1.918   2.466   1.255
  924HOH    OW  2906   2.379   0.052   0.249
  924HOH    HW1 2907   2.333   0.009   0.321
  924HOH    HW2 2908   2.455   0.093   0.290
  925HOH    OW  2909   3.246   2.622   3.099
  925HOH    HW1 2910   3.311   2.691   3.109
  925HOH    HW2 2911   3.168   2.657   3.142
  926HOH    OW  2912   3.531   2.651   0.565
  926HOH    HW1 2913   3.489   2.702   0.635
  926HOH    HW2 2914   3.614   2.695   0.549
  927HOH    OW  2915   3.332   3.538   2.255
  927HOH    HW1 2916   3.381   3.509   2.177
  927HOH    HW2 2917   3.297   3.623   2.231
  928HOH    OW  2918   3.310   0.351   0.275
  928HOH    HW1 2919   3.392   0.343   0.227
  928HOH    HW2 2920   3.245   0.374   0.208
  929HOH    OW  2921   2.118   1.529   3.160
  929HOH    HW1 2922   2.024   1.545   3.170
  929HOH    HW2 2923   2.157   1.616   3.149
  930HOH    OW  2924   1.736   3.402   2.464
  930HOH    HW1 2925   1.718   3.314   2.432
  930HOH    HW2 2926   1.817   3.393   2.515
  931HOH    OW  2927   2.831   0.327   3.725
  931HOH    HW1 2928   2.870   0.399   3.675
  931HOH    HW2 2929   2.799   0.266   3.659
  932HOH    OW  2930   0.152   3.611   1.053
  932HOH    HW1 2931   0.172   3.524   1.018
  932HOH    HW2 2932   0.201   3.672   0.997
  933HOH    OW  2933   1.767   0.599   3.897
  933HOH    HW1 2934   1.744   0.540   3.825
  933HOH    HW2 2935   1.859   0.621   3.881
  934HOH    OW  2936   3.719   1.385   0.423
  934HOH    HW1 2937   3.701   1.318   0.356
  934HOH    HW2 2938   3.639   1.389   0.475
  935HOH    OW  2939   1.919   1.162   1.918
  935HOH    HW1 2940   1.965   1.211   1.849
  935HOH    HW2 2941   1.969   1.081   1.926
  936HOH    OW  2942   2.937   1.982   3.800
  936HOH    HW1 2943   2.956   2.070   3.833
  936HOH    HW2 2944   2.854   1.958   3.841
  937HOH    OW  2945   1.473   0.196   1.304
  937HOH    HW1 2946   1.526   0.275   1.297
  937HOH    HW2 2947   1.396   0.222   1.354
  938HOH    OW  2948   3.699   1.244   0.181
  938HOH    HW1 2949   3.643   1.316   0.154
  938HOH    HW2 2950   3.722   1.199   0.099
  939HOH    OW  2951   2.723   2.713   3.764
  939HOH    HW1 2952   2.793   2.648   3.754
  939HOH    HW2 2953   2.761   2.794   3.730
  940HOH    OW  2954   0.140   0.052   1.756
  940HOH    HW1 2955   0.201   3.952   1.797
  940HOH    HW2 2956   0.194   0.128   1.732
  941HOH    OW  2957   0.342   1.005   1.716
  941HOH    HW1 2958   0.266   1.030   1.663
  941HOH    HW2 2959   0.306   0.953   1.788
  942HOH    OW  2960   1.690   3.120   1.129
  942HOH    HW1 2961   1.712   3.194   1.185
  942HOH    HW2 2962   1.647   3.159   1.053
  943HOH    OW  2963   0.710   3.326   1.273
  943HOH    HW1 2964   0.788   3.382   1.271
  943HOH    HW2 2965   0.671   3.343   1.358
  944HOH    OW  2966   2.577   1.180   0.416
  944HOH    HW1 2967   2.516   1.181   0.489
  944HOH    HW2 2968   2.635   1.254   0.431
  945HOH    OW  2969   1.191   1.376   1.691
  945HOH    HW1 2970   1.271   1.426   1.709
  945HOH    HW2 2971   1.142   1.431   1.631
  946HOH    OW  2972   0.878   3.320   2.603
  946HOH    HW1 2973   0.903   3.392   2.661
  946HOH    HW2 2974   0.786   3.337   2.583
  947HOH    OW  2975   0.414   2.559   3.133
  947HOH    HW1 2976   0.338   2.596   3.178
  947HOH    HW2 2977   0.402   2.464   3.140
  948HOH    OW  2978   0.282   0.666   1.387
  948HOH    HW1 2979   0.300   0.737   1.326
  948HOH    HW2 2980   0.189   0.646   1.375
  949HOH    OW  2981   0.013   0.390   2.691
  949HOH    HW1 2982   3.885   0.412   2.720
  949HOH    HW2 2983   0.014   0.295   2.688
  950HOH    OW  2984   2.813   1.631   3.689
  950HOH    HW1 2985   2.796   1.669   3.775
  950HOH    HW2 2986   2.826   1.706   3.631
  951HOH    OW  2987   2.373   1.854   1.398
  951HOH    HW1 2988   2.445   1.916   1.388
  951HOH    HW2 2989   2.294   1.907   1.382
  952HOH    OW  2990   0.259   3.232   3.417
  952HOH    HW1 2991   0.241   3.257   3.326
  952HOH    HW2 2992   0.355   3.233   3.423
  953HOH    OW  2993   3.324   0.217   3.726
  953HOH    HW1 2994   3.303   0.130   3.760
  953HOH    HW2 2995   3.385   0.201   3.654
  954HOH    OW  2996   0.517   1.756   3.391
  954HOH    HW1 2997   0.488   1.666   3.379
  954HOH    HW2 2998   0.475   1.804   3.319
  955HOH    OW  2999   0.975   2.157   0.380
  955HOH    HW1 3000   1.028   2.232   0.407
  955HOH    HW2 3001   0.963   2.170   0.286
  956HOH    OW  3002   0.971   1.250   0.281
  956HOH    HW1 3003   1.057   1.217   0.256
  956HOH    HW2 3004   0.928   1.175   0.324
  957HOH    OW  3005   2.743   0.605   0.787
  957HOH    HW1 3006   2.749   0.700   0.793
  957HOH    HW2 3007   2.659   0.588   0.745
  958HOH    OW  3008   0.595   1.263   0.182
  958HOH    HW1 3009   0.589   1.210   0.262
  958HOH    HW2 3010   0.653   1.213   0.124
  959HOH    OW  3011   1.383   1.863   1.498
  959HOH    HW1 3012   1.347   1.871   1.587
  959HOH    HW2 3013   1.309   1.879   1.440
  960HOH    OW  3014   1.414   0.170   0.877
  960HOH    HW1 3015   1.439   0.262   0.878
  960HOH    HW2 3016   1.453   0.135   0.798
  961HOH    OW  3017   0.119   0.458   2.952
  961HOH    HW1 3018   0.205   0.465   2.993
  961HOH    HW2 3019   0.136   0.422   2.865
  962HOH    OW  3020   2.576   1.511   0.327
  962HOH    HW1 3021   2.564   1.606   0.332
  962HOH    HW2 3022   2.626   1.489   0.405
  963HOH    OW  3023   0.063   0.558   3.934
  963HOH    HW1 3024   3.943   0.608   3.947
  963HOH    HW2 3025   0.034   0.475   3.897
  964HOH    OW  3026   0.948   2.189   0.116
  964HOH    HW1 3027   0.923   2.104   0.081
  964HOH    HW2 3028   1.007   2.226   0.050
  965HOH    OW  3029   2.330   0.863   1.412
  965HOH    HW1 3030   2.369   0.776   1.406
  965HOH    HW2 3031   2.274   0.870   1.335
  966HOH    OW  3032   1.642   1.250   0.870
  966HOH    HW1 3033   1.573   1.207   0.819
  966HOH    HW2 3034   1.646   1.201   0.952
  967HOH    OW  3035   1.328   2.273   1.186
  967HOH    HW1 3036   1.312   2.182   1.160
  967HOH    HW2 3037   1.339   2.320   1.104
  968HOH    OW  3038   3.340   3.902   2.354
  968HOH    HW1 3039   3.384   3.884   2.271
  968HOH    HW2 3040   3.410   3.922   2.415
  969HOH    OW  3041   0.760   1.346   1.018
  969HOH    HW1 3042   0.728   1.427   1.057
  969HOH    HW2 3043   0.805   1.300   1.089
  970HOH    OW  3044   3.767   3.007   0.764
  970HOH    HW1 3045   3.835   3.025   0.698
  970HOH    HW2 3046   3.814   2.963   0.835
  971HOH    OW  3047   1.995   0.349   1.210
  971HOH    HW1 3048   1.996   0.396   1.294
  971HOH    HW2 3049   2.077   0.375   1.167
  972HOH    OW  3050   2.706   0.417   2.466
  972HOH    HW1 3051   2.649   0.389   2.538
  972HOH    HW2 3052   2.790   0.434   2.509
  973HOH    OW  3053   2.341   0.616   1.027
  973HOH    HW1 3054   2.366   0.558   0.955
  973HOH    HW2 3055   2.424   0.646   1.064
  974HOH    OW  3056   0.724   3.176   0.445
  974HOH    HW1 3057   0.634   3.177   0.480
  974HOH    HW2 3058   0.716   3.127   0.363
  975HOH    OW  3059   3.355   0.178   0.851
  975HOH    HW1 3060   3.403   0.145   0.775
  975HOH    HW2 3061   3.295   0.243   0.815
  976HOH    OW  3062   0.145   0.567   2.093
  976HOH    HW1 3063   0.065   0.518   2.112
  976HOH    HW2 3064   0.212   0.527   2.148
  977HOH    OW  3065   0.487   2.772   0.871
  977HOH    HW1 3066   0.542   2.823   0.813
  977HOH    HW2 3067   0.514   2.681   0.857
  978HOH    OW  3068   3.260   3.233   2.981
  978HOH    HW1 3069   3.222   3.170   2.919
  978HOH    HW2 3070   3.263   3.316   2.933
  979HOH    OW  3071   2.747   0.673   2.228
  979HOH    HW1 3072   2.838   0.648   2.245
  979HOH    HW2 3073   2.705   0.671   2.315
  980HOH    OW  3074   3.578   0.901   0.785
  980HOH    HW1 3075   3.542   0.971   0.839
  980HOH    HW2 3076   3.549   0.922   0.696
  981HOH    OW  3077   0.735   0.805   0.546
  981HOH    HW1 3078   0.662   0.754   0.512
  981HOH    HW2 3079   0.714   0.819   0.639
  982HOH    OW  3080   3.832   0.544   3.149
  982HOH    HW1 3081   3.849   0.567   3.058
  982HOH    HW2 3082   3.913   0.567   3.195
  983HOH    OW  3083   2.669   3.839   2.681
  983HOH    HW1 3084   2.678   3.873   2.770
  983HOH    HW2 3085   2.704   3.750   2.686
  984HOH    OW  3086   1.674   1.201   2.609
  984HOH    HW1 3087   1.712   1.175   2.526
  984HOH    HW2 3088   1.600   1.256   2.586
  985HOH    OW  3089   0.897   0.973   1.722
  985HOH    HW1 3090   0.918   0.892   1.769
  985HOH    HW2 3091   0.810   0.997   1.753
  986HOH    OW  3092   0.504   3.075   3.186
  986HOH    HW1 3093   0.521   3.061   3.093
  986HOH    HW2 3094   0.534   3.164   3.203
  987HOH    OW  3095   1.986   3.569   0.868
  987HOH    HW1 3096   1.963   3.552   0.959
  987HOH    HW2 3097   2.077   3.541   0.860
  988HOH    OW  3098   3.515   3.822   1.389
  988HOH    HW1 3099   3.535   3.773   1.309
  988HOH    HW2 3100   3.589   3.805   1.447
  989HOH    OW  3101   3.939   0.653   1.305
  989HOH    HW1 3102   3.938   0.636   1.211
  989HOH    HW2 3103   3.938   0.749   1.312
  990HOH    OW  3104   2.150   1.061   2.904
  990HOH    HW1 3105   2.110   1.069   2.818
  990HOH    HW2 3106   2.242   1.042   2.886
  991HOH    OW  3107   3.782   1.954   0.024
  991HOH    HW1 3108   3.768   2.015   0.097
  991HOH    HW2 3109   3.694   1.924   0.002
  992HOH    OW  3110   3.080   1.152   3.869
  992HOH    HW1 3111   3.140   1.186   3.936
  992HOH    HW2 3112   2.999   1.201   3.882
  993HOH    OW  3113   1.375   2.803   2.967
  993HOH    HW1 3114   1.315   2.849   3.026
  993HOH    HW2 3115   1.462   2.818   3.004
  994HOH    OW  3116   2.996   1.129   0.776
  994HOH    HW1 3117   2.931   1.194   0.802
  994HOH    HW2 3118   3.041   1.105   0.857
  995HOH    OW  3119   2.132   3.704   3.210
  995HOH    HW1 3120   2.085   3.782   3.241
  995HOH    HW2 3121   2.223   3.732   3.203
  996HOH    OW  3122   1.771   3.551   1.870
  996HOH    HW1 3123   1.863   3.572   1.851
  996HOH    HW2 3124   1.721   3.615   1.818
  997HOH    OW  3125   3.276   1.973   2.079
  997HOH    HW1 3126   3.216   1.959   2.153
  997HOH    HW2 3127   3.352   1.920   2.100
  998HOH    OW  3128   1.182   1.056   0.299
  998HOH    HW1 3129   1.125   1.043   0.375
  998HOH    HW2 3130   1.172   0.977   0.248
  999HOH    OW  3131   1.912   2.028   2.014
  999HOH    HW1 3132   1.911   2.093   2.084
  999HOH    HW2 3133   1.878   2.073   1.937
 1000HOH    OW  3134   1.277   2.063   0.512
 1000HOH    HW1 3135   1.239   2.009   0.581
 1000HOH    HW2 3136   1.234   2.033   0.431
 1001HOH    OW  3137   0.904   0.540   2.932
 1001HOH    HW1 3138   0.900   0.449   2.903
 1001HOH    HW2 3139   0.826   0.580   2.896
 1002HOH    OW  3140   3.527   3.390   2.433
 1002HOH    HW1 3141   3.580   3.334   2.378
 1002HOH    HW2 3142   3.456   3.421   2.375
 1003HOH    OW  3143   2.046   2.721   2.521
 1003HOH    HW1 3144   2.101   2.696   2.595
 1003HOH    HW2 3145   2.082   2.673   2.447
 1004HOH    OW  3146   0.032   1.830   3.085
 1004HOH    HW1 3147   3.933   1.855   3.155
 1004HOH    HW2 3148   0.099   1.778   3.129
 1005HOH    OW  3149   0.568   3.328   3.391
 1005HOH    HW1 3150   0.571   3.368   3.305
 1005HOH    HW2 3151   0.634   3.374   3.442
 1006HOH    OW  3152   0.210   1.973   3.616
 1006HOH    HW1 3153   0.139   1.908   3.616
 1006HOH    HW2 3154   0.281   1.929   3.663
 1007HOH    OW  3155   1.245   0.094   1.933
 1007HOH    HW1 3156   1.335   0.066   1.950
 1007HOH    HW2 3157   1.209   0.025   1.877
 1008HOH    OW  3158   3.620   2.515   2.976
 1008HOH    HW1 3159   3.672   2.540   3.053
 1008HOH    HW2 3160   3.544   2.469   3.013
 1009HOH    OW  3161   0.690   0.998   2.201
 1009HOH    HW1 3162   0.606   1.031   2.234
 1009HOH    HW2 3163   0.666   0.929   2.139
 1010HOH    OW  3164   1.268   3.250   2.749
 1010HOH    HW1 3165   1.309   3.294   2.674
 1010HOH    HW2 3166   1.245   3.321   2.809
 1011HOH    OW  3167   2.348   3.383   1.096
 1011HOH    HW1 3168   2.332   3.425   1.181
 1011HOH    HW2 3169   2.417   3.319   1.114
 1012HOH    OW  3170   0.953   0.314   3.338
 1012HOH    HW1 3171   0.962   0.406   3.362
 1012HOH    HW2 3172   0.875   0.284   3.384
 1013HOH    OW  3173   1.323   0.738   1.148
 1013HOH    HW1 3174   1.371   0.796   1.208
 1013HOH    HW2 3175   1.244   0.715   1.196
 1014HOH    OW  3176   0.001   0.985   0.986
 1014HOH    HW1 3177   3.955   0.954   1.076
 1014HOH    HW2 3178   3.951   1.080   0.992
 1015HOH    OW  3179   1.838   1.722   1.879
 1015HOH    HW1 3180   1.874   1.783   1.814
 1015HOH    HW2 3181   1.885   1.744   1.960
 1016HOH    OW  3182   3.630   2.569   2.383
 1016HOH    HW1 3183   3.615   2.633   2.453
 1016HOH    HW2 3184   3.702   2.607   2.332
 1017HOH    OW  3185   3.321   0.527   2.845
 1017HOH    HW1 3186   3.237   0.505   2.885
 1017HOH    HW2 3187   3.300   0.590   2.777
 1018HOH    OW  3188   0.461   2.845   0.005
 1018HOH    HW1 3189   0.506   2.906   3.907
 1018HOH    HW2 3190   0.390   2.808   3.914
 1019HOH    OW  3191   1.118   2.928   3.817
 1019HOH    HW1 3192   1.040   2.983   3.813
 1019HOH    HW2 3193   1.147   2.920   3.726
 1020HOH    OW  3194   2.906   1.699   3.017
 1020HOH    HW1 3195   2.876   1.666   3.102
 1020HOH    HW2 3196   3.001   1.685   3.018
 1021HOH    OW  3197   3.384   1.779   3.063
 1021HOH    HW1 3198   3.455   1.719   3.086
 1021HOH    HW2 3199   3.413   1.820   2.981
 1022HOH    OW  3200   0.946   1.069   2.115
 1022HOH    HW1 3201   0.970   1.141   2.174
 1022HOH    HW2 3202   0.862   1.039   2.147
 1023HOH    OW  3203   3.528   1.549   2.778
 1023HOH    HW1 3204   3.564   1.586   2.859
 1023HOH    HW2 3205   3.439   1.523   2.800
 1024HOH    OW  3206   3.036   3.128   0.312
 1024HOH    HW1 3207   3.062   3.099   0.399
 1024HOH    HW2 3208   2.976   3.202   0.329
 1025HOH    OW  3209   3.439   3.151   2.201
 1025HOH    HW1 3210   3.450   3.057   2.187
 1025HOH    HW2 3211   3.528   3.186   2.199
 1026HOH    OW  3212   1.808   3.727   2.199
 1026HOH    HW1 3213   1.868   3.653   2.183
 1026HOH    HW2 3214   1.804   3.773   2.115
 1027HOH    OW  3215   2.028   2.418   1.766
 1027HOH    HW1 3216   2.109   2.412   1.816
 1027HOH    HW2 3217   2.022   2.510   1.741
 1028HOH    OW  3218   0.735   1.626   0.955
 1028HOH    HW1 3219   0.653   1.603   0.999
 1028HOH    HW2 3220   0.715   1.618   0.862
 1029HOH    OW  3221   0.374   2.310   0.714
 1029HOH    HW1 3222   0.432   2.302   0.638
 1029HOH    HW2 3223   0.414   2.379   0.767
 1030HOH    OW  3224   1.516   1.953   2.331
 1030HOH    HW1 3225   1.469   2.034   2.351
 1030HOH    HW2 3226   1.477   1.888   2.389
 1031HOH    OW  3227   1.355   3.660   3.851
 1031HOH    HW1 3228   1.432   3.611   3.821
 1031HOH    HW2 3229   1.340   3.725   3.782
 1032HOH    OW  3230   3.005   3.910   2.770
 1032HOH    HW1 3231   2.949   3.834   2.755
 1032HOH    HW2 3232   2.950   0.011   2.817
 1033HOH    OW  3233   1.105   3.786   0.245
 1033HOH    HW1 3234   1.181   3.792   0.303
 1033HOH    HW2 3235   1.070   3.875   0.242
 1034HOH    OW  3236   0.138   1.259   1.747
 1034HOH    HW1 3237   0.071   1.204   1.704
 1034HOH    HW2 3238   0.128   1.345   1.707
 1035HOH    OW  3239   1.736   3.136   3.769
 1035HOH    HW1 3240   1.739   3.062   3.707
 1035HOH    HW2 3241   1.682   3.105   3.841
 1036HOH    OW  3242   3.460   3.894   3.100
 1036HOH    HW1 3243   3.472   0.017   3.056
 1036HOH    HW2 3244   3.416   3.839   3.036
 1037HOH    OW  3245   0.652   3.744   2.891
 1037HOH    HW1 3246   0.568   3.779   2.918
 1037HOH    HW2 3247   0.631   3.669   2.835
 1038HOH    OW  3248   0.836   1.188   0.029
 1038HOH    HW1 3249   0.871   1.261   0.079
 1038HOH    HW2 3250   0.868   1.203   3.901
 1039HOH    OW  3251   1.796   0.180   3.390
 1039HOH    HW1 3252   1.844   0.248   3.437
 1039HOH    HW2 3253   1.779   0.217   3.304
 1040HOH    OW  3254   3.543   2.889   1.972
 1040HOH    HW1 3255   3.524   2.917   1.883
 1040HOH    HW2 3256   3.527   2.795   1.973
 1041HOH    OW  3257   1.617   0.147   0.118
 1041HOH    HW1 3258   1.603   0.073   0.059
 1041HOH    HW2 3259   1.681   0.202   0.073
 1042HOH    OW  3260   2.280   0.333   0.211
 1042HOH    HW1 3261   2.299   0.316   0.303
 1042HOH    HW2 3262   2.358   0.303   0.165
 1043HOH    OW  3263   2.259   2.433   1.991
 1043HOH    HW1 3264   2.227   2.364   2.049
 1043HOH    HW2 3265   2.339   2.397   1.952
 1044HOH    OW  3266   2.754   1.931   2.135
 1044HOH    HW1 3267   2.746   1.984   2.215
 1044HOH    HW2 3268   2.762   1.996   2.065
 1045HOH    OW  3269   3.495   2.968   0.256
 1045HOH    HW1 3270   3.486   2.993   0.348
 1045HOH    HW2 3271   3.577   2.919   0.252
 1046HOH    OW  3272   3.315   2.140   3.333
 1046HOH    HW1 3273   3.336   2.156   3.241
 1046HOH    HW2 3274   3.356   2.055   3.352
 1047HOH    OW  3275   2.675   0.161   0.329
 1047HOH    HW1 3276   2.664   0.191   0.239
 1047HOH    HW2 3277   2.688   0.067   0.322
 1048HOH    OW  3278   0.357   1.110   2.952
 1048HOH    HW1 3279   0.389   1.024   2.980
 1048HOH    HW2 3280   0.272   1.093   2.913
 1049HOH    OW  3281   0.539   0.811   2.009
 1049HOH    HW1 3282   0.584   0.744   1.959
 1049HOH    HW2 3283   0.457   0.827   1.962
 1050HOH    OW  3284   1.593   0.057   3.078
 1050HOH    HW1 3285   1.594   3.961   3.155
 1050HOH    HW2 3286   1.562   0.002   3.007
 1051HOH    OW  3287   3.839   0.886   0.742
 1051HOH    HW1 3288   3.745   0.903   0.748
 1051HOH    HW2 3289   3.869   0.887   0.833
 1052HOH    OW  3290   2.990   1.048   1.054
 1052HOH    HW1 3291   3.027   1.130   1.088
 1052HOH    HW2 3292   3.057   0.982   1.069
 1053HOH    OW  3293   2.628   0.693   3.820
 1053HOH    HW1 3294   2.617   0.753   3.746
 1053HOH    HW2 3295   2.544   0.695   3.865
 1054HOH    OW  3296   1.553   1.950   2.665
 1054HOH    HW1 3297   1.548   1.870   2.613
 1054HOH    HW2 3298   1.530   2.020   2.604
 1055HOH    OW  3299   3.391   1.037   1.424
 1055HOH    HW1 3300   3.433   1.030   1.510
 1055HOH    HW2 3301   3.377   0.947   1.397
 1056HOH    OW  3302   0.321   0.161   1.304
 1056HOH    HW1 3303   0.341   0.228   1.238
 1056HOH    HW2 3304   0.379   0.181   1.377
 1057HOH    OW  3305   3.177   0.411   3.942
 1057HOH    HW1 3306   3.139   0.495   3.918
 1057HOH    HW2 3307   3.181   0.362   3.860
 1058HOH    OW  3308   1.581   3.356   1.493
 1058HOH    HW1 3309   1.645   3.356   1.422
 1058HOH    HW2 3310   1.517   3.290   1.469
 1059HOH    OW  3311   2.253   3.892   3.418
 1059HOH    HW1 3312   2.240   3.863   3.508
 1059HOH    HW2 3313   2.173   3.941   3.397
 1060HOH    OW  3314   3.011   3.490   1.560
 1060HOH    HW1 3315   3.072   3.423   1.590
 1060HOH    HW2 3316   3.066   3.560   1.526
 1061HOH    OW  3317   1.016   0.448   1.623
 1061HOH    HW1 3318   0.995   0.359   1.596
 1061HOH    HW2 3319   0.934   0.497   1.610
 1062HOH    OW  3320   0.453   1.111   2.283
 1062HOH    HW1 3321   0.400   1.176   2.238
 1062HOH    HW2 3322   0.392   1.067   2.342
 1063HOH    OW  3323   0.621   0.673   1.316
 1063HOH    HW1 3324   0.704   0.683   1.270
 1063HOH    HW2 3325   0.561   0.732   1.270
 1064HOH    OW  3326   2.401   3.780   3.231
 1064HOH    HW1 3327   2.368   3.832   3.305
 1064HOH    HW2 3328   2.492   3.761   3.255
 1065HOH    OW  3329   3.108   2.469   1.939
 1065HOH    HW1 3330   3.147   2.484   2.025
 1065HOH    HW2 3331   3.156   2.527   1.881
 1066HOH    OW  3332   2.151   1.382   1.582
 1066HOH    HW1 3333   2.136   1.288   1.592
 1066HOH    HW2 3334   2.219   1.388   1.515
 1067HOH    OW  3335   0.388   0.219   3.513
 1067HOH    HW1 3336   0.323   0.288   3.531
 1067HOH    HW2 3337   0.358   0.144   3.565
 1068HOH    OW  3338   3.244   3.542   0.800
 1068HOH    HW1 3339   3.163   3.523   0.846
 1068HOH    HW2 3340   3.217   3.562   0.711
 1069HOH    OW  3341   1.991   2.103   0.068
 1069HOH    HW1 3342   2.079   2.113   0.032
 1069HOH    HW2 3343   1.967   2.012   0.049
 1070HOH    OW  3344   1.284   2.000   1.066
 1070HOH    HW1 3345   1.340   1.988   1.143
 1070HOH    HW2 3346   1.335   1.967   0.993
 1071HOH    OW  3347   1.444   1.824   1.802
 1071HOH    HW1 3348   1.457   1.838   1.896
 1071HOH    HW2 3349   1.435   1.913   1.767
 1072HOH    OW  3350   2.512   1.841   0.112
 1072HOH    HW1 3351   2.447   1.883   0.167
 1072HOH    HW2 3352   2.481   1.750   0.103
 1073HOH    OW  3353   1.843   1.987   2.769
 1073HOH    HW1 3354   1.750   1.974   2.784
 1073HOH    HW2 3355   1.850   2.005   2.675
 1074HOH    OW  3356   3.636   3.003   2.972
 1074HOH    HW1 3357   3.707   2.968   2.918
 1074HOH    HW2 3358   3.610   3.083   2.926
 1075HOH    OW  3359   3.036   2.864   3.738
 1075HOH    HW1 3360   3.025   2.902   3.650
 1075HOH    HW2 3361   3.027   2.938   3.797
 1076HOH    OW  3362   3.555   3.567   2.648
 1076HOH    HW1 3363   3.561   3.658   2.622
 1076HOH    HW2 3364   3.574   3.517   2.568
 1077HOH    OW  3365   1.581   2.311   3.666
 1077HOH    HW1 3366   1.527   2.283   3.592
 1077HOH    HW2 3367   1.670   2.315   3.631
 1078HOH    OW  3368   2.674   3.638   0.661
 1078HOH    HW1 3369   2.756   3.674   0.693
 1078HOH    HW2 3370   2.642   3.583   0.732
 1079HOH    OW  3371   3.831   1.354   2.801
 1079HOH    HW1 3372   3.751   1.305   2.821
 1079HOH    HW2 3373   3.829   1.429   2.861
 1080HOH    OW  3374   0.303   3.139   2.037
 1080HOH    HW1 3375   0.357   3.085   2.095
 1080HOH    HW2 3376   0.317   3.103   1.950
 1081HOH    OW  3377   0.595   0.021   0.482
 1081HOH    HW1 3378   0.662   3.936   0.431
 1081HOH    HW2 3379   0.559   0.085   0.421
 1082HOH    OW  3380   0.853   0.606   0.093
 1082HOH    HW1 3381   0.828   0.698   0.104
 1082HOH    HW2 3382   0.949   0.606   0.097
 1083HOH    OW  3383   2.565   3.042   3.506
 1083HOH    HW1 3384   2.539   3.098   3.579
 1083HOH    HW2 3385   2.661   3.044   3.508
 1084HOH    OW  3386   3.384   2.814   2.796
 1084HOH    HW1 3387   3.391   2.900   2.755
 1084HOH    HW2 3388   3.388   2.831   2.890
 1085HOH    OW  3389   3.340   2.482   1.386
 1085HOH    HW1 3390   3.418   2.479   1.441
 1085HOH    HW2 3391   3.273   2.437   1.437
 1086HOH    OW  3392   0.348   1.550   3.116
 1086HOH    HW1 3393   0.332   1.563   3.023
 1086HOH    HW2 3394   0.378   1.459   3.123
 1087HOH    OW  3395   0.344   1.525   2.209
 1087HOH    HW1 3396   0.386   1.542   2.125
 1087HOH    HW2 3397   0.312   1.435   2.202
 1088HOH    OW  3398   2.900   2.387   0.025
 1088HOH    HW1 3399   2.930   2.429   3.905
 1088HOH    HW2 3400   2.811   2.358   0.005
 1089HOH    OW  3401   1.500   1.910   2.917
 1089HOH    HW1 3402   1.516   1.895   2.824
 1089HOH    HW2 3403   1.423   1.967   2.919
 1090HOH    OW  3404   3.767   1.557   2.301
 1090HOH    HW1 3405   3.779   1.602   2.385
 1090HOH    HW2 3406   3.745   1.626   2.239
 1091HOH    OW  3407   1.358   2.498   3.380
 1091HOH    HW1 3408   1.445   2.486   3.418
 1091HOH    HW2 3409   1.353   2.592   3.361
 1092HOH    OW  3410   1.660   0.756   1.909
 1092HOH    HW1 3411   1.572   0.762   1.871
 1092HOH    HW2 3412   1.670   0.663   1.930
 1093HOH    OW  3413   1.297   3.868   3.645
 1093HOH    HW1 3414   1.209   3.885   3.611
 1093HOH    HW2 3415   1.318   3.945   3.698
 1094HOH    OW  3416   3.812   0.370   0.259
 1094HOH    HW1 3417   3.844   0.362   0.349
 1094HOH    HW2 3418   3.868   0.311   0.209
 1095HOH    OW  3419   1.586   2.411   0.375
 1095HOH    HW1 3420   1.589   2.381   0.466
 1095HOH    HW2 3421   1.674   2.395   0.342
 1096HOH    OW  3422   3.141   1.540   2.141
 1096HOH    HW1 3423   3.084   1.557   2.216
 1096HOH    HW2 3424   3.155   1.446   2.141
 1097HOH    OW  3425   3.313   0.793   0.380
 1097HOH    HW1 3426   3.364   0.713   0.368
 1097HOH    HW2 3427   3.263   0.802   0.299
 1098HOH    OW  3428   3.289   3.717   3.931
 1098HOH    HW1 3429   3.365   3.731   0.027
 1098HOH    HW2 3430   3.321   3.658   3.863
 1099HOH    OW  3431   1.327   3.474   0.561
 1099HOH    HW1 3432   1.339   3.471   0.466
 1099HOH    HW2 3433   1.408   3.513   0.594
 1100HOH    OW  3434   1.620   2.627   3.584
 1100HOH    HW1 3435   1.685   2.556   3.580
 1100HOH    HW2 3436   1.616   2.662   3.495
 1101HOH    OW  3437   1.479   3.018   1.533
 1101HOH    HW1 3438   1.555   2.960   1.531
 1101HOH    HW2 3439   1.459   3.036   1.441
 1102HOH    OW  3440   3.938   1.095   1.616
 1102HOH    HW1 3441   0.024   1.016   1.587
 1102HOH    HW2 3442   3.957   1.160   1.549
 1103HOH    OW  3443   0.195   2.449   1.545
 1103HOH    HW1 3444   0.244   2.502   1.481
 1103HOH    HW2 3445   0.154   2.513   1.603
 1104HOH    OW  3446   1.519   3.895   3.897
 1104HOH    HW1 3447   1.549   3.804   3.891
 1104HOH    HW2 3448   1.438   3.890   3.949
 1105HOH    OW  3449   3.893   3.593   3.339
 1105HOH    HW1 3450   3.830   3.600   3.267
 1105HOH    HW2 3451   3.849   3.542   3.406
 1106HOH    OW  3452   3.588   3.478   0.645
 1106HOH    HW1 3453   3.664   3.448   0.695
 1106HOH    HW2 3454   3.527   3.404   0.648
 1107HOH    OW  3455   1.316   1.296   1.377
 1107HOH    HW1 3456   1.323   1.392   1.382
 1107HOH    HW2 3457   1.360   1.265   1.456
 1108HOH    OW  3458   0.397   2.178   3.437
 1108HOH    HW1 3459   0.491   2.170   3.452
 1108HOH    HW2 3460   0.362   2.209   3.520
 1109HOH    OW  3461   3.478   1.624   0.840
 1109HOH    HW1 3462   3.406   1.567   0.864
 1109HOH    HW2 3463   3.551   1.564   0.819
 1110HOH    OW  3464   2.640   2.031   3.407
 1110HOH    HW1 3465   2.647   1.993   3.320
 1110HOH    HW2 3466   2.611   2.121   3.391
 1111HOH    OW  3467   3.271   1.511   0.344
 1111HOH    HW1 3468   3.216   1.466   0.409
 1111HOH    HW2 3469   3.303   1.441   0.287
 1112HOH    OW  3470   2.669   2.844   3.147
 1112HOH    HW1 3471   2.590   2.809   3.105
 1112HOH    HW2 3472   2.693   2.778   3.212
 1113HOH    OW  3473   3.912   2.835   1.526
 1113HOH    HW1 3474   0.015   2.847   1.456
 1113HOH    HW2 3475   3.828   2.831   1.480
 1114HOH    OW  3476   3.958   2.978   0.437
 1114HOH    HW1 3477   0.043   2.895   0.426
 1114HOH    HW2 3478   3.953   3.016   0.349
 1115HOH    OW  3479   0.272   1.987   1.513
 1115HOH    HW1 3480   0.272   2.063   1.456
 1115HOH    HW2 3481   0.343   2.003   1.575
 1116HOH    OW  3482   3.521   1.810   1.400
 1116HOH    HW1 3483   3.482   1.777   1.319
 1116HOH    HW2 3484   3.557   1.896   1.376
 1117HOH    OW  3485   3.865   1.011   2.626
 1117HOH    HW1 3486   3.842   1.081   2.687
 1117HOH    HW2 3487   3.802   1.019   2.555
 1118HOH    OW  3488   3.617   1.324   1.451
 1118HOH    HW1 3489   3.540   1.296   1.501
 1118HOH    HW2 3490   3.660   1.389   1.506
 1119HOH    OW  3491   1.126   0.965   3.213
 1119HOH    HW1 3492   1.118   0.896   3.147
 1119HOH    HW2 3493   1.156   1.042   3.164
 1120HOH    OW  3494   1.884   2.166   1.105
 1120HOH    HW1 3495   1.789   2.159   1.109
 1120HOH    HW2 3496   1.903   2.171   1.011
 1121HOH    OW  3497   2.525   2.014   3.791
 1121HOH    HW1 3498   2.460   1.975   3.733
 1121HOH    HW2 3499   2.522   1.962   3.870
 1122HOH    OW  3500   2.548   0.297   0.551
 1122HOH    HW1 3501   2.543   0.252   0.467
 1122HOH    HW2 3502   2.585   0.232   0.611
 1123HOH    OW  3503   2.873   2.648   2.069
 1123HOH    HW1 3504   2.953   2.596   2.076
 1123HOH    HW2 3505   2.878   2.688   1.982
 1124HOH    OW  3506   0.201   1.719   3.261
 1124HOH    HW1 3507   0.194   1.696   3.354
 1124HOH    HW2 3508   0.257   1.650   3.224
 1125HOH    OW  3509   2.835   0.161   2.856
 1125HOH    HW1 3510   2.811   0.222   2.787
 1125HOH    HW2 3511   2.774   0.179   2.927
 1126HOH    OW  3512   3.530   2.495   1.579
 1126HOH    HW1 3513   3.537   2.560   1.649
 1126HOH    HW2 3514   3.621   2.475   1.557
 1127HOH    OW  3515   2.757   2.415   1.199
 1127HOH    HW1 3516   2.784   2.348   1.263
 1127HOH    HW2 3517   2.816   2.403   1.125
 1128HOH    OW  3518   1.116   2.680   1.844
 1128HOH    HW1 3519   1.030   2.666   1.804
 1128HOH    HW2 3520   1.149   2.760   1.803
 1129HOH    OW  3521   3.374   0.937   3.207
 1129HOH    HW1 3522   3.450   0.879   3.203
 1129HOH    HW2 3523   3.302   0.881   3.238
 1130HOH    OW  3524   0.129   1.659   1.411
 1130HOH    HW1 3525   0.183   1.692   1.339
 1130HOH    HW2 3526   0.192   1.632   1.477
 1131HOH    OW  3527   2.600   0.613   0.228
 1131HOH    HW1 3528   2.560   0.547   0.284
 1131HOH    HW2 3529   2.681   0.573   0.197
 1132HOH    OW  3530   2.051   1.357   1.285
 1132HOH    HW1 3531   2.070   1.424   1.219
 1132HOH    HW2 3532   2.022   1.281   1.233
 1133HOH    OW  3533   3.276   3.899   1.003
 1133HOH    HW1 3534   3.294   3.948   0.922
 1133HOH    HW2 3535   3.362   3.892   1.046
 1134HOH    OW  3536   2.568   2.974   0.861
 1134HOH    HW1 3537   2.515   2.956   0.938
 1134HOH    HW2 3538   2.596   3.065   0.871
 1135HOH    OW  3539   1.783   2.872   2.216
 1135HOH    HW1 3540   1.731   2.883   2.136
 1135HOH    HW2 3541   1.852   2.810   2.191
 1136HOH    OW  3542   1.894   1.311   2.142
 1136HOH    HW1 3543   1.989   1.317   2.132
 1136HOH    HW2 3544   1.866   1.251   2.072
 1137HOH    OW  3545   0.961   2.599   2.063
 1137HOH    HW1 3546   1.023   2.585   1.991
 1137HOH    HW2 3547   0.973   2.523   2.119
 1138HOH    OW  3548   3.814   0.205   1.342
 1138HOH    HW1 3549   3.862   0.148   1.283
 1138HOH    HW2 3550   3.797   0.284   1.291
 1139HOH    OW  3551   2.890   1.349   3.669
 1139HOH    HW1 3552   2.809   1.301   3.682
 1139HOH    HW2 3553   2.863   1.440   3.657
 1140HOH    OW  3554   1.290   3.933   2.686
 1140HOH    HW1 3555   1.343   0.009   2.756
 1140HOH    HW2 3556   1.260   3.849   2.719
 1141HOH    OW  3557   1.422   1.757   3.113
 1141HOH    HW1 3558   1.366   1.814   3.166
 1141HOH    HW2 3559   1.460   1.815   3.047
 1142HOH    OW  3560   1.668   1.459   1.460
 1142HOH    HW1 3561   1.757   1.440   1.428
 1142HOH    HW2 3562   1.681   1.508   1.540
 1143HOH    OW  3563   1.845   3.548   3.516
 1143HOH    HW1 3564   1.926   3.509   3.483
 1143HOH    HW2 3565   1.821   3.614   3.451
 1144HOH    OW  3566   1.283   2.653   2.361
 1144HOH    HW1 3567   1.198   2.614   2.383
 1144HOH    HW2 3568   1.295   2.721   2.428
 1145HOH    OW  3569   0.036   0.056   1.187
 1145HOH    HW1 3570   0.007   3.928   1.206
 1145HOH    HW2 3571   0.120   0.064   1.233
 1146HOH    OW  3572   0.328   0.901   3.214
 1146HOH    HW1 3573   0.288   0.980   3.249
 1146HOH    HW2 3574   0.264   0.868   3.150
 1147HOH    OW  3575   0.156   3.658   3.171
 1147HOH    HW1 3576   0.082   3.656   3.110
 1147HOH    HW2 3577   0.120   3.623   3.253
 1148HOH    OW  3578   2.433   1.469   3.764
 1148HOH    HW1 3579   2.526   1.472   3.783
 1148HOH    HW2 3580   2.422   1.527   3.688
 1149HOH    OW  3581   2.009   3.123   1.827
 1149HOH    HW1 3582   2.078   3.188   1.812
 1149HOH    HW2 3583   1.927   3.171   1.814
 1150HOH    OW  3584   2.257   1.680   1.601
 1150HOH    HW1 3585   2.300   1.731   1.532
 1150HOH    HW2 3586   2.324   1.618   1.630
 1151HOH    OW  3587   0.026   1.309   2.098
 1151HOH    HW1 3588   0.036   1.402   2.078
 1151HOH    HW2 3589   3.924   1.278   2.033
 1152HOH    OW  3590   2.830   2.875   0.551
 1152HOH    HW1 3591   2.867   2.802   0.602
 1152HOH    HW2 3592   2.805   2.835   0.468
 1153HOH    OW  3593   1.889   2.877   0.648
 1153HOH    HW1 3594   1.965   2.934   0.637
 1153HOH    HW2 3595   1.906   2.828   0.728
 1154HOH    OW  3596   2.146   3.164   0.277
 1154HOH    HW1 3597   2.226   3.112   0.285
 1154HOH    HW2 3598   2.171   3.251   0.305
 1155HOH    OW  3599   3.032   3.536   2.204
 1155HOH    HW1 3600   3.103   3.547   2.141
 1155HOH    HW2 3601   3.014   3.625   2.234
 1156HOH    OW  3602   0.412   1.702   0.183
 1156HOH    HW1 3603   0.325   1.741   0.185
 1156HOH    HW2 3604   0.397   1.608   0.198
 1157HOH    OW  3605   0.277   2.734   1.070
 1157HOH    HW1 3606   0.321   2.806   1.024
 1157HOH    HW2 3607   0.345   2.668   1.082
 1158HOH    OW  3608   2.027   3.861   2.647
 1158HOH    HW1 3609   2.001   3.852   2.555
 1158HOH    HW2 3610   2.109   3.812   2.654
 1159HOH    OW  3611   2.136   1.734   2.055
 1159HOH    HW1 3612   2.144   1.745   1.960
 1159HOH    HW2 3613   2.227   1.728   2.085
 1160HOH    OW  3614   2.656   0.445   3.927
 1160HOH    HW1 3615   2.647   0.526   3.878
 1160HOH    HW2 3616   2.750   0.429   3.931
 1161HOH    OW  3617   1.683   1.615   1.682
 1161HOH    HW1 3618   1.738   1.635   1.758
 1161HOH    HW2 3619   1.594   1.614   1.716
 1162HOH    OW  3620   3.229   0.805   3.565
 1162HOH    HW1 3621   3.259   0.896   3.565
 1162HOH    HW2 3622   3.174   0.798   3.642
 1163HOH    OW  3623   2.547   0.631   2.470
 1163HOH    HW1 3624   2.532   0.634   2.565
 1163HOH    HW2 3625   2.600   0.553   2.456
 1164HOH    OW  3626   2.528   2.761   3.535
 1164HOH    HW1 3627   2.608   2.755   3.483
 1164HOH    HW2 3628   2.511   2.855   3.540
 1165HOH    OW  3629   1.545   1.683   3.613
 1165HOH    HW1 3630   1.548   1.634   3.530
 1165HOH    HW2 3631   1.502   1.624   3.674
 1166HOH    OW  3632   2.298   0.646   2.622
 1166HOH    HW1 3633   2.346   0.630   2.703
 1166HOH    HW2 3634   2.365   0.643   2.554
 1167HOH    OW  3635   3.555   0.427   3.132
 1167HOH    HW1 3636   3.616   0.497   3.110
 1167HOH    HW2 3637   3.597   0.380   3.204
 1168HOH    OW  3638   2.180   2.422   1.400
 1168HOH    HW1 3639   2.270   2.456   1.401
 1168HOH    HW2 3640   2.131   2.488   1.351
 1169HOH    OW  3641   2.306   1.157   2.589
 1169HOH    HW1 3642   2.211   1.155   2.602
 1169HOH    HW2 3643   2.334   1.238   2.631
 1170HOH    OW  3644   2.654   1.386   0.057
 1170HOH    HW1 3645   2.735   1.400   0.106
 1170HOH    HW2 3646   2.585   1.415   0.116
 1171HOH    OW  3647   3.816   0.762   2.211
 1171HOH    HW1 3648   3.795   0.851   2.184
 1171HOH    HW2 3649   3.882   0.733   2.148
 1172HOH    OW  3650   3.678   1.431   3.458
 1172HOH    HW1 3651   3.648   1.516   3.428
 1172HOH    HW2 3652   3.773   1.435   3.452
 1173HOH    OW  3653   1.136   2.896   3.556
 1173HOH    HW1 3654   1.125   2.964   3.490
 1173HOH    HW2 3655   1.052   2.850   3.558
 1174HOH    OW  3656   3.926   2.902   3.328
 1174HOH    HW1 3657   3.886   2.836   3.384
 1174HOH    HW2 3658   0.030   2.855   3.276
 1175HOH    OW  3659   3.518   2.741   3.773
 1175HOH    HW1 3660   3.431   2.712   3.801
 1175HOH    HW2 3661   3.509   2.755   3.679
 1176HOH    OW  3662   0.309   3.341   1.231
 1176HOH    HW1 3663   0.218   3.355   1.202
 1176HOH    HW2 3664   0.322   3.405   1.301
 1177HOH    OW  3665   0.958   2.981   0.157
 1177HOH    HW1 3666   0.969   3.031   0.238
 1177HOH    HW2 3667   1.034   3.004   0.104
 1178HOH    OW  3668   3.185   0.747   3.300
 1178HOH    HW1 3669   3.185   0.751   3.395
 1178HOH    HW2 3670   3.207   0.656   3.280
 1179HOH    OW  3671   0.317   3.456   2.636
 1179HOH    HW1 3672   0.342   3.495   2.720
 1179HOH    HW2 3673   0.282   3.370   2.659
 1180HOH    OW  3674   2.400   3.481   3.108
 1180HOH    HW1 3675   2.476   3.474   3.051
 1180HOH    HW2 3676   2.355   3.560   3.077
 1181HOH    OW  3677   2.454   0.022   3.036
 1181HOH    HW1 3678   2.476   0.070   3.116
 1181HOH    HW2 3679   2.433   3.895   3.065
 1182HOH    OW  3680   2.979   3.823   1.822
 1182HOH    HW1 3681   2.932   3.741   1.834
 1182HOH    HW2 3682   3.042   3.826   1.894
 1183HOH    OW  3683   1.640   2.521   0.114
 1183HOH    HW1 3684   1.573   2.545   0.050
 1183HOH    HW2 3685   1.721   2.558   0.079
 1184HOH    OW  3686   2.831   0.015   2.496
 1184HOH    HW1 3687   2.782   3.909   2.544
 1184HOH    HW2 3688   2.767   0.053   2.436
 1185HOH    OW  3689   1.707   2.002   1.704
 1185HOH    HW1 3690   1.667   1.948   1.773
 1185HOH    HW2 3691   1.711   2.089   1.742
 1186HOH    OW  3692   1.781   0.274   2.583
 1186HOH    HW1 3693   1.771   0.204   2.519
 1186HOH    HW2 3694   1.840   0.337   2.540
 1187HOH    OW  3695   3.829   1.883   3.275
 1187HOH    HW1 3696   3.772   1.851   3.344
 1187HOH    HW2 3697   3.813   1.977   3.271
 1188HOH    OW  3698   1.058   3.445   2.055
 1188HOH    HW1 3699   0.976   3.409   2.090
 1188HOH    HW2 3700   1.105   3.476   2.133
 1189HOH    OW  3701   0.677   2.574   3.930
 1189HOH    HW1 3702   0.634   2.610   0.047
 1189HOH    HW2 3703   0.762   2.544   0.000
 1190HOH    OW  3704   0.377   3.654   2.114
 1190HOH    HW1 3705   0.424   3.577   2.082
 1190HOH    HW2 3706   0.397   3.657   2.208
 1191HOH    OW  3707   3.569   1.556   0.196
 1191HOH    HW1 3708   3.500   1.620   0.217
 1191HOH    HW2 3709   3.641   1.580   0.255
 1192HOH    OW  3710   2.146   1.008   3.609
 1192HOH    HW1 3711   2.096   1.073   3.559
 1192HOH    HW2 3712   2.226   1.055   3.635
 1193HOH    OW  3713   0.778   2.539   0.345
 1193HOH    HW1 3714   0.860   2.574   0.379
 1193HOH    HW2 3715   0.799   2.451   0.315
 1194HOH    OW  3716   2.095   3.793   1.324
 1194HOH    HW1 3717   2.147   3.873   1.330
 1194HOH    HW2 3718   2.126   3.750   1.245
 1195HOH    OW  3719   2.736   0.422   2.074
 1195HOH    HW1 3720   2.686   0.349   2.111
 1195HOH    HW2 3721   2.761   0.475   2.150
 1196HOH    OW  3722   2.669   2.244   0.861
 1196HOH    HW1 3723   2.674   2.323   0.808
 1196HOH    HW2 3724   2.676   2.172   0.798
 1197HOH    OW  3725   3.530   2.383   3.720
 1197HOH    HW1 3726   3.466   2.426   3.778
 1197HOH    HW2 3727   3.487   2.382   3.634
 1198HOH    OW  3728   0.674   0.213   3.496
 1198HOH    HW1 3729   0.700   0.185   3.408
 1198HOH    HW2 3730   0.584   0.245   3.485
 1199HOH    OW  3731   1.073   2.448   2.968
 1199HOH    HW1 3732   1.137   2.496   2.916
 1199HOH    HW2 3733   1.113   2.441   3.055
 1200HOH    OW  3734   1.583   2.352   1.326
 1200HOH    HW1 3735   1.628   2.290   1.383
 1200HOH    HW2 3736   1.512   2.302   1.286
 1201HOH    OW  3737   1.847   1.248   3.228
 1201HOH    HW1 3738   1.933   1.212   3.206
 1201HOH    HW2 3739   1.857   1.343   3.221
 1202HOH    OW  3740   0.544   1.248   2.055
 1202HOH    HW1 3741   0.571   1.176   1.998
 1202HOH    HW2 3742   0.452   1.261   2.034
 1203HOH    OW  3743   3.245   0.395   3.493
 1203HOH    HW1 3744   3.224   0.330   3.560
 1203HOH    HW2 3745   3.338   0.413   3.505
 1204HOH    OW  3746   2.997   3.127   1.490
 1204HOH    HW1 3747   3.065   3.194   1.500
 1204HOH    HW2 3748   2.957   3.120   1.576
 1205HOH    OW  3749   1.037   3.764   0.823
 1205HOH    HW1 3750   0.982   3.793   0.750
 1205HOH    HW2 3751   1.065   3.675   0.798
 1206HOH    OW  3752   1.954   0.465   3.141
 1206HOH    HW1 3753   1.952   0.384   3.192
 1206HOH    HW2 3754   1.867   0.503   3.152
 1207HOH    OW  3755   2.495   2.419   1.404
 1207HOH    HW1 3756   2.570   2.417   1.345
 1207HOH    HW2 3757   2.529   2.455   1.485
 1208HOH    OW  3758   2.107   0.496   0.733
 1208HOH    HW1 3759   2.054   0.510   0.654
 1208HOH    HW2 3760   2.175   0.435   0.706
 1209HOH    OW  3761   1.710   0.206   0.375
 1209HOH    HW1 3762   1.670   0.181   0.292
 1209HOH    HW2 3763   1.786   0.258   0.351
 1210HOH    OW  3764   0.867   2.762   1.723
 1210HOH    HW1 3765   0.845   2.824   1.654
 1210HOH    HW2 3766   0.818   2.792   1.799
 1211HOH    OW  3767   1.992   1.387   0.891
 1211HOH    HW1 3768   2.034   1.460   0.845
 1211HOH    HW2 3769   1.905   1.420   0.914
 1212HOH    OW  3770   3.276   1.767   2.768
 1212HOH    HW1 3771   3.180   1.760   2.764
 1212HOH    HW2 3772   3.305   1.750   2.678
 1213HOH    OW  3773   1.732   1.857   0.093
 1213HOH    HW1 3774   1.820   1.879   0.121
 1213HOH    HW2 3775   1.675   1.913   0.145
 1214HOH    OW  3776   2.354   0.002   0.530
 1214HOH    HW1 3777   2.377   3.873   0.552
 1214HOH    HW2 3778   2.280   0.023   0.586
 1215HOH    OW  3779   2.514   1.057   3.798
 1215HOH    HW1 3780   2.571   1.017   3.733
 1215HOH    HW2 3781   2.549   1.027   3.882
 1216HOH    OW  3782   3.934   2.459   3.047
 1216HOH    HW1 3783   3.937   2.434   3.139
 1216HOH    HW2 3784   3.943   2.376   2.999
 1217HOH    OW  3785   1.913   0.959   1.525
 1217HOH    HW1 3786   1.825   0.964   1.564
 1217HOH    HW2 3787   1.913   1.027   1.458
 1218HOH    OW  3788   3.452   2.438   0.774
 1218HOH    HW1 3789   3.485   2.373   0.713
 1218HOH    HW2 3790   3.368   2.465   0.738
 1219HOH    OW  3791   0.571   3.415   1.496
 1219HOH    HW1 3792   0.641   3.402   1.560
 1219HOH    HW2 3793   0.523   3.492   1.528
 1220HOH    OW  3794   0.968   3.082   1.752
 1220HOH    HW1 3795   0.985   3.043   1.667
 1220HOH    HW2 3796   1.001   3.171   1.745
 1221HOH    OW  3797   0.768   3.952   3.117
 1221HOH    HW1 3798   0.787   3.877   3.060
 1221HOH    HW2 3799   0.698   3.921   3.174
 1222HOH    OW  3800   3.754   0.293   3.273
 1222HOH    HW1 3801   3.729   0.220   3.216
 1222HOH    HW2 3802   3.785   0.361   3.213
 1223HOH    OW  3803   3.181   1.147   2.397
 1223HOH    HW1 3804   3.226   1.084   2.453
 1223HOH    HW2 3805   3.200   1.119   2.308
 1224HOH    OW  3806   0.176   1.611   1.101
 1224HOH    HW1 3807   0.259   1.631   1.056
 1224HOH    HW2 3808   0.110   1.657   1.049
 1225HOH    OW  3809   1.142   2.919   3.115
 1225HOH    HW1 3810   1.190   2.965   3.184
 1225HOH    HW2 3811   1.050   2.941   3.131
 1226HOH    OW  3812   1.590   3.425   3.294
 1226HOH    HW1 3813   1.645   3.485   3.244
 1226HOH    HW2 3814   1.645   3.397   3.367
 1227HOH    OW  3815   1.912   0.511   0.546
 1227HOH    HW1 3816   1.819   0.496   0.561
 1227HOH    HW2 3817   1.923   0.501   0.451
 1228HOH    OW  3818   0.793   3.388   0.165
 1228HOH    HW1 3819   0.848   3.417   0.092
 1228HOH    HW2 3820   0.775   3.296   0.146
 1229HOH    OW  3821   2.574   2.095   0.404
 1229HOH    HW1 3822   2.485   2.073   0.432
 1229HOH    HW2 3823   2.625   2.096   0.485
 1230HOH    OW  3824   1.031   2.334   3.731
 1230HOH    HW1 3825   1.112   2.305   3.771
 1230HOH    HW2 3826   1.007   2.413   3.780
 1231HOH    OW  3827   0.763   1.493   1.604
 1231HOH    HW1 3828   0.753   1.493   1.699
 1231HOH    HW2 3829   0.748   1.402   1.579
 1232HOH    OW  3830   0.235   0.406   3.220
 1232HOH    HW1 3831   0.325   0.433   3.207
 1232HOH    HW2 3832   0.185   0.488   3.222
 1233HOH    OW  3833   1.554   3.647   0.225
 1233HOH    HW1 3834   1.627   3.614   0.278
 1233HOH    HW2 3835   1.596   3.696   0.155
 1234HOH    OW  3836   3.892   2.313   3.620
 1234HOH    HW1 3837   3.950   2.378   3.662
 1234HOH    HW2 3838   3.906   2.233   3.670
 1235HOH    OW  3839   3.010   1.850   3.563
 1235HOH    HW1 3840   2.988   1.901   3.641
 1235HOH    HW2 3841   2.926   1.834   3.520
 1236HOH    OW  3842   0.584   2.119   0.400
 1236HOH    HW1 3843   0.624   2.077   0.324
 1236HOH    HW2 3844   0.601   2.213   0.388
 1237HOH    OW  3845   3.060   2.139   1.626
 1237HOH    HW1 3846   3.113   2.079   1.680
 1237HOH    HW2 3847   3.105   2.223   1.634
 1238HOH    OW  3848   0.900   1.475   3.884
 1238HOH    HW1 3849   0.856   1.500   0.004
 1238HOH    HW2 3850   0.830   1.473   3.819
 1239HOH    OW  3851   3.324   2.385   2.962
 1239HOH    HW1 3852   3.284   2.453   3.017
 1239HOH    HW2 3853   3.343   2.429   2.879
 1240HOH    OW  3854   2.323   1.934   1.865
 1240HOH    HW1 3855   2.350   1.975   1.783
 1240HOH    HW2 3856   2.341   1.841   1.853
 1241HOH    OW  3857   1.702   0.568   3.027
 1241HOH    HW1 3858   1.638   0.623   3.071
 1241HOH    HW2 3859   1.750   0.628   2.969
 1242HOH    OW  3860   1.617   0.425   0.563
 1242HOH    HW1 3861   1.655   0.353   0.513
 1242HOH    HW2 3862   1.552   0.464   0.504
 1243HOH    OW  3863   2.679   1.381   0.592
 1243HOH    HW1 3864   2.772   1.393   0.575
 1243HOH    HW2 3865   2.673   1.365   0.686
 1244HOH    OW  3866   0.902   2.710   3.086
 1244HOH    HW1 3867   0.893   2.615   3.086
 1244HOH    HW2 3868   0.945   2.730   3.169
 1245HOH    OW  3869   0.504   3.178   1.149
 1245HOH    HW1 3870   0.580   3.225   1.183
 1245HOH    HW2 3871   0.429   3.234   1.171
 1246HOH    OW  3872   3.444   1.700   1.150
 1246HOH    HW1 3873   3.413   1.771   1.094
 1246HOH    HW2 3874   3.526   1.672   1.110
 1247HOH    OW  3875   2.097   0.304   2.661
 1247HOH    HW1 3876   2.035   0.377   2.661
 1247HOH    HW2 3877   2.095   0.272   2.752
 1248HOH    OW  3878   3.231   3.240   3.250
 1248HOH    HW1 3879   3.255   3.239   3.157
 1248HOH    HW2 3880   3.174   3.316   3.260
 1249HOH    OW  3881   3.719   0.659   3.933
 1249HOH    HW1 3882   3.696   0.665   0.065
 1249HOH    HW2 3883   3.684   0.575   3.905
 1250HOH    OW  3884   2.335   2.811   0.485
 1250HOH    HW1 3885   2.380   2.782   0.564
 1250HOH    HW2 3886   2.285   2.735   0.457
 1251HOH    OW  3887   1.759   3.348   1.271
 1251HOH    HW1 3888   1.812   3.351   1.351
 1251HOH    HW2 3889   1.799   3.413   1.213
 1252HOH    OW  3890   3.698   1.724   0.550
 1252HOH    HW1 3891   3.608   1.695   0.566
 1252HOH    HW2 3892   3.702   1.740   0.456
 1253HOH    OW  3893   3.355   2.506   3.868
 1253HOH    HW1 3894   3.394   2.479   3.951
 1253HOH    HW2 3895   3.302   2.583   3.890
 1254HOH    OW  3896   0.012   2.644   0.678
 1254HOH    HW1 3897   0.032   2.595   0.598
 1254HOH    HW2 3898   0.096   2.680   0.706
 1255HOH    OW  3899   3.885   3.235   2.802
 1255HOH    HW1 3900   3.871   3.167   2.869
 1255HOH    HW2 3901   3.875   3.188   2.719
 1256HOH    OW  3902   3.401   1.464   1.863
 1256HOH    HW1 3903   3.353   1.407   1.923
 1256HOH    HW2 3904   3.357   1.549   1.871
 1257HOH    OW  3905   1.725   1.240   0.331
 1257HOH    HW1 3906   1.669   1.236   0.254
 1257HOH    HW2 3907   1.809   1.207   0.302
 1258HOH    OW  3908   0.488   0.197   1.505
 1258HOH    HW1 3909   0.551   0.126   1.525
 1258HOH    HW2 3910   0.532   0.276   1.535
 1259HOH    OW  3911   2.561   2.890   2.758
 1259HOH    HW1 3912   2.571   2.798   2.734
 1259HOH    HW2 3913   2.586   2.939   2.680
 1260HOH    OW  3914   2.609   1.884   2.456
 1260HOH    HW1 3915   2.612   1.919   2.545
 1260HOH    HW2 3916   2.692   1.911   2.417
 1261HOH    OW  3917   1.918   0.451   2.400
 1261HOH    HW1 3918   1.950   0.408   2.321
 1261HOH    HW2 3919   1.846   0.507   2.369
 1262HOH    OW  3920   2.833   1.578   0.847
 1262HOH    HW1 3921   2.867   1.504   0.898
 1262HOH    HW2 3922   2.871   1.566   0.760
 1263HOH    OW  3923   3.232   3.199   0.937
 1263HOH    HW1 3924   3.144   3.165   0.920
 1263HOH    HW2 3925   3.217   3.285   0.977
 1264HOH    OW  3926   2.582   0.715   2.788
 1264HOH    HW1 3927   2.565   0.809   2.789
 1264HOH    HW2 3928   2.675   0.707   2.807
 1265HOH    OW  3929   2.861   1.488   2.409
 1265HOH    HW1 3930   2.943   1.440   2.403
 1265HOH    HW2 3931   2.877   1.568   2.359
 1266HOH    OW  3932   1.169   1.894   0.731
 1266HOH    HW1 3933   1.221   1.819   0.703
 1266HOH    HW2 3934   1.114   1.860   0.802
 1267HOH    OW  3935   2.530   1.421   2.110
 1267HOH    HW1 3936   2.513   1.495   2.168
 1267HOH    HW2 3937   2.463   1.356   2.134
 1268HOH    OW  3938   1.348   1.618   3.807
 1268HOH    HW1 3939   1.291   1.594   3.881
 1268HOH    HW2 3940   1.398   1.693   3.838
 1269HOH    OW  3941   1.093   3.762   1.493
 1269HOH    HW1 3942   1.146   3.687   1.519
 1269HOH    HW2 3943   1.144   3.807   1.427
 1270HOH    OW  3944   1.597   1.146   3.268
 1270HOH    HW1 3945   1.578   1.198   3.346
 1270HOH    HW2 3946   1.680   1.180   3.236
 1271HOH    OW  3947   0.943   0.554   3.656
 1271HOH    HW1 3948   0.993   0.531   3.577
 1271HOH    HW2 3949   0.978   0.494   3.723
 1272HOH    OW  3950   3.791   3.485   2.822
 1272HOH    HW1 3951   3.802   3.390   2.811
 1272HOH    HW2 3952   3.733   3.511   2.751
 1273HOH    OW  3953   3.462   0.801   1.279
 1273HOH    HW1 3954   3.543   0.850   1.297
 1273HOH    HW2 3955   3.472   0.771   1.188
 1274HOH    OW  3956   3.886   3.818   0.868
 1274HOH    HW1 3957   3.903   3.899   0.916
 1274HOH    HW2 3958   3.956   3.758   0.896
 1275HOH    OW  3959   1.806   1.179   2.349
 1275HOH    HW1 3960   1.713   1.176   2.329
 1275HOH    HW2 3961   1.847   1.218   2.272
 1276HOH    OW  3962   3.148   1.734   1.961
 1276HOH    HW1 3963   3.148   1.801   2.030
 1276HOH    HW2 3964   3.136   1.652   2.007
 1277HOH    OW  3965   0.180   2.031   3.087
 1277HOH    HW1 3966   0.168   2.019   3.181
 1277HOH    HW2 3967   0.137   1.956   3.047
 1278HOH    OW  3968   1.515   0.385   3.445
 1278HOH    HW1 3969   1.594   0.357   3.397
 1278HOH    HW2 3970   1.479   0.303   3.480
 1279HOH    OW  3971   2.252   3.931   0.007
 1279HOH    HW1 3972   2.247   3.840   0.036
 1279HOH    HW2 3973   2.311   0.012   0.070
 1280HOH    OW  3974   3.951   1.639   0.437
 1280HOH    HW1 3975   3.877   1.664   0.493
 1280HOH    HW2 3976   0.004   1.547   0.455
 1281HOH    OW  3977   2.309   1.211   1.955
 1281HOH    HW1 3978   2.280   1.296   1.923
 1281HOH    HW2 3979   2.298   1.152   1.880
 1282HOH    OW  3980   1.074   2.497   2.444
 1282HOH    HW1 3981   1.082   2.540   2.529
 1282HOH    HW2 3982   1.017   2.422   2.460
 1283HOH    OW  3983   3.463   0.723   2.509
 1283HOH    HW1 3984   3.493   0.713   2.419
 1283HOH    HW2 3985   3.542   0.713   2.563
 1284HOH    OW  3986   0.772   3.959   2.236
 1284HOH    HW1 3987   0.865   0.014   2.248
 1284HOH    HW2 3988   0.747   3.905   2.311
 1285HOH    OW  3989   0.849   3.626   2.279
 1285HOH    HW1 3990   0.878   3.659   2.194
 1285HOH    HW2 3991   0.921   3.571   2.309
 1286HOH    OW  3992   1.589   1.306   3.509
 1286HOH    HW1 3993   1.560   1.310   3.599
 1286HOH    HW2 3994   1.676   1.265   3.513
 1287HOH    OW  3995   0.237   2.860   2.915
 1287HOH    HW1 3996   0.229   2.774   2.874
 1287HOH    HW2 3997   0.264   2.918   2.844
 1288HOH    OW  3998   3.431   3.764   2.117
 1288HOH    HW1 3999   3.495   3.697   2.142
 1288HOH    HW2 4000   3.483   3.829   2.070
 1289HOH    OW  4001   2.946   2.548   3.739
 1289HOH    HW1 4002   3.013   2.590   3.793
 1289HOH    HW2 4003   2.994   2.477   3.694
 1290HOH    OW  4004   1.701   1.870   1.443
 1290HOH    HW1 4005   1.607   1.855   1.438
 1290HOH    HW2 4006   1.718   1.889   1.535
 1291HOH    OW  4007   1.023   0.576   3.376
 1291HOH    HW1 4008   0.991   0.665   3.387
 1291HOH    HW2 4009   1.118   0.583   3.378
 1292HOH    OW  4010   2.928   2.450   1.753
 1292HOH    HW1 4011   2.992   2.463   1.822
 1292HOH    HW2 4012   2.930   2.355   1.735
 1293HOH    OW  4013   3.172   3.285   1.611
 1293HOH    HW1 4014   3.201   3.287   1.702
 1293HOH    HW2 4015   3.247   3.253   1.562
 1294HOH    OW  4016   0.290   1.369   0.914
 1294HOH    HW1 4017   0.261   1.384   1.005
 1294HOH    HW2 4018   0.372   1.321   0.922
 1295HOH    OW  4019   3.136   0.191   2.977
 1295HOH    HW1 4020   3.120   0.176   2.884
 1295HOH    HW2 4021   3.077   0.129   3.022
 1296HOH    OW  4022   1.748   0.306   2.215
 1296HOH    HW1 4023   1.767   0.218   2.182
 1296HOH    HW2 4024   1.743   0.295   2.310
 1297HOH    OW  4025   2.047   1.796   1.734
 1297HOH    HW1 4026   2.050   1.886   1.700
 1297HOH    HW2 4027   2.119   1.751   1.689
 1298HOH    OW  4028   2.727   3.310   2.797
 1298HOH    HW1 4029   2.769   3.291   2.713
 1298HOH    HW2 4030   2.711   3.224   2.836
 1299HOH    OW  4031   0.343   3.574   2.876
 1299HOH    HW1 4032   0.256   3.608   2.893
 1299HOH    HW2 4033   0.397   3.609   2.947
 1300HOH    OW  4034   1.277   3.747   1.198
 1300HOH    HW1 4035   1.313   3.821   1.248
 1300HOH    HW2 4036   1.303   3.765   1.108
 1301HOH    OW  4037   2.974   3.471   0.922
 1301HOH    HW1 4038   2.998   3.456   1.013
 1301HOH    HW2 4039   2.957   3.384   0.886
 1302HOH    OW  4040   2.252   2.064   3.332
 1302HOH    HW1 4041   2.234   2.092   3.242
 1302HOH    HW2 4042   2.326   2.005   3.324
 1303HOH    OW  4043   1.096   1.157   3.020
 1303HOH    HW1 4044   1.160   1.220   2.988
 1303HOH    HW2 4045   1.022   1.211   3.049
 1304HOH    OW  4046   0.084   1.288   1.134
 1304HOH    HW1 4047   0.074   1.309   1.227
 1304HOH    HW2 4048   0.028   1.352   1.090
 1305HOH    OW  4049   3.933   0.922   1.253
 1305HOH    HW1 4050   0.056   0.949   1.288
 1305HOH    HW2 4051   3.871   0.989   1.282
 1306HOH    OW  4052   0.966   1.619   1.886
 1306HOH    HW1 4053   1.054   1.650   1.864
 1306HOH    HW2 4054   0.978   1.526   1.907
 1307HOH    OW  4055   3.113   1.133   1.810
 1307HOH    HW1 4056   3.130   1.043   1.781
 1307HOH    HW2 4057   3.019   1.144   1.799
 1308HOH    OW  4058   3.833   1.212   3.880
 1308HOH    HW1 4059   3.867   1.143   3.823
 1308HOH    HW2 4060   3.912   1.251   3.919
 1309HOH    OW  4061   2.494   2.433   0.081
 1309HOH    HW1 4062   2.401   2.420   0.102
 1309HOH    HW2 4063   2.530   2.345   0.075
 1310HOH    OW  4064   1.151   0.566   2.459
 1310HOH    HW1 4065   1.156   0.624   2.383
 1310HOH    HW2 4066   1.092   0.610   2.520
 1311HOH    OW  4067   2.394   3.179   1.738
 1311HOH    HW1 4068   2.377   3.258   1.688
 1311HOH    HW2 4069   2.464   3.204   1.799
 1312HOH    OW  4070   2.272   3.806   1.820
 1312HOH    HW1 4071   2.338   3.872   1.797
 1312HOH    HW2 4072   2.252   3.822   1.912
 1313HOH    OW  4073   2.727   2.405   3.100
 1313HOH    HW1 4074   2.808   2.454   3.083
 1313HOH    HW2 4075   2.756   2.325   3.144
 1314HOH    OW  4076   3.407   1.863   1.655
 1314HOH    HW1 4077   3.477   1.841   1.593
 1314HOH    HW2 4078   3.335   1.803   1.632
 1315HOH    OW  4079   3.816   2.210   1.081
 1315HOH    HW1 4080   3.820   2.281   1.146
 1315HOH    HW2 4081   3.757   2.244   1.013
 1316HOH    OW  4082   1.093   2.756   2.892
 1316HOH    HW1 4083   1.187   2.766   2.906
 1316HOH    HW2 4084   1.056   2.751   2.980
 1317HOH    OW  4085   2.316   3.054   3.358
 1317HOH    HW1 4086   2.303   3.130   3.414
 1317HOH    HW2 4087   2.401   3.020   3.384
 1318HOH    OW  4088   3.430   3.560   2.915
 1318HOH    HW1 4089   3.409   3.502   2.842
 1318HOH    HW2 4090   3.382   3.641   2.897
 1319HOH    OW  4091   2.891   0.853   2.448
 1319HOH    HW1 4092   2.928   0.837   2.361
 1319HOH    HW2 4093   2.889   0.949   2.455
 1320HOH    OW  4094   2.880   0.807   3.941
 1320HOH    HW1 4095   2.790   0.788   3.913
 1320HOH    HW2 4096   2.869   0.850   0.065
 1321HOH    OW  4097   2.237   1.560   0.296
 1321HOH    HW1 4098   2.284   1.512   0.228
 1321HOH    HW2 4099   2.306   1.609   0.342
 1322HOH    OW  4100   2.956   1.363   0.996
 1322HOH    HW1 4101   2.994   1.360   1.083
 1322HOH    HW2 4102   2.868   1.327   1.006
 1323HOH    OW  4103   0.858   0.923   0.092
 1323HOH    HW1 4104   0.859   1.015   0.063
 1323HOH    HW2 4105   0.772   0.912   0.133
 1324HOH    OW  4106   2.920   1.202   2.788
 1324HOH    HW1 4107   2.973   1.282   2.790
 1324HOH    HW2 4108   2.972   1.138   2.836
 1325HOH    OW  4109   1.455   0.994   1.771
 1325HOH    HW1 4110   1.410   0.913   1.794
 1325HOH    HW2 4111   1.409   1.062   1.820
 1326HOH    OW  4112   0.181   0.122   2.416
 1326HOH    HW1 4113   0.221   0.086   2.337
 1326HOH    HW2 4114   0.254   0.129   2.479
 1327HOH    OW  4115   3.594   3.152   1.299
 1327HOH    HW1 4116   3.560   3.222   1.243
 1327HOH    HW2 4117   3.666   3.193   1.347
 1328HOH    OW  4118   1.429   2.109   1.907
 1328HOH    HW1 4119   1.476   2.188   1.934
 1328HOH    HW2 4120   1.337   2.129   1.925
 1329HOH    OW  4121   2.910   2.476   2.516
 1329HOH    HW1 4122   2.846   2.533   2.473
 1329HOH    HW2 4123   2.858   2.401   2.547
 1330HOH    OW  4124   3.684   2.400   0.945
 1330HOH    HW1 4125   3.595   2.421   0.916
 1330HOH    HW2 4126   3.736   2.475   0.916
 1331HOH    OW  4127   0.560   2.912   2.435
 1331HOH    HW1 4128   0.501   2.943   2.503
 1331HOH    HW2 4129   0.646   2.943   2.461
 1332HOH    OW  4130   0.620   0.609   1.848
 1332HOH    HW1 4131   0.533   0.600   1.809
 1332HOH    HW2 4132   0.680   0.575   1.782
 1333HOH    OW  4133   0.332   2.414   3.750
 1333HOH    HW1 4134   0.366   2.452   3.669
 1333HOH    HW2 4135   0.271   2.479   3.783
 1334HOH    OW  4136   3.730   0.801   3.541
 1334HOH    HW1 4137   3.793   0.867   3.512
 1334HOH    HW2 4138   3.697   0.835   3.624
 1335HOH    OW  4139   2.670   3.157   3.841
 1335HOH    HW1 4140   2.616   3.080   3.823
 1335HOH    HW2 4141   2.609   3.222   3.875
 1336HOH    OW  4142   0.418   0.556   3.589
 1336HOH    HW1 4143   0.396   0.624   3.525
 1336HOH    HW2 4144   0.510   0.535   3.570
 1337HOH    OW  4145   0.193   0.933   1.464
 1337HOH    HW1 4146   0.200   0.868   1.535
 1337HOH    HW2 4147   0.282   0.940   1.429
 1338HOH    OW  4148   3.168   2.616   0.667
 1338HOH    HW1 4149   3.164   2.556   0.593
 1338HOH    HW2 4150   3.194   2.562   0.741
 1339HOH    OW  4151   3.908   0.906   0.124
 1339HOH    HW1 4152   3.812   0.903   0.116
 1339HOH    HW2 4153   3.929   0.835   0.183
 1340HOH    OW  4154   1.246   2.394   1.652
 1340HOH    HW1 4155   1.336   2.366   1.665
 1340HOH    HW2 4156   1.240   2.414   1.559
 1341HOH    OW  4157   0.960   3.291   3.864
 1341HOH    HW1 4158   0.937   3.265   3.775
 1341HOH    HW2 4159   1.027   3.359   3.852
 1342HOH    OW  4160   2.640   1.555   3.398
 1342HOH    HW1 4161   2.723   1.527   3.359
 1342HOH    HW2 4162   2.600   1.473   3.428
 1343HOH    OW  4163   3.410   2.392   0.160
 1343HOH    HW1 4164   3.378   2.437   0.239
 1343HOH    HW2 4165   3.415   2.300   0.186
 1344HOH    OW  4166   0.233   1.282   2.301
 1344HOH    HW1 4167   0.254   1.356   2.357
 1344HOH    HW2 4168   0.169   1.231   2.350
 1345HOH    OW  4169   0.881   1.491   3.472
 1345HOH    HW1 4170   0.940   1.544   3.526
 1345HOH    HW2 4171   0.887   1.529   3.385
 1346HOH    OW  4172   2.035   2.277   2.692
 1346HOH    HW1 4173   2.104   2.212   2.702
 1346HOH    HW2 4174   1.984   2.247   2.616
 1347HOH    OW  4175   0.894   2.922   1.277
 1347HOH    HW1 4176   0.846   2.930   1.359
 1347HOH    HW2 4177   0.877   3.005   1.232
 1348HOH    OW  4178   2.831   0.415   0.590
 1348HOH    HW1 4179   2.754   0.438   0.538
 1348HOH    HW2 4180   2.837   0.484   0.656
 1349HOH    OW  4181   1.311   0.604   3.387
 1349HOH    HW1 4182   1.348   0.630   3.471
 1349HOH    HW2 4183   1.361   0.527   3.361
 1350HOH    OW  4184   0.764   2.926   1.504
 1350HOH    HW1 4185   0.684   2.975   1.523
 1350HOH    HW2 4186   0.733   2.845   1.464
 1351HOH    OW  4187   2.668   1.292   2.831
 1351HOH    HW1 4188   2.750   1.243   2.823
 1351HOH    HW2 4189   2.664   1.347   2.753
 1352HOH    OW  4190   0.453   3.772   3.818
 1352HOH    HW1 4191   0.483   3.733   3.901
 1352HOH    HW2 4192   0.442   3.865   3.838
 1353HOH    OW  4193   2.040   1.026   1.166
 1353HOH    HW1 4194   2.060   0.934   1.181
 1353HOH    HW2 4195   1.981   1.026   1.091
 1354HOH    OW  4196   0.839   3.146   1.146
 1354HOH    HW1 4197   0.922   3.191   1.133
 1354HOH    HW2 4198   0.789   3.205   1.203
 1355HOH    OW  4199   1.733   1.785   2.459
 1355HOH    HW1 4200   1.816   1.819   2.428
 1355HOH    HW2 4201   1.669   1.814   2.394
 1356HOH    OW  4202   2.911   0.757   2.741
 1356HOH    HW1 4203   3.003   0.736   2.749
 1356HOH    HW2 4204   2.896   0.765   2.646
 1357HOH    OW  4205   0.713   1.402   2.201
 1357HOH    HW1 4206   0.703   1.476   2.141
 1357HOH    HW2 4207   0.645   1.340   2.174
 1358HOH    OW  4208   3.541   0.044   2.755
 1358HOH    HW1 4209   3.537   0.134   2.787
 1358HOH    HW2 4210   3.451   0.011   2.766
 1359HOH    OW  4211   3.055   1.659   3.336
 1359HOH    HW1 4212   3.063   1.753   3.346
 1359HOH    HW2 4213   3.091   1.623   3.418
 1360HOH    OW  4214   3.689   3.007   3.230
 1360HOH    HW1 4215   3.658   3.008   3.139
 1360HOH    HW2 4216   3.767   2.952   3.228
 1361HOH    OW  4217   0.395   0.857   1.208
 1361HOH    HW1 4218   0.368   0.948   1.209
 1361HOH    HW2 4219   0.399   0.834   1.115
 1362HOH    OW  4220   3.924   3.025   3.001
 1362HOH    HW1 4221   0.020   2.949   3.012
 1362HOH    HW2 4222   3.945   3.082   3.075
 1363HOH    OW  4223   3.232   1.773   0.262
 1363HOH    HW1 4224   3.239   1.680   0.282
 1363HOH    HW2 4225   3.178   1.777   0.183
 1364HOH    OW  4226   1.510   2.131   0.702
 1364HOH    HW1 4227   1.445   2.093   0.643
 1364HOH    HW2 4228   1.577   2.168   0.644
 1365HOH    OW  4229   2.129   0.719   3.274
 1365HOH    HW1 4230   2.038   0.692   3.260
 1365HOH    HW2 4231   2.159   0.747   3.187
 1366HOH    OW  4232   2.197   0.714   0.212
 1366HOH    HW1 4233   2.231   0.763   0.137
 1366HOH    HW2 4234   2.114   0.757   0.233
 1367HOH    OW  4235   3.488   0.624   3.642
 1367HOH    HW1 4236   3.401   0.654   3.616
 1367HOH    HW2 4237   3.547   0.692   3.609
 1368HOH    OW  4238   0.119   2.485   1.095
 1368HOH    HW1 4239   0.152   2.400   1.066
 1368HOH    HW2 4240   0.195   2.543   1.092
 1369HOH    OW  4241   3.416   1.225   1.641
 1369HOH    HW1 4242   3.374   1.206   1.725
 1369HOH    HW2 4243   3.499   1.178   1.645
 1370HOH    OW  4244   3.372   2.518   2.410
 1370HOH    HW1 4245   3.330   2.491   2.328
 1370HOH    HW2 4246   3.459   2.548   2.383
 1371HOH    OW  4247   1.967   0.009   0.182
 1371HOH    HW1 4248   1.971   0.068   0.257
 1371HOH    HW2 4249   1.992   0.064   0.108
 1372HOH    OW  4250   1.037   3.697   1.116
 1372HOH    HW1 4251   1.128   3.710   1.144
 1372HOH    HW2 4252   1.044   3.682   1.021
 1373HOH    OW  4253   3.028   0.589   3.790
 1373HOH    HW1 4254   3.020   0.575   3.695
 1373HOH    HW2 4255   2.958   0.650   3.811
 1374HOH    OW  4256   1.639   2.083   3.835
 1374HOH    HW1 4257   1.586   2.123   3.766
 1374HOH    HW2 4258   1.606   2.121   3.916
 1375HOH    OW  4259   2.188   2.032   2.091
 1375HOH    HW1 4260   2.095   2.014   2.081
 1375HOH    HW2 4261   2.229   1.991   2.014
 1376HOH    OW  4262   2.472   1.965   0.875
 1376HOH    HW1 4263   2.386   1.933   0.903
 1376HOH    HW2 4264   2.521   1.976   0.956
 1377HOH    OW  4265   1.000   2.687   3.368
 1377HOH    HW1 4266   0.950   2.766   3.387
 1377HOH    HW2 4267   0.954   2.617   3.415
 1378HOH    OW  4268   2.802   3.898   1.261
 1378HOH    HW1 4269   2.844   3.863   1.182
 1378HOH    HW2 4270   2.873   3.939   1.310
 1379HOH    OW  4271   0.126   0.674   3.271
 1379HOH    HW1 4272   0.119   0.662   3.366
 1379HOH    HW2 4273   0.130   0.769   3.260
 1380HOH    OW  4274   3.228   3.494   2.002
 1380HOH    HW1 4275   3.301   3.522   1.948
 1380HOH    HW2 4276   3.217   3.401   1.983
 1381HOH    OW  4277   3.687   3.585   3.050
 1381HOH    HW1 4278   3.727   3.530   2.982
 1381HOH    HW2 4279   3.593   3.577   3.035
 1382HOH    OW  4280   1.498   1.367   2.473
 1382HOH    HW1 4281   1.439   1.415   2.414
 1382HOH    HW2 4282   1.540   1.435   2.525
 1383HOH    OW  4283   3.737   2.270   1.686
 1383HOH    HW1 4284   3.650   2.247   1.719
 1383HOH    HW2 4285   3.782   2.307   1.762
 1384HOH    OW  4286   1.509   0.785   3.066
 1384HOH    HW1 4287   1.437   0.739   3.023
 1384HOH    HW2 4288   1.476   0.873   3.081
 1385HOH    OW  4289   3.047   3.488   3.710
 1385HOH    HW1 4290   2.962   3.446   3.727
 1385HOH    HW2 4291   3.071   3.528   3.793
 1386HOH    OW  4292   2.707   1.487   3.025
 1386HOH    HW1 4293   2.786   1.467   3.074
 1386HOH    HW2 4294   2.699   1.416   2.961
 1387HOH    OW  4295   2.056   0.146   3.926
 1387HOH    HW1 4296   2.128   0.083   3.920
 1387HOH    HW2 4297   2.089   0.225   3.882
 1388HOH    OW  4298   2.740   3.638   1.465
 1388HOH    HW1 4299   2.808   3.571   1.474
 1388HOH    HW2 4300   2.784   3.711   1.420
 1389HOH    OW  4301   2.067   2.061   1.280
 1389HOH    HW1 4302   2.047   2.117   1.355
 1389HOH    HW2 4303   2.001   2.085   1.215
 1390HOH    OW  4304   2.801   2.205   3.589
 1390HOH    HW1 4305   2.738   2.134   3.580
 1390HOH    HW2 4306   2.881   2.171   3.547
 1391HOH    OW  4307   1.698   3.759   1.005
 1391HOH    HW1 4308   1.624   3.782   1.062
 1391HOH    HW2 4309   1.693   3.822   0.933
 1392HOH    OW  4310   2.858   1.495   1.801
 1392HOH    HW1 4311   2.890   1.469   1.888
 1392HOH    HW2 4312   2.937   1.522   1.754
 1393HOH    OW  4313   0.652   2.793   1.176
 1393HOH    HW1 4314   0.743   2.824   1.177
 1393HOH    HW2 4315   0.639   2.760   1.087
 1394HOH    OW  4316   0.815   2.437   2.883
 1394HOH    HW1 4317   0.773   2.432   2.969
 1394HOH    HW2 4318   0.908   2.428   2.901
 1395HOH    OW  4319   0.140   2.209   1.373
 1395HOH    HW1 4320   0.116   2.251   1.291
 1395HOH    HW2 4321   0.149   2.281   1.435
 1396HOH    OW  4322   0.705   0.258   1.722
 1396HOH    HW1 4323   0.785   0.231   1.766
 1396HOH    HW2 4324   0.735   0.318   1.653
 1397HOH    OW  4325   0.526   1.990   3.273
 1397HOH    HW1 4326   0.543   1.919   3.335
 1397HOH    HW2 4327   0.473   2.053   3.322
 1398HOH    OW  4328   2.324   2.748   1.264
 1398HOH    HW1 4329   2.300   2.788   1.180
 1398HOH    HW2 4330   2.419   2.742   1.261
 1399HOH    OW  4331   1.680   3.475   0.895
 1399HOH    HW1 4332   1.685   3.553   0.950
 1399HOH    HW2 4333   1.760   3.427   0.915
 1400HOH    OW  4334   3.480   1.436   3.939
 1400HOH    HW1 4335   3.503   1.463   0.067
 1400HOH    HW2 4336   3.552   1.466   3.885
 1401HOH    OW  4337   0.533   1.091   0.402
 1401HOH    HW1 4338   0.551   1.132   0.487
 1401HOH    HW2 4339   0.457   1.036   0.418
 1402HOH    OW  4340   0.608   1.141   2.961
 1402HOH    HW1 4341   0.514   1.160   2.962
 1402HOH    HW2 4342   0.628   1.122   2.869
 1403HOH    OW  4343   2.425   0.967   0.390
 1403HOH    HW1 4344   2.492   1.035   0.396
 1403HOH    HW2 4345   2.466   0.889   0.428
 1404HOH    OW  4346   3.592   0.756   3.182
 1404HOH    HW1 4347   3.673   0.743   3.231
 1404HOH    HW2 4348   3.599   0.698   3.106
 1405HOH    OW  4349   3.832   0.395   1.923
 1405HOH    HW1 4350   3.885   0.338   1.867
 1405HOH    HW2 4351   3.868   0.382   2.011
 1406HOH    OW  4352   3.932   0.344   3.830
 1406HOH    HW1 4353   0.010   0.354   3.743
 1406HOH    HW2 4354   3.838   0.361   3.816
 1407HOH    OW  4355   2.166   0.010   1.554
 1407HOH    HW1 4356   2.256   0.017   1.588
 1407HOH    HW2 4357   2.129   0.097   1.566
 1408HOH    OW  4358   0.976   0.484   0.905
 1408HOH    HW1 4359   1.040   0.413   0.915
 1408HOH    HW2 4360   1.010   0.538   0.834
 1409HOH    OW  4361   3.718   3.272   3.282
 1409HOH    HW1 4362   3.631   3.305   3.306
 1409HOH    HW2 4363   3.703   3.180   3.258
 1410HOH    OW  4364   0.526   0.313   3.862
 1410HOH    HW1 4365   0.447   0.348   3.902
 1410HOH    HW2 4366   0.500   0.288   3.773
 1411HOH    OW  4367   0.248   2.629   0.038
 1411HOH    HW1 4368   0.268   2.669   3.914
 1411HOH    HW2 4369   0.213   2.701   0.091
 1412HOH    OW  4370   1.930   0.877   3.881
 1412HOH    HW1 4371   1.925   0.971   3.902
 1412HOH    HW2 4372   1.966   0.875   3.792
 1413HOH    OW  4373   0.488   1.986   2.953
 1413HOH    HW1 4374   0.469   1.893   2.971
 1413HOH    HW2 4375   0.468   2.031   3.035
 1414HOH    OW  4376   0.281   3.612   3.646
 1414HOH    HW1 4377   0.205   3.645   3.599
 1414HOH    HW2 4378   0.314   3.688   3.694
 1415HOH    OW  4379   3.182   2.366   3.702
 1415HOH    HW1 4380   3.213   2.415   3.778
 1415HOH    HW2 4381   3.157   2.280   3.738
 1416HOH    OW  4382   0.755   0.536   1.618
 1416HOH    HW1 4383   0.661   0.533   1.600
 1416HOH    HW2 4384   0.792   0.588   1.546
 1417HOH    OW  4385   2.690   0.118   1.486
 1417HOH    HW1 4386   2.760   0.067   1.445
 1417HOH    HW2 4387   2.733   0.198   1.516
 1418HOH    OW  4388   0.548   1.163   0.670
 1418HOH    HW1 4389   0.506   1.223   0.732
 1418HOH    HW2 4390   0.629   1.136   0.715
 1419HOH    OW  4391   1.837   0.939   3.274
 1419HOH    HW1 4392   1.815   1.031   3.258
 1419HOH    HW2 4393   1.801   0.893   3.198
 1420HOH    OW  4394   0.314   3.865   1.361
 1420HOH    HW1 4395   0.394   3.835   1.319
 1420HOH    HW2 4396   0.306   3.957   1.336
 1421HOH    OW  4397   3.273   0.340   2.395
 1421HOH    HW1 4398   3.258   0.434   2.385
 1421HOH    HW2 4399   3.185   0.304   2.406
 1422HOH    OW  4400   0.013   3.173   3.222
 1422HOH    HW1 4401   0.019   3.104   3.288
 1422HOH    HW2 4402   3.899   3.226   3.249
 1423HOH    OW  4403   1.024   3.310   1.011
 1423HOH    HW1 4404   0.960   3.283   0.945
 1423HOH    HW2 4405   1.084   3.368   0.964
 1424HOH    OW  4406   2.029   2.827   3.841
 1424HOH    HW1 4407   2.019   2.908   3.890
 1424HOH    HW2 4408   2.094   2.777   3.890
 1425HOH    OW  4409   0.768   2.181   3.221
 1425HOH    HW1 4410   0.856   2.152   3.244
 1425HOH    HW2 4411   0.709   2.121   3.267
 1426HOH    OW  4412   0.317   3.858   2.649
 1426HOH    HW1 4413   0.361   3.787   2.601
 1426HOH    HW2 4414   0.229   3.861   2.612
 1427HOH    OW  4415   2.038   3.687   0.087
 1427HOH    HW1 4416   2.042   3.777   0.119
 1427HOH    HW2 4417   1.956   3.653   0.120
 1428HOH    OW  4418   2.195   3.295   2.912
 1428HOH    HW1 4419   2.207   3.286   2.817
 1428HOH    HW2 4420   2.149   3.378   2.923
 1429HOH    OW  4421   1.599   2.212   1.033
 1429HOH    HW1 4422   1.571   2.303   1.030
 1429HOH    HW2 4423   1.574   2.177   0.947
 1430HOH    OW  4424   3.544   3.557   0.156
 1430HOH    HW1 4425   3.476   3.489   0.157
 1430HOH    HW2 4426   3.626   3.510   0.145
 1431HOH    OW  4427   0.246   2.280   0.983
 1431HOH    HW1 4428   0.314   2.218   1.009
 1431HOH    HW2 4429   0.255   2.286   0.888
 1432HOH    OW  4430   0.970   2.392   1.811
 1432HOH    HW1 4431   0.951   2.301   1.788
 1432HOH    HW2 4432   0.954   2.441   1.730
 1433HOH    OW  4433   2.444   0.108   3.808
 1433HOH    HW1 4434   2.485   0.058   3.738
 1433HOH    HW2 4435   2.377   0.049   3.844
 1434HOH    OW  4436   3.658   2.391   3.438
 1434HOH    HW1 4437   3.713   2.341   3.498
 1434HOH    HW2 4438   3.568   2.371   3.464
 1435HOH    OW  4439   1.479   3.294   3.830
 1435HOH    HW1 4440   1.548   3.258   3.775
 1435HOH    HW2 4441   1.435   3.359   3.774
 1436HOH    OW  4442   2.849   3.514   2.420
 1436HOH    HW1 4443   2.920   3.531   2.359
 1436HOH    HW2 4444   2.770   3.545   2.375
 1437HOH    OW  4445   3.184   2.460   0.901
 1437HOH    HW1 4446   3.270   2.472   0.941
 1437HOH    HW2 4447   3.122   2.476   0.972
 1438HOH    OW  4448   2.013   0.278   0.280
 1438HOH    HW1 4449   1.978   0.362   0.252
 1438HOH    HW2 4450   2.106   0.283   0.258
 1439HOH    OW  4451   3.147   0.823   1.136
 1439HOH    HW1 4452   3.167   0.762   1.206
 1439HOH    HW2 4453   3.178   0.780   1.056
 1440HOH    OW  4454   2.569   2.844   2.070
 1440HOH    HW1 4455   2.657   2.849   2.032
 1440HOH    HW2 4456   2.537   2.934   2.069
 1441HOH    OW  4457   2.601   3.498   0.436
 1441HOH    HW1 4458   2.625   3.569   0.494
 1441HOH    HW2 4459   2.560   3.432   0.493
 1442HOH    OW  4460   1.113   2.574   2.676
 1442HOH    HW1 4461   1.149   2.508   2.735
 1442HOH    HW2 4462   1.081   2.643   2.734
 1443HOH    OW  4463   0.499   1.912   3.730
 1443HOH    HW1 4464   0.470   1.823   3.752
 1443HOH    HW2 4465   0.586   1.899   3.692
 1444HOH    OW  4466   1.828   0.814   1.266
 1444HOH    HW1 4467   1.846   0.907   1.255
 1444HOH    HW2 4468   1.746   0.811   1.316
 1445HOH    OW  4469   1.360   1.128   2.520
 1445HOH    HW1 4470   1.278   1.117   2.472
 1445HOH    HW2 4471   1.406   1.198   2.473
 1446HOH    OW  4472   1.412   1.582   1.412
 1446HOH    HW1 4473   1.505   1.557   1.410
 1446HOH    HW2 4474   1.413   1.676   1.427
 1447HOH    OW  4475   0.177   0.142   3.119
 1447HOH    HW1 4476   0.196   0.222   3.168
 1447HOH    HW2 4477   0.137   0.173   3.038
 1448HOH    OW  4478   0.655   3.849   2.486
 1448HOH    HW1 4479   0.563   3.874   2.478
 1448HOH    HW2 4480   0.690   3.907   2.554
 1449HOH    OW  4481   3.538   1.251   2.579
 1449HOH    HW1 4482   3.508   1.162   2.561
 1449HOH    HW2 4483   3.527   1.261   2.674
 1450HOH    OW  4484   1.981   2.465   0.606
 1450HOH    HW1 4485   2.061   2.412   0.601
 1450HOH    HW2 4486   2.004   2.537   0.665
 1451HOH    OW  4487   1.838   1.986   0.752
 1451HOH    HW1 4488   1.889   2.066   0.744
 1451HOH    HW2 4489   1.864   1.949   0.836
 1452HOH    OW  4490   1.631   1.514   3.944
 1452HOH    HW1 4491   1.678   1.522   0.066
 1452HOH    HW2 4492   1.587   1.599   3.934
 1453HOH    OW  4493   3.138   1.198   3.560
 1453HOH    HW1 4494   3.141   1.131   3.629
 1453HOH    HW2 4495   3.058   1.248   3.578
 1454HOH    OW  4496   0.623   3.385   2.643
 1454HOH    HW1 4497   0.531   3.405   2.625
 1454HOH    HW2 4498   0.666   3.471   2.647
 1455HOH    OW  4499   2.674   1.326   1.063
 1455HOH    HW1 4500   2.675   1.412   1.105
 1455HOH    HW2 4501   2.625   1.271   1.124
 1456HOH    OW  4502   2.986   0.503   3.538
 1456HOH    HW1 4503   3.061   0.448   3.518
 1456HOH    HW2 4504   2.958   0.538   3.454
 1457HOH    OW  4505   0.129   3.823   1.571
 1457HOH    HW1 4506   0.180   3.837   1.492
 1457HOH    HW2 4507   0.109   3.911   1.604
 1458HOH    OW  4508   1.818   1.170   3.648
 1458HOH    HW1 4509   1.826   1.076   3.630
 1458HOH    HW2 4510   1.838   1.178   3.742
 1459HOH    OW  4511   0.310   0.089   2.161
 1459HOH    HW1 4512   0.328   0.011   2.108
 1459HOH    HW2 4513   0.386   0.145   2.147
 1460HOH    OW  4514   3.747   2.947   3.798
 1460HOH    HW1 4515   3.747   2.936   3.893
 1460HOH    HW2 4516   3.666   2.904   3.769
 1461HOH    OW  4517   0.134   1.546   3.764
 1461HOH    HW1 4518   0.121   1.636   3.794
 1461HOH    HW2 4519   0.137   1.494   3.845
 1462HOH    OW  4520   3.505   0.014   1.145
 1462HOH    HW1 4521   3.535   3.904   1.202
 1462HOH    HW2 4522   3.565   0.011   1.071
 1463HOH    OW  4523   1.748   3.728   3.307
 1463HOH    HW1 4524   1.760   3.712   3.213
 1463HOH    HW2 4525   1.750   3.823   3.316
 1464HOH    OW  4526   3.043   3.670   0.541
 1464HOH    HW1 4527   3.109   3.653   0.474
 1464HOH    HW2 4528   2.999   3.750   0.511
 1465HOH    OW  4529   0.031   1.180   2.966
 1465HOH    HW1 4530   3.952   1.240   2.904
 1465HOH    HW2 4531   0.090   1.126   2.912
 1466HOH    OW  4532   3.611   0.918   1.903
 1466HOH    HW1 4533   3.615   0.823   1.894
 1466HOH    HW2 4534   3.631   0.935   1.995
 1467HOH    OW  4535   3.243   3.599   0.368
 1467HOH    HW1 4536   3.288   3.524   0.329
 1467HOH    HW2 4537   3.256   3.670   0.306
 1468HOH    OW  4538   0.117   1.410   2.697
 1468HOH    HW1 4539   0.092   1.422   2.605
 1468HOH    HW2 4540   0.040   1.370   2.738
 1469HOH    OW  4541   3.778   3.422   3.505
 1469HOH    HW1 4542   3.822   3.364   3.568
 1469HOH    HW2 4543   3.755   3.364   3.432
 1470HOH    OW  4544   0.007   0.066   3.633
 1470HOH    HW1 4545   3.903   0.020   3.688
 1470HOH    HW2 4546   3.925   0.148   3.610
 1471HOH    OW  4547   0.503   3.850   1.097
 1471HOH    HW1 4548   0.421   3.887   1.065
 1471HOH    HW2 4549   0.566   3.922   1.091
 1472HOH    OW  4550   0.543   2.569   0.504
 1472HOH    HW1 4551   0.604   2.540   0.436
 1472HOH    HW2 4552   0.597   2.575   0.583
 1473HOH    OW  4553   2.938   3.358   1.993
 1473HOH    HW1 4554   2.938   3.425   1.925
 1473HOH    HW2 4555   2.976   3.401   2.070
 1474HOH    OW  4556   3.669   0.415   2.708
 1474HOH    HW1 4557   3.658   0.468   2.787
 1474HOH    HW2 4558   3.593   0.356   2.708
 1475HOH    OW  4559   3.265   1.472   0.924
 1475HOH    HW1 4560   3.180   1.476   0.967
 1475HOH    HW2 4561   3.322   1.431   0.988
 1476HOH    OW  4562   1.560   1.123   2.238
 1476HOH    HW1 4563   1.567   1.059   2.168
 1476HOH    HW2 4564   1.479   1.170   2.220
 1477HOH    OW  4565   0.977   1.231   3.753
 1477HOH    HW1 4566   0.994   1.321   3.780
 1477HOH    HW2 4567   1.061   1.199   3.721
 1478HOH    OW  4568   2.598   3.432   1.985
 1478HOH    HW1 4569   2.518   3.467   1.946
 1478HOH    HW2 4570   2.669   3.475   1.938
 1479HOH    OW  4571   0.288   3.496   0.242
 1479HOH    HW1 4572   0.329   3.412   0.266
 1479HOH    HW2 4573   0.243   3.524   0.322
 1480HOH    OW  4574   2.847   3.571   1.778
 1480HOH    HW1 4575   2.781   3.635   1.751
 1480HOH    HW2 4576   2.899   3.554   1.699
 1481HOH    OW  4577   3.878   1.321   2.359
 1481HOH    HW1 4578   3.897   1.289   2.271
 1481HOH    HW2 4579   3.848   1.412   2.346
 1482HOH    OW  4580   3.122   3.744   2.557
 1482HOH    HW1 4581   3.089   3.724   2.469
 1482HOH    HW2 4582   3.153   3.834   2.551
 1483HOH    OW  4583   0.558   2.629   2.388
 1483HOH    HW1 4584   0.606   2.705   2.420
 1483HOH    HW2 4585   0.472   2.636   2.429
 1484HOH    OW  4586   3.293   0.678   1.497
 1484HOH    HW1 4587   3.314   0.585   1.505
 1484HOH    HW2 4588   3.311   0.699   1.405
 1485HOH    OW  4589   1.395   0.937   2.719
 1485HOH    HW1 4590   1.415   0.974   2.633
 1485HOH    HW2 4591   1.319   0.985   2.749
 1486HOH    OW  4592   0.335   3.192   0.098
 1486HOH    HW1 4593   0.382   3.115   0.131
 1486HOH    HW2 4594   0.336   3.181   0.002
 1487HOH    OW  4595   2.296   1.250   0.447
 1487HOH    HW1 4596   2.304   1.164   0.489
 1487HOH    HW2 4597   2.324   1.235   0.357
 1488HOH    OW  4598   0.841   3.809   1.625
 1488HOH    HW1 4599   0.911   3.762   1.578
 1488HOH    HW2 4600   0.888   3.875   1.676
 1489HOH    OW  4601   0.749   1.000   3.719
 1489HOH    HW1 4602   0.800   0.927   3.753
 1489HOH    HW2 4603   0.681   1.014   3.785
 1490HOH    OW  4604   0.428   3.909   2.915
 1490HOH    HW1 4605   0.339   3.929   2.944
 1490HOH    HW2 4606   0.419   3.886   2.823
 1491HOH    OW  4607   1.416   3.940   1.498
 1491HOH    HW1 4608   1.388   0.021   1.417
 1491HOH    HW2 4609   1.479   0.041   1.537
 1492HOH    OW  4610   1.110   2.184   0.884
 1492HOH    HW1 4611   1.104   2.135   0.802
 1492HOH    HW2 4612   1.176   2.137   0.936
 1493HOH    OW  4613   1.555   3.606   2.430
 1493HOH    HW1 4614   1.576   3.629   2.521
 1493HOH    HW2 4615   1.627   3.549   2.403
 1494HOH    OW  4616   2.397   0.613   1.931
 1494HOH    HW1 4617   2.334   0.595   2.002
 1494HOH    HW2 4618   2.429   0.527   1.905
 1495HOH    OW  4619   0.969   2.955   1.987
 1495HOH    HW1 4620   1.054   2.939   2.028
 1495HOH    HW2 4621   0.990   3.008   1.910
 1496HOH    OW  4622   3.309   2.691   0.154
 1496HOH    HW1 4623   3.305   2.642   0.237
 1496HOH    HW2 4624   3.388   2.744   0.162
 1497HOH    OW  4625   0.124   1.757   0.661
 1497HOH    HW1 4626   0.074   1.743   0.580
 1497HOH    HW2 4627   0.209   1.716   0.644
 1498HOH    OW  4628   0.357   3.866   0.389
 1498HOH    HW1 4629   0.377   3.857   0.296
 1498HOH    HW2 4630   0.440   3.890   0.429
 1499HOH    OW  4631   3.649   0.074   2.234
 1499HOH    HW1 4632   3.617   0.080   2.324
 1499HOH    HW2 4633   3.704   3.957   2.233
 1500HOH    OW  4634   3.614   1.226   2.884
 1500HOH    HW1 4635   3.610   1.131   2.873
 1500HOH    HW2 4636   3.543   1.246   2.945
 1501HOH    OW  4637   0.848   3.477   3.007
 1501HOH    HW1 4638   0.890   3.391   3.014
 1501HOH    HW2 4639   0.759   3.463   3.039
 1502HOH    OW  4640   2.602   2.672   0.031
 1502HOH    HW1 4641   2.544   2.598   0.048
 1502HOH    HW2 4642   2.650   2.648   3.913
 1503HOH    OW  4643   3.165   0.687   0.867
 1503HOH    HW1 4644   3.104   0.745   0.822
 1503HOH    HW2 4645   3.111   0.613   0.896
 1504HOH    OW  4646   3.952   2.380   3.327
 1504HOH    HW1 4647   3.936   2.400   3.419
 1504HOH    HW2 4648   0.030   2.292   3.328
 1505HOH    OW  4649   0.252   2.559   0.468
 1505HOH    HW1 4650   0.276   2.522   0.384
 1505HOH    HW2 4651   0.334   2.597   0.501
 1506HOH    OW  4652   3.295   3.746   1.515
 1506HOH    HW1 4653   3.339   3.781   1.593
 1506HOH    HW2 4654   3.351   3.773   1.442
 1507HOH    OW  4655   3.244   0.401   0.673
 1507HOH    HW1 4656   3.162   0.430   0.632
 1507HOH    HW2 4657   3.289   0.483   0.696
 1508HOH    OW  4658   0.507   3.066   3.758
 1508HOH    HW1 4659   0.534   3.155   3.783
 1508HOH    HW2 4660   0.530   3.059   3.666
 1509HOH    OW  4661   3.851   1.954   0.606
 1509HOH    HW1 4662   3.834   1.870   0.564
 1509HOH    HW2 4663   3.914   1.997   0.548
 1510HOH    OW  4664   1.392   2.430   0.977
 1510HOH    HW1 4665   1.350   2.414   0.892
 1510HOH    HW2 4666   1.378   2.523   0.993
 1511HOH    OW  4667   1.324   2.339   0.479
 1511HOH    HW1 4668   1.313   2.252   0.516
 1511HOH    HW2 4669   1.400   2.331   0.421
 1512HOH    OW  4670   0.877   3.409   1.633
 1512HOH    HW1 4671   0.925   3.492   1.634
 1512HOH    HW2 4672   0.906   3.366   1.553
 1513HOH    OW  4673   1.017   1.526   1.520
 1513HOH    HW1 4674   1.018   1.558   1.430
 1513HOH    HW2 4675   0.942   1.569   1.560
 1514HOH    OW  4676   2.201   3.693   2.822
 1514HOH    HW1 4677   2.129   3.756   2.814
 1514HOH    HW2 4678   2.280   3.747   2.818
 1515HOH    OW  4679   0.931   1.063   3.520
 1515HOH    HW1 4680   0.983   1.141   3.541
 1515HOH    HW2 4681   0.877   1.049   3.598
 1516HOH    OW  4682   1.965   1.399   2.598
 1516HOH    HW1 4683   1.997   1.456   2.528
 1516HOH    HW2 4684   1.870   1.395   2.584
 1517HOH    OW  4685   0.208   0.874   0.753
 1517HOH    HW1 4686   0.148   0.923   0.810
 1517HOH    HW2 4687   0.272   0.836   0.814
 1518HOH    OW  4688   1.224   1.992   3.490
 1518HOH    HW1 4689   1.219   1.913   3.435
 1518HOH    HW2 4690   1.223   1.958   3.579
 1519HOH    OW  4691   2.419   0.202   3.248
 1519HOH    HW1 4692   2.413   0.287   3.206
 1519HOH    HW2 4693   2.330   0.185   3.281
 1520HOH    OW  4694   1.802   1.225   1.122
 1520HOH    HW1 4695   1.794   1.318   1.101
 1520HOH    HW2 4696   1.847   1.187   1.047
 1521HOH    OW  4697   2.396   2.733   2.507
 1521HOH    HW1 4698   2.369   2.652   2.551
 1521HOH    HW2 4699   2.391   2.713   2.414
 1522HOH    OW  4700   2.624   0.358   3.531
 1522HOH    HW1 4701   2.661   0.397   3.610
 1522HOH    HW2 4702   2.530   0.350   3.549
 1523HOH    OW  4703   1.046   3.599   1.835
 1523HOH    HW1 4704   0.980   3.658   1.871
 1523HOH    HW2 4705   1.061   3.534   1.904
 1524HOH    OW  4706   3.743   1.097   1.350
 1524HOH    HW1 4707   3.704   1.057   1.427
 1524HOH    HW2 4708   3.734   1.191   1.364
 1525HOH    OW  4709   2.257   2.100   0.015
 1525HOH    HW1 4710   2.298   2.071   3.894
 1525HOH    HW2 4711   2.282   2.034   0.079
 1526HOH    OW  4712   0.890   3.287   0.667
 1526HOH    HW1 4713   0.892   3.300   0.572
 1526HOH    HW2 4714   0.802   3.315   0.692
 1527HOH    OW  4715   3.065   3.844   3.480
 1527HOH    HW1 4716   3.143   3.805   3.440
 1527HOH    HW2 4717   2.993   3.787   3.452
 1528HOH    OW  4718   1.903   1.642   2.208
 1528HOH    HW1 4719   1.980   1.643   2.152
 1528HOH    HW2 4720   1.912   1.563   2.261
 1529HOH    OW  4721   3.947   0.088   0.512
 1529HOH    HW1 4722   3.910   0.160   0.564
 1529HOH    HW2 4723   3.885   0.016   0.522
 1530HOH    OW  4724   0.553   2.034   0.019
 1530HOH    HW1 4725   0.606   1.973   0.071
 1530HOH    HW2 4726   0.533   1.986   3.900
 1531HOH    OW  4727   3.870   0.398   2.228
 1531HOH    HW1 4728   3.876   0.303   2.228
 1531HOH    HW2 4729   3.875   0.423   2.320
 1532HOH    OW  4730   2.064   3.504   2.428
 1532HOH    HW1 4731   2.047   3.471   2.516
 1532HOH    HW2 4732   2.148   3.466   2.404
 1533HOH    OW  4733   1.218   2.717   1.525
 1533HOH    HW1 4734   1.292   2.680   1.477
 1533HOH    HW2 4735   1.151   2.649   1.523
 1534HOH    OW  4736   1.296   0.712   2.885
 1534HOH    HW1 4737   1.309   0.644   2.819
 1534HOH    HW2 4738   1.349   0.786   2.854
 1535HOH    OW  4739   2.392   0.454   2.200
 1535HOH    HW1 4740   2.389   0.550   2.193
 1535HOH    HW2 4741   2.393   0.438   2.294
 1536HOH    OW  4742   2.559   1.308   3.493
 1536HOH    HW1 4743   2.512   1.300   3.576
 1536HOH    HW2 4744   2.544   1.225   3.449
 1537HOH    OW  4745   3.844   2.657   2.114
 1537HOH    HW1 4746   3.881   2.575   2.146
 1537HOH    HW2 4747   3.831   2.643   2.020
 1538HOH    OW  4748   0.107   0.784   1.664
 1538HOH    HW1 4749   0.023   0.791   1.709
 1538HOH    HW2 4750   0.111   0.693   1.635
 1539HOH    OW  4751   0.759   1.498   0.179
 1539HOH    HW1 4752   0.811   1.484   0.258
 1539HOH    HW2 4753   0.688   1.435   0.186
 1540HOH    OW  4754   1.930   3.379   0.644
 1540HOH    HW1 4755   2.020   3.377   0.610
 1540HOH    HW2 4756   1.924   3.462   0.691
 1541HOH    OW  4757   1.008   0.186   0.590
 1541HOH    HW1 4758   1.099   0.176   0.617
 1541HOH    HW2 4759   0.974   0.257   0.645
 1542HOH    OW  4760   0.888   2.465   3.458
 1542HOH    HW1 4761   0.959   2.406   3.482
 1542HOH    HW2 4762   0.856   2.500   3.541
 1543HOH    OW  4763   0.419   3.652   3.117
 1543HOH    HW1 4764   0.463   3.718   3.170
 1543HOH    HW2 4765   0.327   3.658   3.143
 1544HOH    OW  4766   1.894   0.782   0.220
 1544HOH    HW1 4767   1.902   0.810   0.129
 1544HOH    HW2 4768   1.882   0.687   0.214
 1545HOH    OW  4769   2.218   3.786   3.671
 1545HOH    HW1 4770   2.196   3.703   3.629
 1545HOH    HW2 4771   2.227   3.764   3.764
 1546HOH    OW  4772   2.637   0.884   1.566
 1546HOH    HW1 4773   2.581   0.893   1.489
 1546HOH    HW2 4774   2.586   0.830   1.626
 1547HOH    OW  4775   3.152   3.907   3.729
 1547HOH    HW1 4776   3.140   3.893   3.635
 1547HOH    HW2 4777   3.207   3.835   3.758
 1548HOH    OW  4778   1.586   3.714   1.394
 1548HOH    HW1 4779   1.671   3.681   1.423
 1548HOH    HW2 4780   1.606   3.793   1.345
 1549HOH    OW  4781   0.450   1.247   1.412
 1549HOH    HW1 4782   0.448   1.340   1.389
 1549HOH    HW2 4783   0.456   1.246   1.508
 1550HOH    OW  4784   3.228   2.310   0.591
 1550HOH    HW1 4785   3.200   2.233   0.639
 1550HOH    HW2 4786   3.232   2.282   0.499
 1551HOH    OW  4787   0.762   3.526   3.445
 1551HOH    HW1 4788   0.703   3.573   3.503
 1551HOH    HW2 4789   0.833   3.588   3.428
 1552HOH    OW  4790   1.970   3.151   0.831
 1552HOH    HW1 4791   1.968   3.199   0.748
 1552HOH    HW2 4792   2.045   3.093   0.823
 1553HOH    OW  4793   3.392   1.869   0.764
 1553HOH    HW1 4794   3.396   1.786   0.810
 1553HOH    HW2 4795   3.482   1.885   0.736
 1554HOH    OW  4796   2.385   3.702   2.321
 1554HOH    HW1 4797   2.462   3.684   2.374
 1554HOH    HW2 4798   2.371   3.796   2.329
 1555HOH    OW  4799   2.153   1.973   0.717
 1555HOH    HW1 4800   2.129   1.980   0.809
 1555HOH    HW2 4801   2.102   1.899   0.685
 1556HOH    OW  4802   3.133   1.843   1.712
 1556HOH    HW1 4803   3.154   1.820   1.802
 1556HOH    HW2 4804   3.113   1.760   1.669
 1557HOH    OW  4805   2.758   2.732   0.893
 1557HOH    HW1 4806   2.697   2.806   0.890
 1557HOH    HW2 4807   2.822   2.756   0.960
 1558HOH    OW  4808   1.529   2.004   1.206
 1558HOH    HW1 4809   1.569   2.061   1.142
 1558HOH    HW2 4810   1.590   2.003   1.280
 1559HOH    OW  4811   0.253   0.282   1.678
 1559HOH    HW1 4812   0.303   0.310   1.755
 1559HOH    HW2 4813   0.319   0.248   1.618
 1560HOH    OW  4814   1.524   1.849   0.497
 1560HOH    HW1 4815   1.534   1.758   0.471
 1560HOH    HW2 4816   1.450   1.849   0.558
 1561HOH    OW  4817   0.059   0.493   1.677
 1561HOH    HW1 4818   3.944   0.435   1.681
 1561HOH    HW2 4819   0.133   0.433   1.669
 1562HOH    OW  4820   1.227   1.180   3.643
 1562HOH    HW1 4821   1.248   1.176   3.549
 1562HOH    HW2 4822   1.304   1.219   3.683
 1563HOH    OW  4823   1.486   1.214   3.775
 1563HOH    HW1 4824   1.564   1.161   3.758
 1563HOH    HW2 4825   1.476   1.213   3.870
 1564HOH    OW  4826   0.797   1.968   0.870
 1564HOH    HW1 4827   0.716   1.965   0.818
 1564HOH    HW2 4828   0.865   1.944   0.807
 1565HOH    OW  4829   0.813   1.447   2.696
 1565HOH    HW1 4830   0.834   1.528   2.650
 1565HOH    HW2 4831   0.822   1.379   2.630
 1566HOH    OW  4832   2.469   1.869   2.134
 1566HOH    HW1 4833   2.411   1.910   2.070
 1566HOH    HW2 4834   2.557   1.898   2.108
 1567HOH    OW  4835   3.147   2.197   0.825
 1567HOH    HW1 4836   3.218   2.153   0.871
 1567HOH    HW2 4837   3.171   2.290   0.826
 1568HOH    OW  4838   2.645   0.223   0.826
 1568HOH    HW1 4839   2.670   0.139   0.864
 1568HOH    HW2 4840   2.728   0.262   0.797
 1569HOH    OW  4841   3.460   3.810   0.240
 1569HOH    HW1 4842   3.486   3.818   0.332
 1569HOH    HW2 4843   3.511   3.735   0.208
 1570HOH    OW  4844   3.697   2.854   2.214
 1570HOH    HW1 4845   3.771   2.795   2.197
 1570HOH    HW2 4846   3.669   2.884   2.128
 1571HOH    OW  4847   1.934   3.769   2.420
 1571HOH    HW1 4848   1.880   3.748   2.343
 1571HOH    HW2 4849   1.971   3.685   2.447
 1572HOH    OW  4850   2.876   3.787   3.731
 1572HOH    HW1 4851   2.909   3.716   3.786
 1572HOH    HW2 4852   2.953   3.838   3.709
 1573HOH    OW  4853   0.473   2.066   1.294
 1573HOH    HW1 4854   0.485   2.089   1.202
 1573HOH    HW2 4855   0.466   1.970   1.293
 1574HOH    OW  4856   2.363   3.878   2.673
 1574HOH    HW1 4857   2.380   3.930   2.595
 1574HOH    HW2 4858   2.446   3.834   2.691
 1575HOH    OW  4859   1.121   0.274   0.922
 1575HOH    HW1 4860   1.092   0.185   0.941
 1575HOH    HW2 4861   1.207   0.264   0.883
 1576HOH    OW  4862   0.123   1.320   0.279
 1576HOH    HW1 4863   0.084   1.340   0.364
 1576HOH    HW2 4864   0.098   1.229   0.261
 1577HOH    OW  4865   0.869   3.813   1.970
 1577HOH    HW1 4866   0.893   3.904   1.954
 1577HOH    HW2 4867   0.802   3.817   2.037
 1578HOH    OW  4868   1.339   3.507   3.190
 1578HOH    HW1 4869   1.420   3.514   3.240
 1578HOH    HW2 4870   1.274   3.553   3.243
 1579HOH    OW  4871   0.072   3.556   2.893
 1579HOH    HW1 4872   0.093   3.468   2.924
 1579HOH    HW2 4873   3.946   3.548   2.854
 1580HOH    OW  4874   1.350   2.597   2.095
 1580HOH    HW1 4875   1.332   2.615   2.187
 1580HOH    HW2 4876   1.314   2.509   2.080
 1581HOH    OW  4877   1.127   1.723   1.269
 1581HOH    HW1 4878   1.149   1.808   1.308
 1581HOH    HW2 4879   1.206   1.697   1.223
 1582HOH    OW  4880   3.421   0.988   0.518
 1582HOH    HW1 4881   3.330   1.017   0.511
 1582HOH    HW2 4882   3.425   0.909   0.464
 1583HOH    OW  4883   1.285   1.297   0.055
 1583HOH    HW1 4884   1.379   1.290   0.071
 1583HOH    HW2 4885   1.246   1.228   0.109
 1584HOH    OW  4886   1.084   3.614   2.689
 1584HOH    HW1 4887   1.143   3.546   2.655
 1584HOH    HW2 4888   1.053   3.659   2.610
 1585HOH    OW  4889   2.979   2.213   0.402
 1585HOH    HW1 4890   3.024   2.279   0.350
 1585HOH    HW2 4891   2.953   2.260   0.482
 1586HOH    OW  4892   0.800   0.945   1.474
 1586HOH    HW1 4893   0.850   1.001   1.533
 1586HOH    HW2 4894   0.720   0.925   1.524
 1587HOH    OW  4895   3.953   2.222   2.946
 1587HOH    HW1 4896   0.025   2.148   2.999
 1587HOH    HW2 4897   3.937   2.184   2.860
 1588HOH    OW  4898   0.200   0.657   2.422
 1588HOH    HW1 4899   0.233   0.646   2.333
 1588HOH    HW2 4900   0.170   0.570   2.448
 1589HOH    OW  4901   0.905   0.727   1.848
 1589HOH    HW1 4902   0.846   0.676   1.793
 1589HOH    HW2 4903   0.875   0.710   1.937
 1590HOH    OW  4904   2.463   3.562   0.924
 1590HOH    HW1 4905   2.408   3.501   0.972
 1590HOH    HW2 4906   2.500   3.619   0.992
 1591HOH    OW  4907   2.416   2.248   2.943
 1591HOH    HW1 4908   2.428   2.321   3.004
 1591HOH    HW2 4909   2.495   2.195   2.955
 1592HOH    OW  4910   3.578   0.277   1.811
 1592HOH    HW1 4911   3.581   0.263   1.716
 1592HOH    HW2 4912   3.664   0.311   1.833
 1593HOH    OW  4913   0.017   0.913   1.968
 1593HOH    HW1 4914   3.938   0.982   2.020
 1593HOH    HW2 4915   3.915   0.894   1.899
 1594HOH    OW  4916   0.264   3.467   0.582
 1594HOH    HW1 4917   0.253   3.377   0.551
 1594HOH    HW2 4918   0.358   3.484   0.574
 1595HOH    OW  4919   0.435   1.526   1.357
 1595HOH    HW1 4920   0.384   1.573   1.422
 1595HOH    HW2 4921   0.526   1.534   1.387
 1596HOH    OW  4922   0.405   1.631   1.955
 1596HOH    HW1 4923   0.442   1.549   1.922
 1596HOH    HW2 4924   0.438   1.698   1.896
 1597HOH    OW  4925   1.381   3.164   3.504
 1597HOH    HW1 4926   1.475   3.166   3.487
 1597HOH    HW2 4927   1.365   3.079   3.545
 1598HOH    OW  4928   3.636   1.568   1.575
 1598HOH    HW1 4929   3.557   1.611   1.542
 1598HOH    HW2 4930   3.697   1.639   1.593
 1599HOH    OW  4931   2.137   3.130   1.237
 1599HOH    HW1 4932   2.061   3.170   1.196
 1599HOH    HW2 4933   2.174   3.199   1.292
 1600HOH    OW  4934   2.057   0.103   3.610
 1600HOH    HW1 4935   2.012   0.023   3.583
 1600HOH    HW2 4936   2.039   0.110   3.704
 1601HOH    OW  4937   2.608   2.170   1.627
 1601HOH    HW1 4938   2.646   2.084   1.607
 1601HOH    HW2 4939   2.515   2.160   1.605
 1602HOH    OW  4940   0.578   2.511   0.844
 1602HOH    HW1 4941   0.645   2.443   0.838
 1602HOH    HW2 4942   0.544   2.504   0.933
 1603HOH    OW  4943   2.412   0.168   2.212
 1603HOH    HW1 4944   2.394   0.133   2.124
 1603HOH    HW2 4945   2.371   0.254   2.212
 1604HOH    OW  4946   3.666   3.212   0.906
 1604HOH    HW1 4947   3.733   3.281   0.911
 1604HOH    HW2 4948   3.704   3.147   0.846
 1605HOH    OW  4949   0.342   3.815   1.893
 1605HOH    HW1 4950   0.437   3.799   1.895
 1605HOH    HW2 4951   0.307   3.754   1.958
 1606HOH    OW  4952   3.959   1.334   1.461
 1606HOH    HW1 4953   0.028   1.411   1.510
 1606HOH    HW2 4954   3.905   1.370   1.391
 1607HOH    OW  4955   0.576   0.455   2.598
 1607HOH    HW1 4956   0.588   0.467   2.692
 1607HOH    HW2 4957   0.512   0.521   2.573
 1608HOH    OW  4958   2.924   2.155   2.908
 1608HOH    HW1 4959   2.977   2.117   2.838
 1608HOH    HW2 4960   2.952   2.247   2.912
 1609HOH    OW  4961   1.252   1.206   2.767
 1609HOH    HW1 4962   1.301   1.175   2.690
 1609HOH    HW2 4963   1.320   1.227   2.831
 1610HOH    OW  4964   0.378   2.890   3.297
 1610HOH    HW1 4965   0.424   2.972   3.282
 1610HOH    HW2 4966   0.325   2.877   3.218
 1611HOH    OW  4967   2.373   1.412   2.695
 1611HOH    HW1 4968   2.348   1.463   2.618
 1611HOH    HW2 4969   2.357   1.470   2.769
 1612HOH    OW  4970   1.255   1.259   0.660
 1612HOH    HW1 4971   1.297   1.266   0.575
 1612HOH    HW2 4972   1.269   1.344   0.701
 1613HOH    OW  4973   1.887   0.992   0.950
 1613HOH    HW1 4974   1.932   0.964   0.870
 1613HOH    HW2 4975   1.795   0.972   0.933
 1614HOH    OW  4976   1.518   0.594   2.311
 1614HOH    HW1 4977   1.487   0.508   2.284
 1614HOH    HW2 4978   1.452   0.626   2.372
 1615HOH    OW  4979   1.770   2.289   0.594
 1615HOH    HW1 4980   1.842   2.352   0.597
 1615HOH    HW2 4981   1.806   2.214   0.547
 1616HOH    OW  4982   3.444   3.049   0.940
 1616HOH    HW1 4983   3.511   3.112   0.915
 1616HOH    HW2 4984   3.362   3.099   0.937
 1617HOH    OW  4985   2.049   1.723   0.182
 1617HOH    HW1 4986   2.048   1.692   0.092
 1617HOH    HW2 4987   2.119   1.673   0.224
 1618HOH    OW  4988   2.269   2.590   0.984
 1618HOH    HW1 4989   2.243   2.505   0.949
 1618HOH    HW2 4990   2.351   2.573   1.031
 1619HOH    OW  4991   2.037   2.678   1.721
 1619HOH    HW1 4992   2.088   2.693   1.641
 1619HOH    HW2 4993   1.970   2.747   1.720
 1620HOH    OW  4994   0.088   2.957   2.128
 1620HOH    HW1 4995   0.094   2.898   2.053
 1620HOH    HW2 4996   0.172   3.003   2.129
 1621HOH    OW  4997   3.783   3.779   1.432
 1621HOH    HW1 4998   3.857   3.787   1.491
 1621HOH    HW2 4999   3.820   3.792   1.345
 1622HOH    OW  5000   2.704   3.206   1.937
 1622HOH    HW1 5001   2.787   3.249   1.954
 1622HOH    HW2 5002   2.638   3.274   1.950
 1623HOH    OW  5003   1.733   1.862   3.720
 1623HOH    HW1 5004   1.691   1.933   3.770
 1623HOH    HW2 5005   1.660   1.810   3.688
 1624HOH    OW  5006   1.577   3.379   2.742
 1624HOH    HW1 5007   1.554   3.289   2.762
 1624HOH    HW2 5008   1.639   3.373   2.669
 1625HOH    OW  5009   1.463   1.097   0.733
 1625HOH    HW1 5010   1.407   1.155   0.680
 1625HOH    HW2 5011   1.404   1.028   0.763
 1626HOH    OW  5012   1.605   2.433   2.070
 1626HOH    HW1 5013   1.526   2.477   2.038
 1626HOH    HW2 5014   1.633   2.486   2.144
 1627HOH    OW  5015   2.626   0.683   1.052
 1627HOH    HW1 5016   2.678   0.651   0.978
 1627HOH    HW2 5017   2.670   0.763   1.079
 1628HOH    OW  5018   2.654   2.086   2.947
 1628HOH    HW1 5019   2.733   2.139   2.958
 1628HOH    HW2 5020   2.666   2.012   3.007
 1629HOH    OW  5021   3.852   3.091   2.279
 1629HOH    HW1 5022   3.778   3.032   2.290
 1629HOH    HW2 5023   3.912   3.042   2.222
 1630HOH    OW  5024   1.486   2.918   3.564
 1630HOH    HW1 5025   1.503   2.929   3.657
 1630HOH    HW2 5026   1.573   2.912   3.524
 1631HOH    OW  5027   2.863   2.682   2.749
 1631HOH    HW1 5028   2.919   2.639   2.684
 1631HOH    HW2 5029   2.774   2.657   2.724
 1632HOH    OW  5030   1.179   0.716   1.441
 1632HOH    HW1 5031   1.088   0.736   1.461
 1632HOH    HW2 5032   1.175   0.639   1.385
 1633HOH    OW  5033   2.521   1.645   2.307
 1633HOH    HW1 5034   2.490   1.718   2.254
 1633HOH    HW2 5035   2.605   1.674   2.343
 1634HOH    OW  5036   1.843   1.719   1.278
 1634HOH    HW1 5037   1.907   1.683   1.340
 1634HOH    HW2 5038   1.779   1.764   1.333
 1635HOH    OW  5039   2.723   3.815   0.270
 1635HOH    HW1 5040   2.686   3.834   0.184
 1635HOH    HW2 5041   2.684   3.731   0.295
 1636HOH    OW  5042   2.267   1.916   0.230
 1636HOH    HW1 5043   2.263   1.978   0.303
 1636HOH    HW2 5044   2.178   1.881   0.223
 1637HOH    OW  5045   2.856   2.703   1.631
 1637HOH    HW1 5046   2.908   2.641   1.682
 1637HOH    HW2 5047   2.915   2.731   1.561
 1638HOH    OW  5048   2.469   2.417   3.129
 1638HOH    HW1 5049   2.460   2.425   3.224
 1638HOH    HW2 5050   2.563   2.408   3.115
 1639HOH    OW  5051   3.002   3.124   3.406
 1639HOH    HW1 5052   3.020   3.126   3.500
 1639HOH    HW2 5053   3.088   3.126   3.365
 1640HOH    OW  5054   1.052   3.491   0.731
 1640HOH    HW1 5055   1.132   3.469   0.683
 1640HOH    HW2 5056   0.996   3.414   0.722
 1641HOH    OW  5057   1.762   3.137   2.739
 1641HOH    HW1 5058   1.690   3.074   2.750
 1641HOH    HW2 5059   1.811   3.103   2.664
 1642HOH    OW  5060   0.207   3.221   2.731
 1642HOH    HW1 5061   0.192   3.162   2.658
 1642HOH    HW2 5062   0.128   3.216   2.784
 1643HOH    OW  5063   3.055   2.170   2.297
 1643HOH    HW1 5064   3.050   2.265   2.305
 1643HOH    HW2 5065   3.113   2.156   2.222
 1644HOH    OW  5066   0.901   3.743   2.990
 1644HOH    HW1 5067   0.899   3.647   2.994
 1644HOH    HW2 5068   0.831   3.766   2.929
 1645HOH    OW  5069   3.598   1.799   2.234
 1645HOH    HW1 5070   3.584   1.790   2.140
 1645HOH    HW2 5071   3.599   1.893   2.249
 1646HOH    OW  5072   0.067   0.700   2.833
 1646HOH    HW1 5073   0.112   0.623   2.868
 1646HOH    HW2 5074   0.134   0.748   2.786
 1647HOH    OW  5075   1.150   1.909   0.306
 1647HOH    HW1 5076   1.056   1.928   0.303
 1647HOH    HW2 5077   1.155   1.818   0.338
 1648HOH    OW  5078   0.950   0.828   3.376
 1648HOH    HW1 5079   0.988   0.871   3.299
 1648HOH    HW2 5080   0.942   0.898   3.441
 1649HOH    OW  5081   1.644   0.870   1.084
 1649HOH    HW1 5082   1.681   0.798   1.136
 1649HOH    HW2 5083   1.587   0.917   1.145
 1650HOH    OW  5084   1.397   3.494   1.237
 1650HOH    HW1 5085   1.378   3.580   1.199
 1650HOH    HW2 5086   1.438   3.513   1.321
 1651HOH    OW  5087   1.345   3.272   0.762
 1651HOH    HW1 5088   1.327   3.326   0.685
 1651HOH    HW2 5089   1.309   3.186   0.740
 1652HOH    OW  5090   0.203   2.886   1.839
 1652HOH    HW1 5091   0.203   2.810   1.781
 1652HOH    HW2 5092   0.294   2.918   1.838
 1653HOH    OW  5093   2.005   2.693   3.093
 1653HOH    HW1 5094   1.984   2.622   3.154
 1653HOH    HW2 5095   1.998   2.773   3.147
 1654HOH    OW  5096   2.620   0.913   3.592
 1654HOH    HW1 5097   2.531   0.880   3.580
 1654HOH    HW2 5098   2.663   0.896   3.508
 1655HOH    OW  5099   3.307   2.425   2.677
 1655HOH    HW1 5100   3.249   2.362   2.636
 1655HOH    HW2 5101   3.359   2.461   2.605
 1656HOH    OW  5102   2.758   2.716   3.410
 1656HOH    HW1 5103   2.844   2.739   3.376
 1656HOH    HW2 5104   2.771   2.633   3.456
 1657HOH    OW  5105   1.627   2.579   1.692
 1657HOH    HW1 5106   1.660   2.664   1.723
 1657HOH    HW2 5107   1.704   2.534   1.658
 1658HOH    OW  5108   0.288   1.973   0.806
 1658HOH    HW1 5109   0.240   1.919   0.744
 1658HOH    HW2 5110   0.221   2.003   0.869
 1659HOH    OW  5111   3.272   1.302   0.558
 1659HOH    HW1 5112   3.273   1.211   0.526
 1659HOH    HW2 5113   3.186   1.313   0.597
 1660HOH    OW  5114   2.635   2.220   0.037
 1660HOH    HW1 5115   2.605   2.181   3.916
 1660HOH    HW2 5116   2.651   2.145   0.095
 1661HOH    OW  5117   3.253   2.094   3.730
 1661HOH    HW1 5118   3.285   2.014   3.689
 1661HOH    HW2 5119   3.320   2.116   3.795
 1662HOH    OW  5120   0.058   3.315   1.184
 1662HOH    HW1 5121   0.090   3.236   1.141
 1662HOH    HW2 5122   0.019   3.284   1.265
 1663HOH    OW  5123   1.261   3.251   1.166
 1663HOH    HW1 5124   1.200   3.242   1.093
 1663HOH    HW2 5125   1.283   3.344   1.168
 1664HOH    OW  5126   2.092   1.625   1.144
 1664HOH    HW1 5127   2.014   1.630   1.200
 1664HOH    HW2 5128   2.165   1.644   1.204
 1665HOH    OW  5129   3.663   1.956   0.801
 1665HOH    HW1 5130   3.734   1.949   0.738
 1665HOH    HW2 5131   3.698   1.919   0.882
 1666HOH    OW  5132   2.814   3.624   2.659
 1666HOH    HW1 5133   2.857   3.594   2.579
 1666HOH    HW2 5134   2.732   3.574   2.661
 1667HOH    OW  5135   1.958   0.529   0.148
 1667HOH    HW1 5136   1.923   0.500   0.064
 1667HOH    HW2 5137   2.052   0.539   0.133
 1668HOH    OW  5138   2.007   0.140   1.871
 1668HOH    HW1 5139   1.930   0.106   1.825
 1668HOH    HW2 5140   2.015   0.230   1.839
 1669HOH    OW  5141   1.421   3.266   0.157
 1669HOH    HW1 5142   1.329   3.254   0.135
 1669HOH    HW2 5143   1.466   3.270   0.072
 1670HOH    OW  5144   0.361   0.241   2.635
 1670HOH    HW1 5145   0.381   0.333   2.619
 1670HOH    HW2 5146   0.425   0.214   2.701
 1671HOH    OW  5147   2.169   1.367   3.390
 1671HOH    HW1 5148   2.152   1.421   3.313
 1671HOH    HW2 5149   2.194   1.282   3.354
 1672HOH    OW  5150   3.729   0.731   2.732
 1672HOH    HW1 5151   3.817   0.735   2.769
 1672HOH    HW2 5152   3.741   0.693   2.645
 1673HOH    OW  5153   2.245   2.379   0.693
 1673HOH    HW1 5154   2.327   2.364   0.647
 1673HOH    HW2 5155   2.258   2.338   0.778
 1674HOH    OW  5156   2.545   0.447   1.760
 1674HOH    HW1 5157   2.596   0.437   1.681
 1674HOH    HW2 5158   2.591   0.394   1.825
 1675HOH    OW  5159   2.085   2.970   2.047
 1675HOH    HW1 5160   2.070   3.023   1.969
 1675HOH    HW2 5161   2.094   2.881   2.013
 1676HOH    OW  5162   2.598   0.911   2.501
 1676HOH    HW1 5163   2.525   0.857   2.471
 1676HOH    HW2 5164   2.676   0.856   2.487
 1677HOH    OW  5165   1.613   3.931   3.426
 1677HOH    HW1 5166   1.557   0.015   3.489
 1677HOH    HW2 5167   1.678   0.035   3.400
 1678HOH    OW  5168   2.890   2.634   0.684
 1678HOH    HW1 5169   2.869   2.674   0.768
 1678HOH    HW2 5170   2.986   2.626   0.685
 1679HOH    OW  5171   0.116   0.140   2.796
 1679HOH    HW1 5172   0.188   0.141   2.732
 1679HOH    HW2 5173   0.091   0.048   2.801
 1680HOH    OW  5174   2.992   1.628   0.221
 1680HOH    HW1 5175   2.951   1.662   0.300
 1680HOH    HW2 5176   3.025   1.706   0.176
 1681HOH    OW  5177   1.243   3.023   0.691
 1681HOH    HW1 5178   1.219   2.935   0.720
 1681HOH    HW2 5179   1.276   3.010   0.602
 1682HOH    OW  5180   2.583   2.552   1.038
 1682HOH    HW1 5181   2.633   2.565   0.958
 1682HOH    HW2 5182   2.648   2.553   1.108
 1683HOH    OW  5183   1.108   1.917   3.754
 1683HOH    HW1 5184   1.183   1.943   3.808
 1683HOH    HW2 5185   1.032   1.925   3.812
 1684HOH    OW  5186   0.045   1.524   1.680
 1684HOH    HW1 5187   0.072   1.613   1.659
 1684HOH    HW2 5188   3.917   1.534   1.715
 1685HOH    OW  5189   1.646   1.022   1.613
 1685HOH    HW1 5190   1.656   1.113   1.583
 1685HOH    HW2 5191   1.562   1.021   1.658
 1686HOH    OW  5192   3.932   1.946   1.405
 1686HOH    HW1 5193   0.047   1.999   1.379
 1686HOH    HW2 5194   0.004   1.856   1.404
 1687HOH    OW  5195   1.508   3.006   2.806
 1687HOH    HW1 5196   1.431   3.055   2.834
 1687HOH    HW2 5197   1.495   2.918   2.842
 1688HOH    OW  5198   0.760   1.628   2.047
 1688HOH    HW1 5199   0.847   1.637   2.010
 1688HOH    HW2 5200   0.717   1.711   2.026
 1689HOH    OW  5201   2.352   1.006   1.653
 1689HOH    HW1 5202   2.365   0.951   1.575
 1689HOH    HW2 5203   2.395   0.957   1.723
 1690HOH    OW  5204   0.749   2.788   1.995
 1690HOH    HW1 5205   0.814   2.858   1.995
 1690HOH    HW2 5206   0.800   2.707   2.000
 1691HOH    OW  5207   0.498   2.679   2.888
 1691HOH    HW1 5208   0.470   2.641   2.971
 1691HOH    HW2 5209   0.446   2.633   2.822
 1692HOH    OW  5210   0.529   0.642   2.237
 1692HOH    HW1 5211   0.573   0.565   2.202
 1692HOH    HW2 5212   0.528   0.704   2.164
 1693HOH    OW  5213   1.842   2.398   3.860
 1693HOH    HW1 5214   1.799   2.314   3.846
 1693HOH    HW2 5215   1.813   2.452   3.787
 1694HOH    OW  5216   3.624   3.607   2.231
 1694HOH    HW1 5217   3.699   3.667   2.242
 1694HOH    HW2 5218   3.638   3.540   2.298
 1695HOH    OW  5219   0.055   3.680   2.520
 1695HOH    HW1 5220   0.062   3.643   2.608
 1695HOH    HW2 5221   0.125   3.637   2.470
 1696HOH    OW  5222   0.084   2.091   3.372
 1696HOH    HW1 5223   0.129   2.093   3.456
 1696HOH    HW2 5224   0.049   2.002   3.366
 1697HOH    OW  5225   1.061   0.088   0.236
 1697HOH    HW1 5226   1.114   0.145   0.292
 1697HOH    HW2 5227   0.983   0.139   0.217
 1698HOH    OW  5228   1.772   2.642   0.556
 1698HOH    HW1 5229   1.833   2.712   0.580
 1698HOH    HW2 5230   1.780   2.578   0.627
 1699HOH    OW  5231   1.468   1.540   3.365
 1699HOH    HW1 5232   1.496   1.555   3.275
 1699HOH    HW2 5233   1.521   1.465   3.394
 1700HOH    OW  5234   3.277   2.723   1.278
 1700HOH    HW1 5235   3.210   2.742   1.344
 1700HOH    HW2 5236   3.311   2.637   1.303
 1701HOH    OW  5237   1.451   2.179   2.495
 1701HOH    HW1 5238   1.540   2.214   2.502
 1701HOH    HW2 5239   1.410   2.233   2.427
 1702HOH    OW  5240   2.304   2.633   3.555
 1702HOH    HW1 5241   2.388   2.677   3.566
 1702HOH    HW2 5242   2.321   2.541   3.573
 1703HOH    OW  5243   2.859   2.870   2.294
 1703HOH    HW1 5244   2.870   2.955   2.252
 1703HOH    HW2 5245   2.878   2.807   2.224
 1704HOH    OW  5246   0.137   2.896   1.323
 1704HOH    HW1 5247   0.226   2.920   1.295
 1704HOH    HW2 5248   0.082   2.916   1.247
 1705HOH    OW  5249   2.385   1.090   3.378
 1705HOH    HW1 5250   2.294   1.086   3.348
 1705HOH    HW2 5251   2.413   0.998   3.381
 1706HOH    OW  5252   2.479   3.740   1.358
 1706HOH    HW1 5253   2.422   3.668   1.330
 1706HOH    HW2 5254   2.560   3.697   1.387
 1707HOH    OW  5255   3.407   2.492   1.121
 1707HOH    HW1 5256   3.388   2.481   1.214
 1707HOH    HW2 5257   3.478   2.556   1.118
 1708HOH    OW  5258   2.032   0.133   2.452
 1708HOH    HW1 5259   1.941   0.131   2.479
 1708HOH    HW2 5260   2.078   0.180   2.521
 1709HOH    OW  5261   3.936   0.669   0.268
 1709HOH    HW1 5262   3.921   0.709   0.353
 1709HOH    HW2 5263   3.855   0.622   0.249
 1710HOH    OW  5264   2.318   0.753   2.199
 1710HOH    HW1 5265   2.269   0.790   2.272
 1710HOH    HW2 5266   2.375   0.823   2.170
 1711HOH    OW  5267   2.979   1.378   0.129
 1711HOH    HW1 5268   3.068   1.345   0.139
 1711HOH    HW2 5269   2.984   1.469   0.160
 1712HOH    OW  5270   0.099   3.630   2.234
 1712HOH    HW1 5271   0.049   3.558   2.193
 1712HOH    HW2 5272   0.187   3.622   2.197
 1713HOH    OW  5273   2.331   0.554   3.903
 1713HOH    HW1 5274   2.338   0.508   0.025
 1713HOH    HW2 5275   2.384   0.503   3.842
 1714HOH    OW  5276   3.274   0.181   2.096
 1714HOH    HW1 5277   3.345   0.194   2.160
 1714HOH    HW2 5278   3.206   0.243   2.123
 1715HOH    OW  5279   0.907   0.896   0.820
 1715HOH    HW1 5280   0.871   0.825   0.767
 1715HOH    HW2 5281   0.982   0.928   0.771
 1716HOH    OW  5282   2.408   3.706   0.592
 1716HOH    HW1 5283   2.495   3.707   0.632
 1716HOH    HW2 5284   2.352   3.667   0.659
 1717HOH    OW  5285   0.011   0.613   0.710
 1717HOH    HW1 5286   0.075   0.661   0.762
 1717HOH    HW2 5287   3.894   0.670   0.710
 1718HOH    OW  5288   0.349   3.158   0.897
 1718HOH    HW1 5289   0.349   3.254   0.891
 1718HOH    HW2 5290   0.431   3.138   0.943
 1719HOH    OW  5291   1.191   0.318   0.320
 1719HOH    HW1 5292   1.229   0.298   0.406
 1719HOH    HW2 5293   1.099   0.335   0.339
 1720HOH    OW  5294   0.007   1.348   0.512
 1720HOH    HW1 5295   3.882   1.384   0.488
 1720HOH    HW2 5296   3.958   1.324   0.604
 1721HOH    OW  5297   2.019   3.111   2.987
 1721HOH    HW1 5298   1.980   3.145   3.067
 1721HOH    HW2 5299   2.089   3.173   2.966
 1722HOH    OW  5300   3.323   1.477   1.542
 1722HOH    HW1 5301   3.270   1.400   1.525
 1722HOH    HW2 5302   3.401   1.444   1.586
 1723HOH    OW  5303   0.727   3.115   2.337
 1723HOH    HW1 5304   0.647   3.075   2.301
 1723HOH    HW2 5305   0.759   3.170   2.266
 1724HOH    OW  5306   2.360   2.714   2.236
 1724HOH    HW1 5307   2.434   2.729   2.177
 1724HOH    HW2 5308   2.288   2.763   2.198
 1725HOH    OW  5309   2.630   3.294   2.427
 1725HOH    HW1 5310   2.641   3.390   2.427
 1725HOH    HW2 5311   2.571   3.277   2.353
 1726HOH    OW  5312   0.831   0.405   2.531
 1726HOH    HW1 5313   0.744   0.439   2.510
 1726HOH    HW2 5314   0.822   0.365   2.617
 1727HOH    OW  5315   0.970   3.365   0.420
 1727HOH    HW1 5316   0.893   3.335   0.372
 1727HOH    HW2 5317   0.982   3.456   0.392
 1728HOH    OW  5318   2.272   2.267   0.950
 1728HOH    HW1 5319   2.280   2.173   0.934
 1728HOH    HW2 5320   2.309   2.280   1.037
 1729HOH    OW  5321   3.420   3.266   0.689
 1729HOH    HW1 5322   3.342   3.310   0.654
 1729HOH    HW2 5323   3.402   3.258   0.783
 1730HOH    OW  5324   0.231   2.588   2.793
 1730HOH    HW1 5325   0.154   2.586   2.737
 1730HOH    HW2 5326   0.246   2.497   2.817
 1731HOH    OW  5327   1.317   2.749   3.386
 1731HOH    HW1 5328   1.314   2.804   3.465
 1731HOH    HW2 5329   1.225   2.730   3.367
 1732HOH    OW  5330   2.913   1.463   3.236
 1732HOH    HW1 5331   2.962   1.381   3.231
 1732HOH    HW2 5332   2.975   1.526   3.274
 1733HOH    OW  5333   2.309   2.958   0.013
 1733HOH    HW1 5334   2.377   2.926   3.914
 1733HOH    HW2 5335   2.277   2.879   0.056
 1734HOH    OW  5336   1.990   3.620   1.671
 1734HOH    HW1 5337   2.079   3.593   1.650
 1734HOH    HW2 5338   1.999   3.708   1.707
 1735HOH    OW  5339   3.685   0.331   3.731
 1735HOH    HW1 5340   3.655   0.243   3.750
 1735HOH    HW2 5341   3.608   0.386   3.742
 1736HOH    OW  5342   0.139   1.016   2.405
 1736HOH    HW1 5343   0.194   0.940   2.423
 1736HOH    HW2 5344   0.058   0.999   2.455
 1737HOH    OW  5345   0.093   2.666   1.677
 1737HOH    HW1 5346   0.037   2.721   1.622
 1737HOH    HW2 5347   0.033   2.626   1.740
 1738HOH    OW  5348   0.582   3.683   3.558
 1738HOH    HW1 5349   0.496   3.641   3.566
 1738HOH    HW2 5350   0.602   3.714   3.647
 1739HOH    OW  5351   1.750   2.163   1.470
 1739HOH    HW1 5352   1.747   2.072   1.499
 1739HOH    HW2 5353   1.838   2.193   1.491
 1740HOH    OW  5354   0.481   2.458   2.604
 1740HOH    HW1 5355   0.512   2.446   2.514
 1740HOH    HW2 5356   0.397   2.503   2.594
 1741HOH    OW  5357   2.224   3.269   2.642
 1741HOH    HW1 5358   2.220   3.177   2.615
 1741HOH    HW2 5359   2.244   3.317   2.562
 1742HOH    OW  5360   2.459   2.678   0.725
 1742HOH    HW1 5361   2.400   2.740   0.768
 1742HOH    HW2 5362   2.536   2.674   0.780
 1743HOH    OW  5363   3.599   3.044   3.473
 1743HOH    HW1 5364   3.563   3.132   3.464
 1743HOH    HW2 5365   3.624   3.019   3.384
 1744HOH    OW  5366   0.472   2.978   0.218
 1744HOH    HW1 5367   0.527   2.946   0.290
 1744HOH    HW2 5368   0.469   2.906   0.156
 1745HOH    OW  5369   2.389   0.358   3.723
 1745HOH    HW1 5370   2.402   0.275   3.768
 1745HOH    HW2 5371   2.294   0.366   3.712
 1746HOH    OW  5372   1.093   3.554   3.708
 1746HOH    HW1 5373   1.168   3.533   3.652
 1746HOH    HW2 5374   1.130   3.561   3.796
 1747HOH    OW  5375   2.954   0.949   2.175
 1747HOH    HW1 5376   2.870   0.994   2.189
 1747HOH    HW2 5377   2.954   0.929   2.081
 1748HOH    OW  5378   3.348   0.118   0.503
 1748HOH    HW1 5379   3.334   0.207   0.536
 1748HOH    HW2 5380   3.304   0.117   0.418
 1749HOH    OW  5381   3.412   1.502   2.447
 1749HOH    HW1 5382   3.436   1.499   2.539
 1749HOH    HW2 5383   3.458   1.428   2.407
 1750HOH    OW  5384   1.824   2.881   1.368
 1750HOH    HW1 5385   1.909   2.913   1.399
 1750HOH    HW2 5386   1.832   2.880   1.273
 1751HOH    OW  5387   0.148   1.790   1.683
 1751HOH    HW1 5388   0.133   1.836   1.766
 1751HOH    HW2 5389   0.163   1.860   1.619
 1752HOH    OW  5390   0.617   0.969   3.468
 1752HOH    HW1 5391   0.666   0.975   3.550
 1752HOH    HW2 5392   0.684   0.966   3.400
 1753HOH    OW  5393   0.266   2.612   2.488
 1753HOH    HW1 5394   0.185   2.568   2.514
 1753HOH    HW2 5395   0.246   2.649   2.402
 1754HOH    OW  5396   1.132   0.849   2.046
 1754HOH    HW1 5397   1.067   0.920   2.042
 1754HOH    HW2 5398   1.093   0.778   1.996
 1755HOH    OW  5399   3.800   2.620   2.784
 1755HOH    HW1 5400   3.733   2.570   2.830
 1755HOH    HW2 5401   3.854   2.658   2.853
 1756HOH    OW  5402   1.458   0.525   3.884
 1756HOH    HW1 5403   1.519   0.573   3.941
 1756HOH    HW2 5404   1.416   0.462   3.942
 1757HOH    OW  5405   0.917   2.997   0.598
 1757HOH    HW1 5406   0.960   3.077   0.629
 1757HOH    HW2 5407   0.852   3.028   0.535
 1758HOH    OW  5408   3.453   3.690   0.557
 1758HOH    HW1 5409   3.405   3.649   0.486
 1758HOH    HW2 5410   3.493   3.617   0.604
 1759HOH    OW  5411   0.465   1.687   3.866
 1759HOH    HW1 5412   0.418   1.724   3.940
 1759HOH    HW2 5413   0.504   1.606   3.900
 1760HOH    OW  5414   0.467   3.695   0.134
 1760HOH    HW1 5415   0.547   3.666   0.179
 1760HOH    HW2 5416   0.400   3.633   0.162
 1761HOH    OW  5417   3.656   3.054   2.681
 1761HOH    HW1 5418   3.660   3.128   2.621
 1761HOH    HW2 5419   3.563   3.038   2.694
 1762HOH    OW  5420   0.450   0.472   2.895
 1762HOH    HW1 5421   0.467   0.526   2.971
 1762HOH    HW2 5422   0.490   0.387   2.916
 1763HOH    OW  5423   2.600   3.494   2.943
 1763HOH    HW1 5424   2.623   3.437   2.869
 1763HOH    HW2 5425   2.682   3.538   2.966
 1764HOH    OW  5426   1.812   2.237   1.857
 1764HOH    HW1 5427   1.885   2.296   1.843
 1764HOH    HW2 5428   1.738   2.294   1.877
 1765HOH    OW  5429   1.389   2.214   3.018
 1765HOH    HW1 5430   1.352   2.260   2.942
 1765HOH    HW2 5431   1.362   2.267   3.093
 1766HOH    OW  5432   1.332   0.398   2.270
 1766HOH    HW1 5433   1.274   0.360   2.205
 1766HOH    HW2 5434   1.276   0.411   2.347
 1767HOH    OW  5435   3.656   0.505   0.645
 1767HOH    HW1 5436   3.696   0.532   0.562
 1767HOH    HW2 5437   3.709   0.431   0.675
 1768HOH    OW  5438   0.799   2.749   0.662
 1768HOH    HW1 5439   0.822   2.841   0.674
 1768HOH    HW2 5440   0.827   2.707   0.743
 1769HOH    OW  5441   3.252   0.897   1.644
 1769HOH    HW1 5442   3.263   0.810   1.605
 1769HOH    HW2 5443   3.255   0.957   1.570
 1770HOH    OW  5444   2.899   0.147   3.207
 1770HOH    HW1 5445   2.969   0.083   3.195
 1770HOH    HW2 5446   2.821   0.095   3.224
 1771HOH    OW  5447   0.920   0.065   1.741
 1771HOH    HW1 5448   0.923   0.101   1.830
 1771HOH    HW2 5449   1.006   0.083   1.705
 1772HOH    OW  5450   0.761   2.839   0.252
 1772HOH    HW1 5451   0.730   2.749   0.240
 1772HOH    HW2 5452   0.846   2.841   0.208
 1773HOH    OW  5453   1.688   2.714   2.429
 1773HOH    HW1 5454   1.712   2.775   2.359
 1773HOH    HW2 5455   1.693   2.765   2.509
 1774HOH    OW  5456   0.701   0.660   2.786
 1774HOH    HW1 5457   0.715   0.746   2.824
 1774HOH    HW2 5458   0.645   0.676   2.709
 1775HOH    OW  5459   1.367   2.650   1.145
 1775HOH    HW1 5460   1.338   2.740   1.161
 1775HOH    HW2 5461   1.451   2.644   1.191
 1776HOH    OW  5462   3.725   1.124   2.418
 1776HOH    HW1 5463   3.643   1.171   2.425
 1776HOH    HW2 5464   3.787   1.188   2.383
 1777HOH    OW  5465   0.147   2.763   3.151
 1777HOH    HW1 5466   0.063   2.730   3.118
 1777HOH    HW2 5467   0.193   2.794   3.073
 1778HOH    OW  5468   0.677   1.134   2.679
 1778HOH    HW1 5469   0.768   1.165   2.684
 1778HOH    HW2 5470   0.626   1.213   2.661
 1779HOH    OW  5471   2.531   3.516   2.655
 1779HOH    HW1 5472   2.516   3.424   2.632
 1779HOH    HW2 5473   2.524   3.518   2.751
 1780HOH    OW  5474   2.673   0.735   3.152
 1780HOH    HW1 5475   2.690   0.770   3.065
 1780HOH    HW2 5476   2.607   0.667   3.139
 1781HOH    OW  5477   2.257   0.026   1.173
 1781HOH    HW1 5478   2.348   0.057   1.171
 1781HOH    HW2 5479   2.205   0.104   1.155
 1782HOH    OW  5480   1.837   3.576   1.130
 1782HOH    HW1 5481   1.790   3.649   1.089
 1782HOH    HW2 5482   1.857   3.607   1.218
 1783HOH    OW  5483   0.046   2.039   0.926
 1783HOH    HW1 5484   0.034   2.091   1.006
 1783HOH    HW2 5485   0.015   2.096   0.856
 1784HOH    OW  5486   0.850   0.964   2.935
 1784HOH    HW1 5487   0.849   1.041   2.877
 1784HOH    HW2 5488   0.943   0.950   2.953
 1785HOH    OW  5489   2.415   2.739   0.224
 1785HOH    HW1 5490   2.503   2.730   0.188
 1785HOH    HW2 5491   2.428   2.741   0.319
 1786HOH    OW  5492   0.535   1.319   2.476
 1786HOH    HW1 5493   0.625   1.312   2.445
 1786HOH    HW2 5494   0.494   1.236   2.450
 1787HOH    OW  5495   2.524   1.130   1.214
 1787HOH    HW1 5496   2.453   1.106   1.154
 1787HOH    HW2 5497   2.498   1.093   1.298
 1788HOH    OW  5498   3.703   3.575   1.608
 1788HOH    HW1 5499   3.741   3.633   1.542
 1788HOH    HW2 5500   3.777   3.544   1.659
 1789HOH    OW  5501   0.712   0.026   1.486
 1789HOH    HW1 5502   0.740   3.936   1.410
 1789HOH    HW2 5503   0.764   3.952   1.559
 1790HOH    OW  5504   2.357   1.351   1.386
 1790HOH    HW1 5505   2.406   1.420   1.339
 1790HOH    HW2 5506   2.277   1.340   1.334
 1791HOH    OW  5507   3.163   2.701   1.734
 1791HOH    HW1 5508   3.164   2.771   1.799
 1791HOH    HW2 5509   3.228   2.728   1.669
 1792HOH    OW  5510   1.600   3.877   0.417
 1792HOH    HW1 5511   1.672   3.819   0.441
 1792HOH    HW2 5512   1.612   3.893   0.323
 1793HOH    OW  5513   0.282   2.772   3.779
 1793HOH    HW1 5514   0.201   2.807   3.817
 1793HOH    HW2 5515   0.294   2.822   3.699
 1794HOH    OW  5516   2.956   0.135   0.613
 1794HOH    HW1 5517   2.945   0.067   0.547
 1794HOH    HW2 5518   2.901   0.207   0.582
 1795HOH    OW  5519   0.158   0.435   3.651
 1795HOH    HW1 5520   0.251   0.458   3.657
 1795HOH    HW2 5521   0.118   0.508   3.605
 1796HOH    OW  5522   1.460   3.856   2.895
 1796HOH    HW1 5523   1.524   3.793   2.862
 1796HOH    HW2 5524   1.386   3.803   2.924
 1797HOH    OW  5525   3.252   1.304   0.130
 1797HOH    HW1 5526   3.284   1.224   0.171
 1797HOH    HW2 5527   3.325   1.336   0.078
 1798HOH    OW  5528   1.857   2.860   2.659
 1798HOH    HW1 5529   1.916   2.848   2.734
 1798HOH    HW2 5530   1.911   2.838   2.583
 1799HOH    OW  5531   1.027   0.682   2.679
 1799HOH    HW1 5532   1.079   0.641   2.749
 1799HOH    HW2 5533   0.939   0.689   2.715
 1800HOH    OW  5534   1.084   1.034   0.608
 1800HOH    HW1 5535   1.103   1.123   0.638
 1800HOH    HW2 5536   1.160   0.983   0.636
 1801HOH    OW  5537   1.803   0.643   0.906
 1801HOH    HW1 5538   1.873   0.707   0.898
 1801HOH    HW2 5539   1.795   0.628   1.001
 1802HOH    OW  5540   1.706   2.981   0.034
 1802HOH    HW1 5541   1.708   3.000   0.128
 1802HOH    HW2 5542   1.798   2.977   0.009
 1803HOH    OW  5543   1.409   0.488   2.748
 1803HOH    HW1 5544   1.467   0.412   2.755
 1803HOH    HW2 5545   1.337   0.468   2.809
 1804HOH    OW  5546   2.833   0.687   1.561
 1804HOH    HW1 5547   2.777   0.765   1.566
 1804HOH    HW2 5548   2.891   0.695   1.637
 1805HOH    OW  5549   2.919   3.436   0.411
 1805HOH    HW1 5550   2.962   3.520   0.424
 1805HOH    HW2 5551   2.826   3.455   0.421
 1806HOH    OW  5552   3.076   1.845   0.054
 1806HOH    HW1 5553   3.056   1.855   3.922
 1806HOH    HW2 5554   3.062   1.933   0.090
 1807HOH    OW  5555   2.863   0.476   2.734
 1807HOH    HW1 5556   2.943   0.439   2.770
 1807HOH    HW2 5557   2.869   0.570   2.753
 1808HOH    OW  5558   3.130   2.861   1.468
 1808HOH    HW1 5559   3.202   2.872   1.530
 1808HOH    HW2 5560   3.083   2.944   1.470
 1809HOH    OW  5561   2.311   0.646   0.465
 1809HOH    HW1 5562   2.296   0.661   0.371
 1809HOH    HW2 5563   2.235   0.685   0.507
 1810HOH    OW  5564   3.429   2.457   3.230
 1810HOH    HW1 5565   3.402   2.393   3.296
 1810HOH    HW2 5566   3.347   2.487   3.191
 1811HOH    OW  5567   1.403   1.216   0.390
 1811HOH    HW1 5568   1.365   1.146   0.337
 1811HOH    HW2 5569   1.491   1.185   0.410
 1812HOH    OW  5570   2.792   2.849   0.106
 1812HOH    HW1 5571   2.729   2.918   0.130
 1812HOH    HW2 5572   2.738   2.771   0.093
 1813HOH    OW  5573   1.734   2.716   3.279
 1813HOH    HW1 5574   1.693   2.629   3.279
 1813HOH    HW2 5575   1.668   2.774   3.243
 1814HOH    OW  5576   1.602   3.690   2.689
 1814HOH    HW1 5577   1.576   3.602   2.716
 1814HOH    HW2 5578   1.684   3.705   2.735
 1815HOH    OW  5579   2.298   2.833   0.879
 1815HOH    HW1 5580   2.277   2.742   0.897
 1815HOH    HW2 5581   2.230   2.884   0.923
 1816HOH    OW  5582   3.059   0.333   0.402
 1816HOH    HW1 5583   3.131   0.342   0.339
 1816HOH    HW2 5584   3.072   0.247   0.442
 1817HOH    OW  5585   1.477   1.766   0.036
 1817HOH    HW1 5586   1.560   1.811   0.019
 1817HOH    HW2 5587   1.415   1.837   0.049
 1818HOH    OW  5588   2.300   3.958   2.393
 1818HOH    HW1 5589   2.206   3.958   2.373
 1818HOH    HW2 5590   2.336   0.067   2.338
 1819HOH    OW  5591   2.045   1.073   0.693
 1819HOH    HW1 5592   2.095   1.048   0.615
 1819HOH    HW2 5593   1.955   1.080   0.662
 1820HOH    OW  5594   0.631   0.933   0.213
 1820HOH    HW1 5595   0.609   0.984   0.291
 1820HOH    HW2 5596   0.560   0.869   0.206
 1821HOH    OW  5597   2.151   2.284   2.198
 1821HOH    HW1 5598   2.183   2.209   2.147
 1821HOH    HW2 5599   2.056   2.281   2.189
 1822HOH    OW  5600   3.234   0.038   0.257
 1822HOH    HW1 5601   3.305   3.937   0.241
 1822HOH    HW2 5602   3.211   0.070   0.170
 1823HOH    OW  5603   2.221   2.452   0.130
 1823HOH    HW1 5604   2.182   2.407   0.054
 1823HOH    HW2 5605   2.199   2.544   0.117
 1824HOH    OW  5606   2.796   2.392   3.400
 1824HOH    HW1 5607   2.804   2.350   3.486
 1824HOH    HW2 5608   2.885   2.396   3.367
 1825HOH    OW  5609   3.417   2.864   2.256
 1825HOH    HW1 5610   3.510   2.842   2.247
 1825HOH    HW2 5611   3.403   2.867   2.351
 1826HOH    OW  5612   3.398   3.209   1.488
 1826HOH    HW1 5613   3.449   3.146   1.437
 1826HOH    HW2 5614   3.418   3.294   1.449
 1827HOH    OW  5615   2.742   2.114   1.945
 1827HOH    HW1 5616   2.709   2.133   1.858
 1827HOH    HW2 5617   2.837   2.114   1.935
 1828HOH    OW  5618   3.005   0.638   0.372
 1828HOH    HW1 5619   3.070   0.591   0.425
 1828HOH    HW2 5620   2.944   0.570   0.343
 1829HOH    OW  5621   3.027   2.118   3.330
 1829HOH    HW1 5622   3.046   2.027   3.309
 1829HOH    HW2 5623   3.103   2.147   3.380
 1830HOH    OW  5624   3.732   0.320   2.444
 1830HOH    HW1 5625   3.720   0.366   2.527
 1830HOH    HW2 5626   3.788   0.245   2.465
 1831HOH    OW  5627   3.593   1.409   2.149
 1831HOH    HW1 5628   3.625   1.419   2.238
 1831HOH    HW2 5629   3.532   1.482   2.136
 1832HOH    OW  5630   2.914   1.008   1.548
 1832HOH    HW1 5631   2.835   0.987   1.599
 1832HOH    HW2 5632   2.944   0.923   1.514
 1833HOH    OW  5633   3.772   1.531   1.819
 1833HOH    HW1 5634   3.718   1.471   1.871
 1833HOH    HW2 5635   3.710   1.576   1.761
 1834HOH    OW  5636   2.303   0.402   3.047
 1834HOH    HW1 5637   2.278   0.326   2.994
 1834HOH    HW2 5638   2.284   0.477   2.990
 1835HOH    OW  5639   3.838   2.719   3.092
 1835HOH    HW1 5640   3.751   2.709   3.130
 1835HOH    HW2 5641   3.864   2.630   3.068
 1836HOH    OW  5642   1.605   2.928   0.586
 1836HOH    HW1 5643   1.700   2.939   0.589
 1836HOH    HW2 5644   1.592   2.836   0.563
 1837HOH    OW  5645   1.656   2.695   2.976
 1837HOH    HW1 5646   1.735   2.645   2.999
 1837HOH    HW2 5647   1.592   2.670   3.043
 1838HOH    OW  5648   0.249   3.031   0.674
 1838HOH    HW1 5649   0.174   3.086   0.651
 1838HOH    HW2 5650   0.286   3.072   0.752
 1839HOH    OW  5651   3.609   1.028   1.606
 1839HOH    HW1 5652   3.595   0.955   1.666
 1839HOH    HW2 5653   3.703   1.047   1.612
 1840HOH    OW  5654   0.493   0.624   3.855
 1840HOH    HW1 5655   0.559   0.672   3.805
 1840HOH    HW2 5656   0.460   0.558   3.794
 1841HOH    OW  5657   1.385   1.469   0.470
 1841HOH    HW1 5658   1.400   1.383   0.429
 1841HOH    HW2 5659   1.473   1.502   0.489
 1842HOH    OW  5660   3.046   3.778   1.084
 1842HOH    HW1 5661   3.116   3.837   1.052
 1842HOH    HW2 5662   3.009   3.740   1.004
 1843HOH    OW  5663   1.834   2.285   0.193
 1843HOH    HW1 5664   1.793   2.342   0.127
 1843HOH    HW2 5665   1.892   2.228   0.142
 1844HOH    OW  5666   3.392   2.217   1.041
 1844HOH    HW1 5667   3.457   2.179   1.100
 1844HOH    HW2 5668   3.413   2.310   1.038
 1845HOH    OW  5669   3.717   2.085   0.242
 1845HOH    HW1 5670   3.712   2.155   0.177
 1845HOH    HW2 5671   3.751   2.128   0.321
 1846HOH    OW  5672   2.414   3.075   2.032
 1846HOH    HW1 5673   2.323   3.097   2.049
 1846HOH    HW2 5674   2.415   3.044   1.941
 1847HOH    OW  5675   1.915   1.911   2.303
 1847HOH    HW1 5676   1.945   1.821   2.288
 1847HOH    HW2 5677   1.887   1.942   2.217
 1848HOH    OW  5678   2.715   1.917   3.161
 1848HOH    HW1 5679   2.651   1.848   3.144
 1848HOH    HW2 5680   2.799   1.879   3.133
 1849HOH    OW  5681   3.308   1.390   2.857
 1849HOH    HW1 5682   3.284   1.363   2.946
 1849HOH    HW2 5683   3.224   1.405   2.813
 1850HOH    OW  5684   0.383   2.896   2.682
 1850HOH    HW1 5685   0.293   2.890   2.651
 1850HOH    HW2 5686   0.408   2.807   2.703
 1851HOH    OW  5687   1.588   1.259   0.077
 1851HOH    HW1 5688   1.668   1.221   0.040
 1851HOH    HW2 5689   1.588   1.349   0.046
 1852HOH    OW  5690   1.115   3.710   3.173
 1852HOH    HW1 5691   1.065   3.665   3.241
 1852HOH    HW2 5692   1.054   3.721   3.101
 1853HOH    OW  5693   0.574   2.867   0.471
 1853HOH    HW1 5694   0.539   2.779   0.486
 1853HOH    HW2 5695   0.665   2.852   0.447
 1854HOH    OW  5696   2.794   0.354   1.624
 1854HOH    HW1 5697   2.872   0.364   1.678
 1854HOH    HW2 5698   2.800   0.426   1.561
 1855HOH    OW  5699   0.405   3.355   2.188
 1855HOH    HW1 5700   0.421   3.297   2.262
 1855HOH    HW2 5701   0.331   3.317   2.142
 1856HOH    OW  5702   3.285   3.203   1.856
 1856HOH    HW1 5703   3.254   3.133   1.914
 1856HOH    HW2 5704   3.374   3.177   1.832
 1857HOH    OW  5705   1.766   0.134   2.815
 1857HOH    HW1 5706   1.766   0.184   2.734
 1857HOH    HW2 5707   1.761   0.200   2.884
 1858HOH    OW  5708   1.782   0.732   2.308
 1858HOH    HW1 5709   1.703   0.681   2.289
 1858HOH    HW2 5710   1.767   0.816   2.267
 1859HOH    OW  5711   3.381   2.338   3.497
 1859HOH    HW1 5712   3.298   2.368   3.534
 1859HOH    HW2 5713   3.359   2.256   3.452
 1860HOH    OW  5714   0.464   3.372   3.145
 1860HOH    HW1 5715   0.426   3.456   3.121
 1860HOH    HW2 5716   0.472   3.325   3.062
 1861HOH    OW  5717   2.218   3.320   3.240
 1861HOH    HW1 5718   2.233   3.231   3.206
 1861HOH    HW2 5719   2.248   3.378   3.170
 1862HOH    OW  5720   1.201   1.255   1.122
 1862HOH    HW1 5721   1.177   1.163   1.122
 1862HOH    HW2 5722   1.217   1.275   1.215
 1863HOH    OW  5723   1.794   0.793   3.471
 1863HOH    HW1 5724   1.827   0.852   3.402
 1863HOH    HW2 5725   1.699   0.806   3.469
 1864HOH    OW  5726   2.601   3.273   0.893
 1864HOH    HW1 5727   2.547   3.278   0.972
 1864HOH    HW2 5728   2.620   3.364   0.871
 1865HOH    OW  5729   3.478   1.964   0.072
 1865HOH    HW1 5730   3.506   2.026   0.005
 1865HOH    HW2 5731   3.417   1.905   0.027
 1866HOH    OW  5732   2.587   1.770   0.677
 1866HOH    HW1 5733   2.554   1.841   0.731
 1866HOH    HW2 5734   2.601   1.697   0.738
 1867HOH    OW  5735   2.949   2.067   0.113
 1867HOH    HW1 5736   2.863   2.040   0.145
 1867HOH    HW2 5737   2.938   2.159   0.090
 1868HOH    OW  5738   1.865   1.225   1.425
 1868HOH    HW1 5739   1.820   1.233   1.341
 1868HOH    HW2 5740   1.938   1.286   1.419
 1869HOH    OW  5741   1.988   1.368   0.597
 1869HOH    HW1 5742   2.056   1.307   0.626
 1869HOH    HW2 5743   1.906   1.328   0.623
 1870HOH    OW  5744   0.681   0.554   3.539
 1870HOH    HW1 5745   0.699   0.572   3.447
 1870HOH    HW2 5746   0.765   0.569   3.584
 1871HOH    OW  5747   1.173   0.138   1.621
 1871HOH    HW1 5748   1.253   0.086   1.632
 1871HOH    HW2 5749   1.137   0.109   1.537
 1872HOH    OW  5750   2.449   1.219   0.176
 1872HOH    HW1 5751   2.513   1.249   0.111
 1872HOH    HW2 5752   2.502   1.190   0.251
 1873HOH    OW  5753   2.959   1.451   0.608
 1873HOH    HW1 5754   2.917   1.531   0.577
 1873HOH    HW2 5755   3.049   1.478   0.629
 1874HOH    OW  5756   0.385   2.656   2.173
 1874HOH    HW1 5757   0.350   2.574   2.139
 1874HOH    HW2 5758   0.466   2.631   2.218
 1875HOH    OW  5759   1.997   1.617   1.484
 1875HOH    HW1 5760   2.011   1.525   1.508
 1875HOH    HW2 5761   2.062   1.665   1.536
 1876HOH    OW  5762   2.936   3.718   0.801
 1876HOH    HW1 5763   2.949   3.628   0.831
 1876HOH    HW2 5764   2.985   3.724   0.719
 1877HOH    OW  5765   3.008   3.099   0.587
 1877HOH    HW1 5766   2.933   3.041   0.574
 1877HOH    HW2 5767   3.076   3.042   0.623
 1878HOH    OW  5768   0.528   3.477   0.531
 1878HOH    HW1 5769   0.579   3.510   0.458
 1878HOH    HW2 5770   0.587   3.483   0.607
 1879HOH    OW  5771   3.013   0.842   0.699
 1879HOH    HW1 5772   3.094   0.829   0.650
 1879HOH    HW2 5773   2.968   0.914   0.654
 1880HOH    OW  5774   1.691   3.345   3.541
 1880HOH    HW1 5775   1.711   3.273   3.601
 1880HOH    HW2 5776   1.769   3.400   3.543
 1881HOH    OW  5777   0.250   1.999   0.121
 1881HOH    HW1 5778   0.235   2.056   0.046
 1881HOH    HW2 5779   0.343   2.010   0.142
 1882HOH    OW  5780   2.990   0.238   0.113
 1882HOH    HW1 5781   3.062   0.284   0.071
 1882HOH    HW2 5782   2.993   0.149   0.078
 1883HOH    OW  5783   2.950   3.894   0.447
 1883HOH    HW1 5784   2.993   0.005   0.401
 1883HOH    HW2 5785   2.891   3.857   0.381
 1884HOH    OW  5786   1.882   3.728   3.751
 1884HOH    HW1 5787   1.959   3.755   3.800
 1884HOH    HW2 5788   1.889   3.633   3.745
 1885HOH    OW  5789   3.828   2.272   0.483
 1885HOH    HW1 5790   3.909   2.229   0.511
 1885HOH    HW2 5791   3.766   2.256   0.554
 1886HOH    OW  5792   1.400   3.713   3.393
 1886HOH    HW1 5793   1.487   3.749   3.379
 1886HOH    HW2 5794   1.372   3.746   3.478
 1887HOH    OW  5795   2.533   2.906   3.836
 1887HOH    HW1 5796   2.561   2.837   3.895
 1887HOH    HW2 5797   2.561   2.877   3.749
 1888HOH    OW  5798   2.256   2.664   3.277
 1888HOH    HW1 5799   2.297   2.701   3.198
 1888HOH    HW2 5800   2.313   2.692   3.349
 1889HOH    OW  5801   2.975   3.391   3.366
 1889HOH    HW1 5802   2.909   3.421   3.428
 1889HOH    HW2 5803   2.950   3.301   3.346
 1890HOH    OW  5804   2.354   0.932   0.101
 1890HOH    HW1 5805   2.383   1.008   0.152
 1890HOH    HW2 5806   2.423   0.867   0.114
 1891HOH    OW  5807   2.913   3.469   0.100
 1891HOH    HW1 5808   2.898   3.383   0.061
 1891HOH    HW2 5809   2.885   3.459   0.191
 1892HOH    OW  5810   0.660   1.447   1.870
 1892HOH    HW1 5811   0.695   1.518   1.923
 1892HOH    HW2 5812   0.663   1.371   1.927
 1893HOH    OW  5813   1.077   0.308   2.443
 1893HOH    HW1 5814   1.111   0.397   2.434
 1893HOH    HW2 5815   0.989   0.319   2.478
 1894HOH    OW  5816   0.531   2.989   2.920
 1894HOH    HW1 5817   0.474   2.928   2.874
 1894HOH    HW2 5818   0.585   2.934   2.978
 1895HOH    OW  5819   3.093   1.856   1.180
 1895HOH    HW1 5820   3.182   1.873   1.149
 1895HOH    HW2 5821   3.056   1.943   1.196
 1896HOH    OW  5822   3.367   1.272   1.148
 1896HOH    HW1 5823   3.363   1.343   1.212
 1896HOH    HW2 5824   3.382   1.193   1.200
 1897HOH    OW  5825   1.149   0.600   1.853
 1897HOH    HW1 5826   1.072   0.654   1.840
 1897HOH    HW2 5827   1.143   0.533   1.785
 1898HOH    OW  5828   2.207   2.107   3.067
 1898HOH    HW1 5829   2.266   2.153   3.007
 1898HOH    HW2 5830   2.161   2.044   3.012
 1899HOH    OW  5831   1.016   1.673   0.883
 1899HOH    HW1 5832   1.078   1.602   0.902
 1899HOH    HW2 5833   0.934   1.645   0.923
 1900HOH    OW  5834   0.045   1.563   1.985
 1900HOH    HW1 5835   3.928   1.560   1.929
 1900HOH    HW2 5836   0.117   1.580   1.924
 1901HOH    OW  5837   2.908   0.987   3.292
 1901HOH    HW1 5838   2.984   0.945   3.251
 1901HOH    HW2 5839   2.833   0.958   3.241
 1902HOH    OW  5840   0.486   0.357   1.156
 1902HOH    HW1 5841   0.536   0.425   1.201
 1902HOH    HW2 5842   0.418   0.404   1.108
 1903HOH    OW  5843   0.881   1.890   1.142
 1903HOH    HW1 5844   0.972   1.879   1.170
 1903HOH    HW2 5845   0.883   1.867   1.049
 1904HOH    OW  5846   3.621   0.047   3.309
 1904HOH    HW1 5847   3.542   0.029   3.259
 1904HOH    HW2 5848   3.623   3.939   3.376
 1905HOH    OW  5849   3.893   1.544   2.996
 1905HOH    HW1 5850   3.934   1.488   3.063
 1905HOH    HW2 5851   3.941   1.627   3.002
 1906HOH    OW  5852   0.370   1.281   3.186
 1906HOH    HW1 5853   0.374   1.222   3.262
 1906HOH    HW2 5854   0.366   1.222   3.111
 1907HOH    OW  5855   2.814   0.079   1.834
 1907HOH    HW1 5856   2.908   0.068   1.823
 1907HOH    HW2 5857   2.780   3.950   1.844
 1908HOH    OW  5858   0.085   3.080   1.080
 1908HOH    HW1 5859   0.031   3.015   1.036
 1908HOH    HW2 5860   0.168   3.079   1.032
 1909HOH    OW  5861   3.077   2.430   2.290
 1909HOH    HW1 5862   3.029   2.461   2.367
 1909HOH    HW2 5863   3.116   2.509   2.253
 1910HOH    OW  5864   2.625   0.870   0.133
 1910HOH    HW1 5865   2.708   0.886   0.177
 1910HOH    HW2 5866   2.606   0.778   0.151
 1911HOH    OW  5867   0.725   1.110   0.853
 1911HOH    HW1 5868   0.770   1.029   0.875
 1911HOH    HW2 5869   0.777   1.179   0.894
 1912HOH    OW  5870   0.713   1.840   3.564
 1912HOH    HW1 5871   0.760   1.793   3.634
 1912HOH    HW2 5872   0.678   1.771   3.508
 1913HOH    OW  5873   1.252   1.103   2.020
 1913HOH    HW1 5874   1.181   1.085   1.958
 1913HOH    HW2 5875   1.256   1.026   2.076
 1914HOH    OW  5876   0.932   3.001   2.816
 1914HOH    HW1 5877   1.013   2.951   2.824
 1914HOH    HW2 5878   0.923   3.045   2.900
 1915HOH    OW  5879   2.314   1.075   1.055
 1915HOH    HW1 5880   2.305   1.118   0.970
 1915HOH    HW2 5881   2.224   1.072   1.089
 1916HOH    OW  5882   1.907   0.084   1.196
 1916HOH    HW1 5883   1.911   0.067   1.102
 1916HOH    HW2 5884   1.939   0.173   1.205
 1917HOH    OW  5885   0.729   3.612   2.646
 1917HOH    HW1 5886   0.678   3.675   2.596
 1917HOH    HW2 5887   0.819   3.643   2.640
 1918NA     NA  5888   0.869   3.069   2.596
 1919NA     NA  5889   1.199   2.436   1.870
   3.96100   3.96100   3.96100   0.00000   0.00000   0.00000   0.00000   0.00000   0.00000
